Title
81374
    1CHL1    C3    1   4.195   0.038  10.125  0.4138 -0.3127  0.4917
    1CHL1    H3    2   4.193   0.149  10.129  1.0083 -0.1869 -1.5355
    1CHL1    O3    3   4.216  -0.007  10.260  1.0293 -0.4776 -0.2342
    1CHL1   H3'    4   4.148   0.035  10.314  1.4263  0.7734 -0.6738
    1CHL1    C4    5   4.067  -0.016  10.064  0.2181 -0.1125  0.7417
    1CHL1   H4A    6   4.064  -0.127  10.068 -0.7603 -0.1094  0.4783
    1CHL1   H4B    7   3.985   0.007  10.135 -0.0576 -1.1937  0.7994
    1CHL1    C5    8   4.055   0.017   9.915  0.1759  0.1146  0.3966
    1CHL1    C6    9   3.944   0.069   9.856  0.3456  0.3413 -0.0653
    1CHL1    H6   10   3.859   0.078   9.925  0.8484 -3.1971  1.2050
    1CHL1    C7   11   3.925   0.103   9.713  0.0099 -0.1837 -0.2288
    1CHL1   H7A   12   3.829   0.059   9.681 -1.4464 -1.0705  4.5828
    1CHL1   H7B   13   3.939   0.213   9.703  2.3756 -0.4986 -1.0770
    1CHL1    C8   14   4.035   0.033   9.624 -0.5392 -0.1658 -0.0622
    1CHL1    H8   15   3.999  -0.072   9.631 -0.4909 -0.2344 -0.7054
    1CHL1   C14   16   4.021   0.093   9.489 -0.3585 -0.2511 -0.4205
    1CHL1   H14   17   4.034   0.202   9.505 -3.0130  0.2668 -1.2703
    1CHL1   C15   18   3.877   0.095   9.430  0.0324 -0.9008  0.0732
    1CHL1  H15A   19   3.823  -0.001   9.446  1.1707 -1.8006 -1.2706
    1CHL1  H15B   20   3.818   0.185   9.460  2.5153  1.5456 -1.7650
    1CHL1   C16   21   3.912   0.115   9.279  0.0873  0.4435 -0.3558
    1CHL1  H16A   22   3.879   0.022   9.227  3.2896 -0.2848 -1.3656
    1CHL1  H16B   23   3.858   0.206   9.246  0.3039  0.6635 -0.1039
    1CHL1   C17   24   4.067   0.118   9.259 -1.2907  0.0894 -0.0020
    1CHL1   H17   25   4.094   0.226   9.264 -1.1378  0.2384 -2.6083
    1CHL1   C13   26   4.118   0.044   9.385  0.5299  0.0262 -0.5619
    1CHL1   C18   27   4.112  -0.109   9.367 -0.0736  0.3381  0.1609
    1CHL1  H18A   28   4.163  -0.156   9.454  0.1177  1.9856  0.9757
    1CHL1  H18B   29   4.009  -0.149   9.364 -0.6692  1.7664  0.4576
    1CHL1  H18C   30   4.157  -0.148   9.273 -0.1261 -0.8958  0.6342
    1CHL1   C12   31   4.262   0.071   9.437  0.2971  0.1701 -0.0437
    1CHL1  H12A   32   4.334   0.018   9.371  0.2662 -1.1317  0.9162
    1CHL1  H12B   33   4.284   0.179   9.429  1.1774  0.1291  1.4360
    1CHL1   C11   34   4.288   0.022   9.581 -0.2739  0.4806 -0.5028
    1CHL1  H11A   35   4.312  -0.086   9.568  1.9030  1.1702 -3.1563
    1CHL1  H11B   36   4.388   0.061   9.608 -1.0065  0.6312  2.2586
    1CHL1    C9   37   4.175   0.054   9.687 -0.3595 -0.1256  0.3029
    1CHL1    H9   38   4.187   0.164   9.701 -0.9601  0.4558 -2.9355
    1CHL1   C10   39   4.191  -0.009   9.827  0.1131  0.0165 -0.0178
    1CHL1   C19   40   4.207  -0.158   9.799  0.2913  0.9644  0.0537
    1CHL1  H19A   41   4.303  -0.189   9.753 -0.7495 -2.2049 -0.2289
    1CHL1  H19B   42   4.194  -0.211   9.896 -1.2259 -1.1582 -1.2148
    1CHL1  H19C   43   4.126  -0.201   9.736  0.3849 -0.6218  0.9833
    1CHL1    C1   44   4.312   0.051   9.903 -0.0804  0.6566 -0.2508
    1CHL1   H1A   45   4.410   0.031   9.855  0.7496  1.6965  0.9496
    1CHL1   H1B   46   4.299   0.161   9.896  0.9780  0.7669 -0.6906
    1CHL1    C2   47   4.320   0.008  10.046  0.4550  0.3648 -0.0181
    1CHL1   H2A   48   4.401   0.074  10.083  0.5093  1.0966 -1.3767
    1CHL1   H2B   49   4.363  -0.094  10.052  1.6619  0.7697 -1.1784
    1CHL1   C20   50   4.094   0.071   9.116  0.0507  0.4016 -0.2204
    1CHL1   H20   51   4.058  -0.034   9.103  1.9640 -0.4679  1.0238
    1CHL1   C21   52   4.244   0.070   9.093  0.4408 -0.1532  0.2530
    1CHL1  H21A   53   4.282   0.006   9.175 -0.5731  0.7221  1.4469
    1CHL1  H21B   54   4.278   0.176   9.095 -1.8220  0.6935 -1.4198
    1CHL1  H21C   55   4.274   0.025   8.996 -0.6708 -1.2670  0.3992
    1CHL1   C22   56   4.032   0.165   9.008 -0.4315 -0.1670  0.2309
    1CHL1  H22A   57   3.933   0.206   9.037  0.1615  0.9525  0.7645
    1CHL1  H22B   58   4.106   0.249   9.007 -0.9534  0.2932  0.1916
    1CHL1   C23   59   4.015   0.091   8.879  0.0584  0.3187  0.0884
    1CHL1  H23A   60   4.102   0.026   8.854 -0.0182  0.9668 -2.1105
    1CHL1  H23B   61   3.935   0.015   8.886 -1.0139  1.2923 -1.0981
    1CHL1   C24   62   3.990   0.189   8.761  0.4913  0.0385 -0.6087
    1CHL1  H24A   63   3.904   0.255   8.784  0.8564  1.9640 -4.1126
    1CHL1  H24B   64   4.066   0.269   8.752 -1.9892  2.4398 -1.9452
    1CHL1   C25   65   3.971   0.131   8.621 -0.7056 -0.5500  0.1536
    1CHL1   H25   66   4.061   0.068   8.609 -0.3490 -0.2456  1.1317
    1CHL1   C26   67   3.852   0.036   8.608 -0.2960  0.1119  0.1689
    1CHL1  H26A   68   3.833   0.009   8.502  0.4931  0.6144 -0.1081
    1CHL1  H26B   69   3.862  -0.064   8.654 -1.5819 -1.3664 -2.5202
    1CHL1  H26C   70   3.764   0.094   8.645 -0.6048  0.3868 -0.9480
    1CHL1   C27   71   3.970   0.238   8.503 -0.0228  0.9393 -0.7172
    1CHL1  H27A   72   4.003   0.199   8.404  2.6438 -0.0562  0.4933
    1CHL1  H27B   73   3.868   0.280   8.490  0.7737  2.7028 -1.6865
    1CHL1  H27C   74   4.036   0.326   8.521  0.2263  0.9758 -1.7052
    2CHL1    C3   75   4.830   5.192   9.969 -0.2334  0.3911 -1.0893
    2CHL1    H3   76   4.940   5.206   9.970  0.0395 -1.4014  1.1056
    2CHL1    O3   77   4.795   5.156  10.103  0.0108  0.1422 -0.1263
    2CHL1   H3'   78   4.700   5.141  10.099 -0.0048  0.2146 -0.0170
    2CHL1    C4   79   4.763   5.324   9.932 -0.2203  0.3112 -0.2260
    2CHL1   H4A   80   4.656   5.303   9.951 -0.3031 -1.2982 -2.1618
    2CHL1   H4B   81   4.790   5.397  10.011  1.3142 -1.5098  1.0275
    2CHL1    C5   82   4.766   5.363   9.788 -0.6357 -0.4610  0.1954
    2CHL1    C6   83   4.823   5.481   9.754 -0.2969  0.5263 -0.0561
    2CHL1    H6   84   4.847   5.556   9.831  0.9407  1.1626 -1.0246
    2CHL1    C7   85   4.829   5.529   9.614 -0.4547  0.4178 -0.1161
    2CHL1   H7A   86   4.797   5.635   9.622 -1.6888 -0.1200  3.5757
    2CHL1   H7B   87   4.934   5.522   9.579 -0.1816 -1.5424  0.9766
    2CHL1    C8   88   4.743   5.446   9.514 -0.6502 -0.4532 -0.0855
    2CHL1    H8   89   4.637   5.465   9.540 -0.0715  1.6979  0.9325
    2CHL1   C14   90   4.781   5.481   9.374 -0.3355 -0.1223  0.0097
    2CHL1   H14   91   4.891   5.467   9.365 -0.3534  0.2592 -0.9921
    2CHL1   C15   92   4.768   5.623   9.324  0.8101  0.2351  0.2786
    2CHL1  H15A   93   4.674   5.664   9.369  0.1306 -2.7899  1.8693
    2CHL1  H15B   94   4.849   5.694   9.351  0.5626 -0.4555  3.1543
    2CHL1   C16   95   4.756   5.611   9.169 -0.7505  0.2659 -0.4252
    2CHL1  H16A   96   4.657   5.656   9.145 -1.8649 -1.9173 -0.1224
    2CHL1  H16B   97   4.838   5.669   9.122 -1.0788  0.0017 -1.3660
    2CHL1   C17   98   4.773   5.457   9.138  0.3080  0.2556 -0.3486
    2CHL1   H17   99   4.881   5.437   9.155  0.0024  0.1049  1.6858
    2CHL1   C13  100   4.722   5.385   9.269  0.4455  0.0913 -0.4913
    2CHL1   C18  101   4.566   5.395   9.264 -0.5399  0.8913  0.2065
    2CHL1  H18A  102   4.529   5.316   9.196  1.2000  0.4537 -0.2709
    2CHL1  H18B  103   4.518   5.369   9.361  0.2025 -3.3559 -0.3793
    2CHL1  H18C  104   4.538   5.496   9.227  0.8304  1.9119  1.8006
    2CHL1   C12  105   4.780   5.249   9.303 -1.3284 -0.7009  0.6359
    2CHL1  H12A  106   4.734   5.182   9.227  0.2526 -1.2144  0.0811
    2CHL1  H12B  107   4.890   5.251   9.286 -1.2395  1.8834  1.1659
    2CHL1   C11  108   4.733   5.200   9.439  1.2841  0.0958  0.3589
    2CHL1  H11A  109   4.622   5.198   9.440  1.2567  0.7360  1.7375
    2CHL1  H11B  110   4.767   5.095   9.449 -0.5454 -0.5816 -0.3294
    2CHL1    C9  111   4.775   5.303   9.545 -0.3277  0.3758 -0.3622
    2CHL1    H9  112   4.885   5.294   9.540 -0.0736 -0.7405  3.7185
    2CHL1   C10  113   4.736   5.252   9.687 -0.4812 -0.2031  0.0337
    2CHL1   C19  114   4.587   5.219   9.689 -0.2100  0.2389 -0.3366
    2CHL1  H19A  115   4.565   5.132   9.624  0.8246  0.0725 -0.4736
    2CHL1  H19B  116   4.544   5.193   9.789 -0.7805 -0.1585 -0.6747
    2CHL1  H19C  117   4.516   5.295   9.650  1.4830  1.5775 -0.9122
    2CHL1    C1  118   4.810   5.121   9.730 -0.3470  0.4016 -0.1624
    2CHL1   H1A  119   4.769   5.039   9.667 -0.9658  0.0287  0.7113
    2CHL1   H1B  120   4.917   5.141   9.709 -0.4518  1.4424  0.2431
    2CHL1    C2  121   4.791   5.076   9.877 -0.4945 -0.5825 -0.0102
    2CHL1   H2A  122   4.857   4.989   9.895 -0.1184 -0.1211  0.9068
    2CHL1   H2B  123   4.684   5.051   9.896 -0.3637 -0.5657  0.7820
    2CHL1   C20  124   4.726   5.397   9.004 -0.4428  0.6709 -0.2585
    2CHL1   H20  125   4.655   5.313   9.022  1.2510 -0.6562  0.6019
    2CHL1   C21  126   4.856   5.338   8.943 -0.0446 -0.4550 -0.0668
    2CHL1  H21A  127   4.921   5.421   8.907 -0.1942 -0.2878  0.0481
    2CHL1  H21B  128   4.838   5.271   8.856  1.8363 -1.1773  0.0433
    2CHL1  H21C  129   4.911   5.266   9.008 -1.4178 -1.0374  0.4837
    2CHL1   C22  130   4.669   5.502   8.909  0.3551 -0.1724 -0.2473
    2CHL1  H22A  131   4.575   5.537   8.956  1.5897  0.8352  1.6472
    2CHL1  H22B  132   4.738   5.589   8.896 -0.2884  0.0596 -2.5023
    2CHL1   C23  133   4.627   5.445   8.763  0.0039  0.2916  0.6960
    2CHL1  H23A  134   4.569   5.524   8.711 -0.2237 -0.2441  0.1377
    2CHL1  H23B  135   4.717   5.428   8.700 -0.3344 -0.4521  0.4062
    2CHL1   C24  136   4.539   5.318   8.769 -0.0809  0.2972 -0.8100
    2CHL1  H24A  137   4.589   5.237   8.827 -3.2665 -0.3993  1.2561
    2CHL1  H24B  138   4.439   5.334   8.814 -0.1056 -1.6085 -0.0953
    2CHL1   C25  139   4.513   5.250   8.628  0.4967  0.4541 -0.0717
    2CHL1   H25  140   4.608   5.239   8.571  0.5507  1.1965 -0.1343
    2CHL1   C26  141   4.463   5.101   8.649  0.0620  0.1033 -0.4400
    2CHL1  H26A  142   4.366   5.114   8.703  0.9062  0.6335  1.0273
    2CHL1  H26B  143   4.460   5.040   8.557  0.9766  1.2760 -1.2717
    2CHL1  H26C  144   4.520   5.039   8.722 -0.7250 -1.4151 -1.0720
    2CHL1   C27  145   4.417   5.328   8.536  0.0885  0.2291  0.4770
    2CHL1  H27A  146   4.477   5.420   8.519  1.3678 -0.3243  1.8729
    2CHL1  H27B  147   4.382   5.274   8.445  1.1696 -1.6932  1.1438
    2CHL1  H27C  148   4.327   5.361   8.593 -0.3831 -1.8547  1.0277
    3CHL1    C3  149   0.044   6.027  10.365 -0.4289 -0.0683 -0.5470
    3CHL1    H3  150   0.065   5.918  10.374  0.1627 -0.1387 -2.4497
    3CHL1    O3  151  -0.041   6.075  10.468  0.0628 -0.6021 -0.0232
    3CHL1   H3'  152  -0.099   6.137  10.424  0.8768 -0.9163 -1.5753
    3CHL1    C4  153   0.178   6.101  10.374 -0.2755  0.2049 -0.1748
    3CHL1   H4A  154   0.168   6.211  10.376 -0.6244  0.1996 -1.0352
    3CHL1   H4B  155   0.226   6.075  10.471  1.0319  1.4411 -0.4734
    3CHL1    C5  156   0.269   6.059  10.255  0.1059  0.1324 -0.1954
    3CHL1    C6  157   0.399   6.015  10.272  0.0443 -0.1447  0.2330
    3CHL1    H6  158   0.440   6.015  10.374  1.1878  1.1087 -0.2065
    3CHL1    C7  159   0.496   5.989  10.163  0.1939  0.2301 -0.5055
    3CHL1   H7A  160   0.594   6.035  10.188  0.0801  1.9696 -2.8469
    3CHL1   H7B  161   0.515   5.881  10.150 -0.4214 -0.0775  0.9659
    3CHL1    C8  162   0.451   6.051  10.029  0.3665  0.4351  0.2065
    3CHL1    H8  163   0.486   6.157  10.029 -1.6019  1.1362  0.4324
    3CHL1   C14  164   0.524   5.982   9.917  0.5013 -0.3769 -0.8292
    3CHL1   H14  165   0.483   5.879   9.922  0.6098 -0.3613  0.9621
    3CHL1   C15  166   0.676   5.971   9.921 -0.5374  0.8750  1.0484
    3CHL1  H15A  167   0.723   6.070   9.940  2.0090  0.2653 -1.4201
    3CHL1  H15B  168   0.708   5.902  10.003 -1.2385 -1.0479 -0.2311
    3CHL1   C16  169   0.718   5.925   9.785 -0.4972  0.3897 -0.0156
    3CHL1  H16A  170   0.803   5.986   9.749 -1.6274  1.0804 -1.6494
    3CHL1  H16B  171   0.740   5.816   9.783 -1.3252  0.2125  0.1682
    3CHL1   C17  172   0.595   5.957   9.695 -0.5633  0.7358  0.4077
    3CHL1   H17  173   0.558   5.856   9.671  0.4334  0.4977 -0.1926
    3CHL1   C13  174   0.492   6.033   9.779 -0.5990 -0.1312  0.1476
    3CHL1   C18  175   0.515   6.189   9.762 -0.6345  0.4240  0.1002
    3CHL1  H18A  176   0.484   6.216   9.659  0.2898  0.5749 -0.1391
    3CHL1  H18B  177   0.451   6.249   9.830 -0.9467  0.5756 -0.3201
    3CHL1  H18C  178   0.619   6.221   9.781 -0.7333  0.7539  0.0871
    3CHL1   C12  179   0.339   5.987   9.757  0.1069 -0.4700  0.5857
    3CHL1  H12A  180   0.302   5.996   9.652 -0.8406 -1.8695  0.7631
    3CHL1  H12B  181   0.321   5.881   9.785  0.2554 -0.0632  2.3182
    3CHL1   C11  182   0.251   6.056   9.865 -0.7702 -0.1330 -0.8502
    3CHL1  H11A  183   0.251   6.166   9.845  0.0170  0.2536  1.1004
    3CHL1  H11B  184   0.149   6.017   9.845 -0.6421 -0.7220 -0.3608
    3CHL1    C9  185   0.299   6.020  10.008  0.5681  0.4699  0.5222
    3CHL1    H9  186   0.286   5.910  10.010  0.7248  0.4308 -0.4758
    3CHL1   C10  187   0.208   6.080  10.117 -0.3075  0.6904  0.3454
    3CHL1   C19  188   0.192   6.226  10.091 -0.5880 -0.4927  0.5755
    3CHL1  H19A  189   0.096   6.254  10.042 -1.2595  1.4572  2.8028
    3CHL1  H19B  190   0.171   6.281  10.185  1.5308  0.7822  0.3712
    3CHL1  H19C  191   0.282   6.274  10.046 -3.2208  1.9095 -2.7755
    3CHL1    C1  192   0.070   6.001  10.117  0.2441  0.1155 -0.1394
    3CHL1   H1A  193   0.032   6.023  10.015  2.7142 -0.7522 -1.3458
    3CHL1   H1B  194   0.092   5.893  10.104  0.3113  0.1927 -0.6852
    3CHL1    C2  195  -0.024   6.050  10.232  0.6112 -0.2886 -0.2080
    3CHL1   H2A  196  -0.120   5.996  10.217  1.8210 -2.4621 -0.5366
    3CHL1   H2B  197  -0.037   6.157  10.202 -1.6682  0.1484  1.9581
    3CHL1   C20  198   0.625   6.023   9.558 -0.3626  0.7832  0.4460
    3CHL1   H20  199   0.678   6.118   9.580  1.3820 -0.3868  1.5312
    3CHL1   C21  200   0.505   6.047   9.458  0.1412 -0.1682  0.2843
    3CHL1  H21A  201   0.432   6.116   9.504 -1.5126 -0.5028 -1.7063
    3CHL1  H21B  202   0.453   5.948   9.458  1.0278 -0.6463  0.2266
    3CHL1  H21C  203   0.540   6.090   9.361 -2.4600 -0.2708 -0.7890
    3CHL1   C22  204   0.726   5.927   9.484 -0.4956 -0.0339  0.5499
    3CHL1  H22A  205   0.794   5.864   9.545  0.9854  0.4257 -0.5522
    3CHL1  H22B  206   0.658   5.857   9.431  0.3615  0.6288 -1.5641
    3CHL1   C23  207   0.807   5.988   9.371 -1.1718  0.5723  0.6167
    3CHL1  H23A  208   0.749   6.045   9.295 -0.5408  1.2240  0.6118
    3CHL1  H23B  209   0.882   6.061   9.409 -0.9132 -0.7901  2.9028
    3CHL1   C24  210   0.878   5.878   9.280 -0.0115  0.1800  0.3195
    3CHL1  H24A  211   0.966   5.918   9.225 -0.2285 -0.6344 -0.6654
    3CHL1  H24B  212   0.921   5.801   9.348 -2.1617 -0.6877  0.7847
    3CHL1   C25  213   0.776   5.815   9.180  0.6124 -0.2379 -0.0489
    3CHL1   H25  214   0.690   5.784   9.243 -0.3676  0.6014 -0.9273
    3CHL1   C26  215   0.704   5.913   9.072  0.0503 -0.6311 -0.6328
    3CHL1  H26A  216   0.768   5.953   8.991 -0.0973 -0.6260 -0.7473
    3CHL1  H26B  217   0.624   5.854   9.024 -1.2532 -0.5614  1.3402
    3CHL1  H26C  218   0.674   6.010   9.118 -2.2422 -1.6162  0.0886
    3CHL1   C27  219   0.852   5.703   9.109  0.9146 -0.1441  0.0796
    3CHL1  H27A  220   0.903   5.641   9.185 -0.8378 -1.3856  0.2936
    3CHL1  H27B  221   0.789   5.641   9.042  0.6198 -0.2253  0.4284
    3CHL1  H27C  222   0.925   5.753   9.041  1.4316 -0.1507  0.6250
    4CHL1    C3  223   5.377   0.104  10.527 -0.1412 -0.5686 -0.0878
    4CHL1    H3  224   5.446   0.031  10.481 -1.6761 -0.8918 -2.0267
    4CHL1    O3  225   5.381   0.109  10.673 -0.1619  0.1595  0.6005
    4CHL1   H3'  226   5.316   0.177  10.692 -0.8511 -0.5213  0.7154
    4CHL1    C4  227   5.414   0.240  10.461 -0.2449  0.2584  0.3494
    4CHL1   H4A  228   5.373   0.332  10.507  0.4093  1.3449 -1.1478
    4CHL1   H4B  229   5.522   0.246  10.486 -0.4486 -1.1117  1.7361
    4CHL1    C5  230   5.393   0.257  10.311  0.0692  0.6850 -0.3548
    4CHL1    C6  231   5.487   0.298  10.227  0.4400 -0.0034  0.1630
    4CHL1    H6  232   5.591   0.307  10.263  2.1384 -0.3727 -4.0512
    4CHL1    C7  233   5.467   0.309  10.078 -0.3463 -0.4273  0.0761
    4CHL1   H7A  234   5.496   0.410  10.041  1.7462 -0.0385  2.5486
    4CHL1   H7B  235   5.547   0.247  10.031  0.4024 -0.2567  1.1121
    4CHL1    C8  236   5.315   0.295  10.040  0.5903 -0.1013  0.4291
    4CHL1    H8  237   5.266   0.390  10.067  1.1651  1.1353 -2.4837
    4CHL1   C14  238   5.304   0.278   9.884 -0.0572 -0.7492  0.2952
    4CHL1   H14  239   5.373   0.193   9.870  1.3405  0.3907 -0.0156
    4CHL1   C15  240   5.362   0.390   9.794 -0.0213 -0.2791  0.6572
    4CHL1  H15A  241   5.332   0.493   9.825  0.2050 -0.0370  0.0755
    4CHL1  H15B  242   5.473   0.389   9.797  0.1135  1.5826 -1.5042
    4CHL1   C16  243   5.305   0.354   9.662 -0.3649 -0.6286  0.7548
    4CHL1  H16A  244   5.242   0.437   9.625 -0.3646 -0.1137  1.8640
    4CHL1  H16B  245   5.386   0.338   9.588 -1.4949 -1.4519 -0.3333
    4CHL1   C17  246   5.210   0.232   9.682  0.3459 -0.2711 -0.2796
    4CHL1   H17  247   5.267   0.139   9.664 -0.0381 -0.9489  1.7241
    4CHL1   C13  248   5.172   0.240   9.828 -0.0237  0.1303 -1.0831
    4CHL1   C18  249   5.077   0.359   9.848  0.2836  0.2334  0.6915
    4CHL1  H18A  250   5.077   0.393   9.954  0.5414  2.4148  0.0478
    4CHL1  H18B  251   5.105   0.444   9.783 -2.0242 -0.2055 -0.9977
    4CHL1  H18C  252   4.973   0.330   9.825 -0.2749  1.7990  1.1100
    4CHL1   C12  253   5.112   0.117   9.903 -0.2923  0.0233 -0.0229
    4CHL1  H12A  254   5.009   0.092   9.868 -0.5406  0.1475  0.6001
    4CHL1  H12B  255   5.177   0.028   9.893  0.1076  0.3196 -0.0695
    4CHL1   C11  256   5.105   0.142  10.059 -0.4107 -0.2130  0.4244
    4CHL1  H11A  257   5.028   0.218  10.083 -0.6662 -0.7238  1.2751
    4CHL1  H11B  258   5.068   0.045  10.100 -0.7427 -0.1624  0.2453
    4CHL1    C9  259   5.246   0.180  10.114  0.0858 -0.4586  0.9933
    4CHL1    H9  260   5.315   0.097  10.089  0.9838  0.4275  0.4745
    4CHL1   C10  261   5.257   0.199  10.268 -0.6574  0.7587  0.5122
    4CHL1   C19  262   5.154   0.298  10.311  0.1727  0.3392 -0.4648
    4CHL1  H19A  263   5.155   0.322  10.420 -1.0345  0.4197 -0.4597
    4CHL1  H19B  264   5.169   0.397  10.263  2.9053  0.2457  0.0309
    4CHL1  H19C  265   5.057   0.260  10.273 -0.0664 -0.2043  0.6447
    4CHL1    C1  266   5.238   0.056  10.335  0.2966  0.0593  0.2229
    4CHL1   H1A  267   5.144   0.004  10.307  0.5408 -1.4855  2.0339
    4CHL1   H1B  268   5.317  -0.013  10.297 -1.6423 -1.5507 -1.1029
    4CHL1    C2  269   5.233   0.060  10.489  0.3011 -0.1182  0.1641
    4CHL1   H2A  270   5.212  -0.032  10.546 -1.1356  0.9315  1.3977
    4CHL1   H2B  271   5.163   0.136  10.530 -0.9607 -0.6848 -0.8838
    4CHL1   C20  272   5.101   0.206   9.570  0.2957  0.5171  0.1307
    4CHL1   H20  273   5.003   0.249   9.601 -1.4858 -3.6316  0.8992
    4CHL1   C21  274   5.068   0.059   9.565  0.7880  0.0658  0.6897
    4CHL1  H21A  275   5.167   0.010   9.549  1.3290  0.4218  2.6775
    4CHL1  H21B  276   5.002   0.034   9.480  2.7440 -1.4651 -0.4764
    4CHL1  H21C  277   5.023   0.032   9.662  0.0477  0.4549  0.4657
    4CHL1   C22  278   5.139   0.260   9.431  0.0657 -0.3767 -0.7563
    4CHL1  H22A  279   5.200   0.350   9.412 -0.8310 -0.2361 -3.2064
    4CHL1  H22B  280   5.190   0.173   9.384  1.6771  0.2121 -0.1547
    4CHL1   C23  281   5.021   0.294   9.346 -0.1421  0.3132  0.0182
    4CHL1  H23A  282   4.943   0.215   9.348 -1.5874  1.4674 -3.6604
    4CHL1  H23B  283   4.965   0.379   9.391 -2.4726 -1.4101  0.5959
    4CHL1   C24  284   5.057   0.344   9.206 -0.3176  0.0875  0.0273
    4CHL1  H24A  285   5.108   0.441   9.225  0.3176 -0.2279 -0.0492
    4CHL1  H24B  286   5.126   0.274   9.154 -0.4695 -0.1259  0.1127
    4CHL1   C25  287   4.943   0.358   9.101  0.3804  0.6955  0.1898
    4CHL1   H25  288   4.856   0.398   9.157  1.0940  1.6598  0.6298
    4CHL1   C26  289   4.982   0.432   8.979 -0.1132  0.1280  0.5940
    4CHL1  H26A  290   5.015   0.536   8.998 -0.4233  0.3666 -0.1513
    4CHL1  H26B  291   5.060   0.367   8.934 -1.4170 -2.5053  1.8626
    4CHL1  H26C  292   4.898   0.441   8.907 -0.5030  1.0455  1.1414
    4CHL1   C27  293   4.897   0.219   9.048 -0.4351 -0.2671  0.0286
    4CHL1  H27A  294   4.799   0.220   8.995  0.3096 -0.0817 -1.3937
    4CHL1  H27B  295   4.977   0.175   8.985  0.5285  1.2640  0.1295
    4CHL1  H27C  296   4.892   0.149   9.134  2.2542 -0.7399 -0.1393
    5CHL1    C3  297   6.153   4.581  10.302  0.2869  0.1429  0.6636
    5CHL1    H3  298   6.173   4.474  10.278 -3.5693 -0.6059  0.1933
    5CHL1    O3  299   6.205   4.605  10.437  0.3154 -0.0752 -0.5812
    5CHL1   H3'  300   6.214   4.697  10.459 -0.6234  0.0071 -0.4982
    5CHL1    C4  301   6.221   4.665  10.196 -0.6817  0.0576  0.0887
    5CHL1   H4A  302   6.200   4.772  10.219  0.9133  0.5862 -0.7614
    5CHL1   H4B  303   6.331   4.659  10.205 -0.7707  0.0040  1.2087
    5CHL1    C5  304   6.168   4.637  10.058  0.1099 -0.5555 -0.2774
    5CHL1    C6  305   6.252   4.595   9.960 -0.2720 -0.3089  0.7494
    5CHL1    H6  306   6.358   4.577   9.986  0.2675 -0.4781 -1.3583
    5CHL1    C7  307   6.212   4.568   9.822  0.3144  0.8116  0.0186
    5CHL1   H7A  308   6.285   4.619   9.756 -1.3123  1.1979 -1.5293
    5CHL1   H7B  309   6.214   4.461   9.792  1.0991  0.9164 -0.3224
    5CHL1    C8  310   6.076   4.627   9.790  0.9916 -0.2805  0.3581
    5CHL1    H8  311   6.084   4.738   9.785  1.6663 -0.2860  1.1274
    5CHL1   C14  312   6.028   4.574   9.653  0.0427 -0.6492  0.6799
    5CHL1   H14  313   6.032   4.465   9.675  1.6111 -0.2357  2.7990
    5CHL1   C15  314   6.116   4.598   9.527 -0.5733  0.4759  0.3236
    5CHL1  H15A  315   6.170   4.693   9.545  1.2589 -0.1291 -1.6264
    5CHL1  H15B  316   6.181   4.510   9.507  0.0677  0.9693  0.2135
    5CHL1   C16  317   6.015   4.609   9.405  0.3109 -0.3308 -0.0980
    5CHL1  H16A  318   6.030   4.707   9.355  3.6332  0.2957  1.8387
    5CHL1  H16B  319   6.031   4.534   9.324 -1.4344 -0.4039 -0.4172
    5CHL1   C17  320   5.880   4.571   9.467 -0.5002  0.2710 -0.2927
    5CHL1   H17  321   5.878   4.460   9.473  0.9044  0.2754  0.7088
    5CHL1   C13  322   5.889   4.616   9.613 -0.3589 -0.1499  0.4710
    5CHL1   C18  323   5.886   4.770   9.624  0.0119 -0.2886  0.5635
    5CHL1  H18A  324   5.902   4.812   9.726 -1.8159 -1.2467  1.2744
    5CHL1  H18B  325   5.964   4.810   9.556 -0.5987 -0.2495 -0.1242
    5CHL1  H18C  326   5.788   4.814   9.598  0.4444  0.8629  0.8115
    5CHL1   C12  327   5.795   4.551   9.718 -0.5922 -0.2893 -0.0786
    5CHL1  H12A  328   5.695   4.587   9.688 -0.0226  0.2269 -1.4399
    5CHL1  H12B  329   5.805   4.441   9.708  1.4142 -0.0894 -0.8220
    5CHL1   C11  330   5.823   4.606   9.858 -0.7469 -0.1608 -0.8008
    5CHL1  H11A  331   5.785   4.710   9.848 -0.4735  0.0771  0.4481
    5CHL1  H11B  332   5.763   4.555   9.936 -0.8124 -0.7035 -1.2021
    5CHL1    C9  333   5.977   4.590   9.904  1.2978 -0.4431  0.4229
    5CHL1    H9  334   5.997   4.481   9.908  1.1038 -0.5411 -0.8573
    5CHL1   C10  335   6.015   4.657  10.040  0.1994  0.2247 -0.4922
    5CHL1   C19  336   5.984   4.806  10.034 -0.2996 -0.4046  0.1615
    5CHL1  H19A  337   6.044   4.862   9.959 -0.7416  1.0455  0.8560
    5CHL1  H19B  338   5.873   4.818  10.029 -0.4540 -0.2691  2.6813
    5CHL1  H19C  339   6.012   4.853  10.131 -1.8501 -1.6027  1.2475
    5CHL1    C1  340   5.945   4.588  10.161 -0.2899 -0.5004  0.4780
    5CHL1   H1A  341   5.837   4.611  10.167 -0.4169 -0.0853 -2.3584
    5CHL1   H1B  342   5.947   4.480  10.136 -0.7515  0.0034 -1.9386
    5CHL1    C2  343   6.002   4.607  10.304  0.0884  0.6648  0.2924
    5CHL1   H2A  344   5.955   4.541  10.379 -3.3432  1.5791 -0.8791
    5CHL1   H2B  345   5.983   4.711  10.339 -2.7047  0.1778  0.4355
    5CHL1   C20  346   5.759   4.604   9.382 -0.0090 -0.9112 -0.8956
    5CHL1   H20  347   5.672   4.607   9.450  0.0970  3.4707 -0.6982
    5CHL1   C21  348   5.736   4.503   9.269 -0.2296  0.0758 -0.6634
    5CHL1  H21A  349   5.835   4.502   9.218  0.2779  0.0024  0.2977
    5CHL1  H21B  350   5.659   4.539   9.198 -1.1730  2.3282  1.3788
    5CHL1  H21C  351   5.708   4.396   9.282 -1.6456  0.6620  1.5228
    5CHL1   C22  352   5.763   4.745   9.315 -0.5230 -0.4887  0.1157
    5CHL1  H22A  353   5.807   4.816   9.388 -3.1213  0.4553  0.8814
    5CHL1  H22B  354   5.830   4.746   9.226 -0.9992  1.0613 -0.2426
    5CHL1   C23  355   5.630   4.810   9.279  0.3702  0.7521 -0.3194
    5CHL1  H23A  356   5.589   4.747   9.197 -1.0194  0.7944  0.3093
    5CHL1  H23B  357   5.554   4.814   9.360 -3.4899 -1.2512 -3.4875
    5CHL1   C24  358   5.634   4.966   9.243 -0.0785 -0.1644  0.2757
    5CHL1  H24A  359   5.654   5.027   9.333  0.7207 -0.2312  0.1541
    5CHL1  H24B  360   5.720   4.978   9.173 -0.0961  0.4812  0.3630
    5CHL1   C25  361   5.518   5.025   9.173  0.1733  0.1431  0.4365
    5CHL1   H25  362   5.488   4.959   9.089 -1.5629  1.5438 -0.0909
    5CHL1   C26  363   5.401   5.045   9.270  0.4793 -0.3623  0.3047
    5CHL1  H26A  364   5.322   5.117   9.240  1.3475  0.9661  1.0772
    5CHL1  H26B  365   5.358   4.948   9.301 -1.4573  0.3038 -0.1487
    5CHL1  H26C  366   5.439   5.090   9.364  0.1240 -0.3422  0.4393
    5CHL1   C27  367   5.543   5.159   9.094  0.1155  0.1192 -0.3335
    5CHL1  H27A  368   5.577   5.237   9.165 -0.1195  1.2462 -1.4235
    5CHL1  H27B  369   5.622   5.139   9.017 -0.9772 -0.8174 -1.2526
    5CHL1  H27C  370   5.449   5.199   9.051  0.7987  0.2499 -1.7823
    6CHL1    C3  371   3.582   3.755  10.423  0.0515 -0.2874  0.3541
    6CHL1    H3  372   3.487   3.726  10.374  0.4536 -0.9700 -0.0245
    6CHL1    O3  373   3.567   3.729  10.563 -0.2139  0.6761  0.2885
    6CHL1   H3'  374   3.658   3.744  10.591 -0.2524 -1.0310  1.4404
    6CHL1    C4  375   3.702   3.683  10.364 -0.6632 -0.2595 -0.4644
    6CHL1   H4A  376   3.786   3.713  10.429 -2.0236 -0.3507  1.4339
    6CHL1   H4B  377   3.676   3.576  10.382 -1.5403  0.0640  0.3300
    6CHL1    C5  378   3.721   3.710  10.216  0.7369  0.3352 -0.8593
    6CHL1    C6  379   3.713   3.608  10.127  0.2003  0.4258 -0.2919
    6CHL1    H6  380   3.709   3.502  10.156  1.1098  0.3496 -0.4153
    6CHL1    C7  381   3.731   3.632   9.980  0.4088  0.4904 -0.1734
    6CHL1   H7A  382   3.797   3.548   9.950 -1.6184 -2.0298  1.8996
    6CHL1   H7B  383   3.634   3.612   9.930  0.7694  2.0253 -1.6250
    6CHL1    C8  384   3.776   3.775   9.946 -0.3521  0.3385  0.2530
    6CHL1    H8  385   3.886   3.769   9.958 -0.4735  0.4522  1.5876
    6CHL1   C14  386   3.744   3.808   9.798 -0.7590  0.2709  0.2401
    6CHL1   H14  387   3.633   3.817   9.793 -0.7099  1.4092  0.9708
    6CHL1   C15  388   3.776   3.703   9.693 -0.1870  0.2552  0.0505
    6CHL1  H15A  389   3.868   3.648   9.721  0.0421  0.6549  0.0927
    6CHL1  H15B  390   3.688   3.636   9.699 -0.2759  0.4542  1.3199
    6CHL1   C16  391   3.784   3.782   9.560  0.2036  0.3096 -0.2205
    6CHL1  H16A  392   3.889   3.755   9.537  0.6907  0.4685  1.6652
    6CHL1  H16B  393   3.701   3.751   9.492 -0.8001  1.5387  0.3866
    6CHL1   C17  394   3.771   3.935   9.588 -0.3990 -0.3322 -0.0642
    6CHL1   H17  395   3.665   3.963   9.571 -0.6364 -0.5949  0.9144
    6CHL1   C13  396   3.798   3.940   9.745 -0.2021  0.2097  0.4461
    6CHL1   C18  397   3.949   3.948   9.760 -0.1446 -0.5152  0.1260
    6CHL1  H18A  398   3.995   3.873   9.692 -1.7916 -0.8733 -0.6183
    6CHL1  H18B  399   4.000   4.039   9.721 -0.9703  0.2514  0.7874
    6CHL1  H18C  400   3.973   3.935   9.868 -2.7318  1.1489  0.9941
    6CHL1   C12  401   3.716   4.041   9.826 -1.3211  1.0972  0.5118
    6CHL1  H12A  402   3.761   4.137   9.793 -0.3522  0.4464 -0.1084
    6CHL1  H12B  403   3.610   4.043   9.793 -1.3715  3.4022  0.5988
    6CHL1   C11  404   3.743   4.025   9.977 -0.6264  0.3987 -0.9138
    6CHL1  H11A  405   3.853   4.040   9.991 -0.8718  1.9763 -0.4550
    6CHL1  H11B  406   3.685   4.104  10.030 -0.0825 -1.1133  2.1514
    6CHL1    C9  407   3.711   3.880  10.031 -0.0482  0.4004 -1.1069
    6CHL1    H9  408   3.605   3.856  10.013 -0.2428 -0.4812  0.9215
    6CHL1   C10  409   3.735   3.860  10.180 -0.2739  0.9682 -0.0079
    6CHL1   C19  410   3.874   3.914  10.223 -0.7289  0.1571  0.0117
    6CHL1  H19A  411   3.873   3.897  10.333  0.6003  1.8963  0.3322
    6CHL1  H19B  412   3.954   3.858  10.169 -0.3138  0.9561 -0.2193
    6CHL1  H19C  413   3.883   4.023  10.206 -2.4751  0.4238  0.5857
    6CHL1    C1  414   3.629   3.948  10.251  0.1745 -0.0855 -0.8771
    6CHL1   H1A  415   3.649   4.057  10.238  0.4384 -0.1238 -0.8050
    6CHL1   H1B  416   3.531   3.928  10.203 -2.1454  1.7842  2.6784
    6CHL1    C2  417   3.605   3.907  10.398  0.2879 -0.1573 -0.1008
    6CHL1   H2A  418   3.526   3.969  10.447  1.1915  1.3801 -0.5144
    6CHL1   H2B  419   3.700   3.936  10.448  0.5992  1.3270 -1.4766
    6CHL1   C20  420   3.855   4.025   9.500  0.2949 -0.5119  0.3165
    6CHL1   H20  421   3.964   4.024   9.521  0.2962  1.3828  0.5958
    6CHL1   C21  422   3.805   4.169   9.522  0.0937  0.4190 -0.4045
    6CHL1  H21A  423   3.866   4.206   9.608  0.7342 -3.1461  0.8249
    6CHL1  H21B  424   3.697   4.185   9.540  0.4852  0.0436  2.9295
    6CHL1  H21C  425   3.834   4.238   9.439 -0.4939  2.0847  0.7134
    6CHL1   C22  426   3.846   3.992   9.349 -0.5907 -0.0385 -0.2074
    6CHL1  H22A  427   3.914   4.060   9.292  0.4426 -1.6151 -0.9293
    6CHL1  H22B  428   3.882   3.888   9.335 -0.4393 -0.2514  1.6113
    6CHL1   C23  429   3.698   4.007   9.297 -0.5183 -0.0370  0.6890
    6CHL1  H23A  430   3.626   3.958   9.365  0.1410 -0.8684  0.7993
    6CHL1  H23B  431   3.679   4.117   9.294 -1.7393 -0.0107  4.5653
    6CHL1   C24  432   3.692   3.948   9.155 -0.3389  0.6496 -0.2642
    6CHL1  H24A  433   3.753   4.017   9.093  0.2966  0.5093  0.1991
    6CHL1  H24B  434   3.736   3.846   9.158  0.7597  1.1325  2.1342
    6CHL1   C25  435   3.556   3.940   9.081  0.4945 -0.1313 -0.8254
    6CHL1   H25  436   3.477   3.896   9.145  0.6006  0.6842 -0.1070
    6CHL1   C26  437   3.495   4.079   9.060  0.0860 -0.2343 -0.1939
    6CHL1  H26A  438   3.417   4.086   8.981 -1.0855  1.2909  1.0332
    6CHL1  H26B  439   3.470   4.138   9.151 -1.7316 -0.4472 -0.5112
    6CHL1  H26C  440   3.576   4.140   9.015 -1.1274  1.0032 -0.7876
    6CHL1   C27  441   3.573   3.852   8.952 -0.5612  0.2744 -0.6108
    6CHL1  H27A  442   3.644   3.903   8.884 -0.1718  0.8336  0.2055
    6CHL1  H27B  443   3.620   3.753   8.971  1.6860  1.6494  1.5622
    6CHL1  H27C  444   3.483   3.849   8.887 -1.5987  2.9036  0.5578
    7CHL1    C3  445   0.884   5.508  10.423 -0.1321 -0.0926  0.1676
    7CHL1    H3  446   0.875   5.617  10.407 -2.4673 -0.4854 -1.7668
    7CHL1    O3  447   0.846   5.472  10.552 -0.3066 -0.4430 -0.2385
    7CHL1   H3'  448   0.755   5.502  10.563  0.2873  0.4995  3.1109
    7CHL1    C4  449   0.793   5.439  10.322 -0.3701 -0.6463 -0.1469
    7CHL1   H4A  450   0.792   5.330  10.342  0.5808 -0.5939  0.1923
    7CHL1   H4B  451   0.690   5.474  10.348 -0.2361  1.4706 -2.1035
    7CHL1    C5  452   0.833   5.464  10.174 -0.2973  0.5183  0.3712
    7CHL1    C6  453   0.742   5.521  10.084  0.6393  0.3149  0.2512
    7CHL1    H6  454   0.643   5.561  10.110  0.5419  0.6071 -0.5542
    7CHL1    C7  455   0.782   5.537   9.945  0.1634 -0.3948 -0.3006
    7CHL1   H7A  456   0.698   5.522   9.874  0.8502 -0.6827 -1.0775
    7CHL1   H7B  457   0.805   5.644   9.924 -1.5630  0.2083  0.6954
    7CHL1    C8  458   0.899   5.456   9.893 -0.4537  0.2167 -0.3676
    7CHL1    H8  459   0.868   5.350   9.897 -0.4043  0.2370  0.9970
    7CHL1   C14  460   0.950   5.512   9.764 -0.1004 -0.0738  0.4147
    7CHL1   H14  461   0.983   5.617   9.780 -0.5377  0.1706 -0.2632
    7CHL1   C15  462   0.845   5.519   9.651 -0.2471 -0.9456  0.4457
    7CHL1  H15A  463   0.786   5.425   9.648 -2.1323  0.1786 -0.2708
    7CHL1  H15B  464   0.774   5.605   9.655  1.4629  0.7854 -2.6793
    7CHL1   C16  465   0.927   5.533   9.519  1.3970  0.3486  0.1113
    7CHL1  H16A  466   0.904   5.445   9.455  1.8526 -0.0304  0.4643
    7CHL1  H16B  467   0.895   5.621   9.460 -0.1794 -1.3095 -1.6269
    7CHL1   C17  468   1.073   5.510   9.564 -1.0812  0.1068  0.4524
    7CHL1   H17  469   1.111   5.612   9.583 -0.7389 -0.0418  0.5762
    7CHL1   C13  470   1.065   5.433   9.698 -0.2433  1.1331 -0.4399
    7CHL1   C18  471   1.035   5.278   9.674 -0.6396 -0.0236  0.7276
    7CHL1  H18A  472   1.127   5.238   9.626 -1.8850 -1.4419 -0.6217
    7CHL1  H18B  473   1.012   5.219   9.765 -0.2791  0.3306  1.0480
    7CHL1  H18C  474   0.951   5.257   9.604  0.0871 -2.4123  0.4871
    7CHL1   C12  475   1.178   5.462   9.798 -0.3238  0.2754 -0.5096
    7CHL1  H12A  476   1.272   5.410   9.770  0.5667  0.3715  2.0177
    7CHL1  H12B  477   1.192   5.572   9.811 -1.0536  0.3654 -0.4405
    7CHL1   C11  478   1.151   5.409   9.943 -0.6987  0.0709  0.4024
    7CHL1  H11A  479   1.138   5.299   9.934 -1.1341  0.2704 -2.9054
    7CHL1  H11B  480   1.218   5.426  10.029 -1.2479  0.6072  0.7349
    7CHL1    C9  481   1.015   5.467   9.993  0.0032  0.0893  0.5570
    7CHL1    H9  482   1.034   5.576   9.998  1.6185 -0.0846 -0.8476
    7CHL1   C10  483   0.974   5.416  10.135 -0.3558 -0.6991  0.1441
    7CHL1   C19  484   0.977   5.266  10.144 -0.2026  0.1877  0.1915
    7CHL1  H19A  485   0.948   5.225  10.244 -0.2543  1.3937  0.6897
    7CHL1  H19B  486   0.906   5.218  10.073  1.3711 -0.7757 -0.7873
    7CHL1  H19C  487   1.075   5.217  10.127 -0.0660  0.9056 -1.1395
    7CHL1    C1  488   1.065   5.479  10.250 -0.6741  0.0784 -0.1105
    7CHL1   H1A  489   1.165   5.434  10.232 -1.0749 -0.6145 -0.6732
    7CHL1   H1B  490   1.086   5.588  10.237  0.0324 -0.0397 -0.0131
    7CHL1    C2  491   1.029   5.454  10.399  0.1159 -0.2893  0.2770
    7CHL1   H2A  492   1.108   5.504  10.458  0.6636  3.5791 -3.2548
    7CHL1   H2B  493   1.018   5.345  10.418  0.6517 -0.3686  0.1285
    7CHL1   C20  494   1.168   5.448   9.459  0.7130  0.4529  0.5201
    7CHL1   H20  495   1.151   5.339   9.445  0.4317  0.7009 -1.3133
    7CHL1   C21  496   1.311   5.448   9.511  0.0813  0.0588 -0.3662
    7CHL1  H21A  497   1.325   5.528   9.586 -1.4351  0.6590 -0.6859
    7CHL1  H21B  498   1.394   5.451   9.437  1.4118 -0.1822  1.0680
    7CHL1  H21C  499   1.334   5.351   9.561  2.1482  0.6644 -0.0678
    7CHL1   C22  500   1.162   5.515   9.319  0.3289 -0.3973 -0.0628
    7CHL1  H22A  501   1.054   5.515   9.291  0.5593 -1.1932 -1.0299
    7CHL1  H22B  502   1.186   5.622   9.332  0.1293 -0.3187 -0.3200
    7CHL1   C23  503   1.242   5.438   9.216 -0.7420 -0.6304  0.1695
    7CHL1  H23A  504   1.351   5.458   9.226 -0.6666 -0.5968 -0.6952
    7CHL1  H23B  505   1.218   5.331   9.237 -1.6478 -0.1324  1.9252
    7CHL1   C24  506   1.207   5.494   9.076 -0.0709  0.2797 -0.2097
    7CHL1  H24A  507   1.097   5.489   9.060  0.0575  1.0363 -1.4284
    7CHL1  H24B  508   1.245   5.597   9.090  1.1058 -0.4281  2.5816
    7CHL1   C25  509   1.279   5.425   8.963 -0.3644 -0.3623 -0.4328
    7CHL1   H25  510   1.385   5.453   8.980 -0.4291  0.9934 -1.9837
    7CHL1   C26  511   1.260   5.271   8.964 -0.1449 -0.1905  0.2724
    7CHL1  H26A  512   1.321   5.224   8.884  2.9468  4.4421 -0.4908
    7CHL1  H26B  513   1.296   5.225   9.059  1.1590  0.3441  0.0563
    7CHL1  H26C  514   1.152   5.251   8.947  0.3755 -1.4763 -1.7663
    7CHL1   C27  515   1.257   5.488   8.830  0.2101  0.8579  0.1745
    7CHL1  H27A  516   1.239   5.598   8.839  1.5227  1.1845 -0.8692
    7CHL1  H27B  517   1.351   5.468   8.774  1.2964  1.0432  1.8772
    7CHL1  H27C  518   1.165   5.459   8.774 -0.1337  2.1684  0.0195
    8CHL1    C3  519   1.718   0.384  10.252  0.3990 -0.2297  0.8270
    8CHL1    H3  520   1.608   0.388  10.236  0.5528 -0.6568 -0.3908
    8CHL1    O3  521   1.763   0.388  10.386 -0.0670 -0.1552 -0.3512
    8CHL1   H3'  522   1.852   0.422  10.392  0.3384 -1.3436  3.4117
    8CHL1    C4  523   1.762   0.254  10.182  0.1357  0.1338  0.2337
    8CHL1   H4A  524   1.872   0.252  10.170  0.0056 -1.2647 -0.9845
    8CHL1   H4B  525   1.735   0.165  10.242  0.2554  0.6133  1.0097
    8CHL1    C5  526   1.706   0.246  10.042  0.2788 -0.3040 -0.4232
    8CHL1    C6  527   1.621   0.153  10.003 -0.3439 -0.3913 -0.8477
    8CHL1    H6  528   1.600   0.092  10.092  0.7044  0.4266 -0.0077
    8CHL1    C7  529   1.564   0.132   9.864  0.7374 -0.0422  0.1020
    8CHL1   H7A  530   1.585   0.026   9.839 -1.5927 -0.3838 -0.6670
    8CHL1   H7B  531   1.453   0.143   9.873  0.8386  0.8118  0.4254
    8CHL1    C8  532   1.628   0.231   9.766 -0.1013 -0.6663 -0.3985
    8CHL1    H8  533   1.722   0.176   9.747 -0.8116 -1.8290 -0.6259
    8CHL1   C14  534   1.547   0.257   9.640  0.2494  0.6897 -0.1088
    8CHL1   H14  535   1.458   0.320   9.662 -1.4038 -1.1947 -1.1453
    8CHL1   C15  536   1.498   0.131   9.563 -0.2067 -0.8152  0.3126
    8CHL1  H15A  537   1.580   0.056   9.558  2.0311  1.5890 -1.7746
    8CHL1  H15B  538   1.409   0.088   9.614 -1.2437  0.3214 -0.4585
    8CHL1   C16  539   1.463   0.190   9.427  0.2598 -0.1339  0.1979
    8CHL1  H16A  540   1.504   0.138   9.337 -1.7288 -0.4537 -0.5640
    8CHL1  H16B  541   1.355   0.175   9.405  0.9082 -1.9560 -2.2684
    8CHL1   C17  542   1.516   0.331   9.415 -0.2210 -0.1599 -0.4880
    8CHL1   H17  543   1.437   0.408   9.430 -0.4763 -0.8907  2.5001
    8CHL1   C13  544   1.614   0.339   9.528 -0.3601 -0.0816  0.2835
    8CHL1   C18  545   1.744   0.274   9.469  0.1804  0.1046  0.2483
    8CHL1  H18A  546   1.796   0.347   9.404 -0.1627  2.5246  2.5264
    8CHL1  H18B  547   1.815   0.244   9.550 -0.7681  3.0445  2.3617
    8CHL1  H18C  548   1.723   0.179   9.416  1.4342  0.1658 -0.3982
    8CHL1   C12  549   1.635   0.475   9.591 -0.2008  0.2954  0.3136
    8CHL1  H12A  550   1.679   0.541   9.513  0.5357  1.3388  1.5829
    8CHL1  H12B  551   1.539   0.524   9.613 -1.2496 -0.8735 -1.3466
    8CHL1   C11  552   1.717   0.465   9.715  0.3579 -0.6797  0.3133
    8CHL1  H11A  553   1.810   0.416   9.681 -0.2680 -2.4075  0.9404
    8CHL1  H11B  554   1.740   0.569   9.748 -0.7466  0.3401 -1.9352
    8CHL1    C9  555   1.663   0.371   9.824 -0.3138  0.2342 -0.7848
    8CHL1    H9  556   1.561   0.410   9.845 -0.7237  0.1966 -2.5978
    8CHL1   C10  557   1.750   0.364   9.954  0.1950  0.7054  0.0308
    8CHL1   C19  558   1.903   0.345   9.918 -0.9013 -0.3516 -0.2164
    8CHL1  H19A  559   1.930   0.249   9.868  2.9150 -0.0521  1.0312
    8CHL1  H19B  560   1.932   0.428   9.850  3.5337  1.3304  3.2718
    8CHL1  H19C  561   1.971   0.365  10.003 -1.2276  1.7897 -0.4084
    8CHL1    C1  562   1.731   0.498  10.035  0.0201 -0.1974  0.0285
    8CHL1   H1A  563   1.776   0.588   9.987  1.7411 -1.7946 -1.5549
    8CHL1   H1B  564   1.623   0.518  10.050 -0.2876 -0.0914 -2.0430
    8CHL1    C2  565   1.786   0.498  10.175  0.1704 -0.3404 -0.5159
    8CHL1   H2A  566   1.770   0.597  10.223 -1.6696 -0.9063  0.1236
    8CHL1   H2B  567   1.896   0.483  10.170  0.6517  2.1703  0.6537
    8CHL1   C20  568   1.556   0.362   9.265  0.3247 -0.1692 -0.0423
    8CHL1   H20  569   1.641   0.297   9.235  0.6344 -0.0387  0.5414
    8CHL1   C21  570   1.602   0.504   9.257  0.3920  1.0052  0.3098
    8CHL1  H21A  571   1.704   0.511   9.300  0.0580  1.5019  1.0369
    8CHL1  H21B  572   1.540   0.570   9.322 -0.2579  0.6173  0.0932
    8CHL1  H21C  573   1.601   0.552   9.156  0.4966 -0.0456 -0.2062
    8CHL1   C22  574   1.434   0.348   9.170  0.1078  0.9282  0.9125
    8CHL1  H22A  575   1.393   0.245   9.174  3.3266 -0.4328  1.1659
    8CHL1  H22B  576   1.356   0.411   9.218  1.2744  0.2830  3.8915
    8CHL1   C23  577   1.442   0.380   9.018 -0.0547  0.1455 -0.2261
    8CHL1  H23A  578   1.345   0.353   8.971  0.8327 -0.8873 -1.5342
    8CHL1  H23B  579   1.465   0.485   8.991 -0.8891  0.0893 -1.1878
    8CHL1   C24  580   1.548   0.285   8.946  0.4904 -0.3204  0.7518
    8CHL1  H24A  581   1.653   0.288   8.982  0.3277 -1.1000  1.3074
    8CHL1  H24B  582   1.509   0.181   8.946  0.9223 -0.6075 -2.6762
    8CHL1   C25  583   1.559   0.323   8.795 -0.0092 -0.1856  0.6653
    8CHL1   H25  584   1.472   0.269   8.751  1.2995 -1.6751 -0.1925
    8CHL1   C26  585   1.550   0.474   8.751 -0.4060  1.1929  0.0564
    8CHL1  H26A  586   1.452   0.517   8.781 -0.9834 -1.3842  2.3275
    8CHL1  H26B  587   1.621   0.534   8.810 -2.0779  1.3955  1.9809
    8CHL1  H26C  588   1.559   0.494   8.642 -2.3801  1.8654 -0.0277
    8CHL1   C27  589   1.687   0.269   8.742 -0.2370 -0.1243 -0.3178
    8CHL1  H27A  590   1.712   0.173   8.790  3.0662  0.5660 -0.4196
    8CHL1  H27B  591   1.683   0.260   8.631 -0.7687 -0.0920 -0.3006
    8CHL1  H27C  592   1.773   0.335   8.768 -1.7262  1.7817 -0.0095
    9CHL1    C3  593   3.809   3.040  10.051  0.2817  0.0859  0.0353
    9CHL1    H3  594   3.896   3.108  10.056  0.7263 -0.5494  3.6602
    9CHL1    O3  595   3.777   2.993  10.183 -0.5409 -0.4352  0.3566
    9CHL1   H3'  596   3.821   3.058  10.239  0.2057 -0.6606  0.0379
    9CHL1    C4  597   3.684   3.095   9.980  0.0039  0.1584  0.4736
    9CHL1   H4A  598   3.613   3.009   9.982  1.9115 -1.4998  0.1147
    9CHL1   H4B  599   3.649   3.186  10.034  2.2987  0.7981  0.9870
    9CHL1    C5  600   3.711   3.132   9.840 -0.6349 -0.8162  0.8895
    9CHL1    C6  601   3.690   3.260   9.793 -0.8736  0.0286 -0.1471
    9CHL1    H6  602   3.640   3.340   9.850  0.3170  2.4452 -2.3176
    9CHL1    C7  603   3.718   3.305   9.648 -0.1785 -0.2798 -0.3289
    9CHL1   H7A  604   3.628   3.353   9.604  0.1033  2.9021  2.2062
    9CHL1   H7B  605   3.805   3.374   9.648  1.5168 -2.2872 -0.2908
    9CHL1    C8  606   3.744   3.183   9.557  0.1100 -0.3225  0.2542
    9CHL1    H8  607   3.648   3.146   9.516  1.5270 -0.0839 -3.7099
    9CHL1   C14  608   3.816   3.234   9.428 -0.6186 -0.0888 -0.5381
    9CHL1   H14  609   3.910   3.276   9.471  0.0570 -2.6057  0.6244
    9CHL1   C15  610   3.753   3.359   9.348  0.2463  0.1876  0.6878
    9CHL1  H15A  611   3.645   3.337   9.341 -0.1649  2.4515 -2.2374
    9CHL1  H15B  612   3.775   3.455   9.399  0.0868  0.5909  0.0081
    9CHL1   C16  613   3.817   3.344   9.209 -0.4677 -0.3702  0.0379
    9CHL1  H16A  614   3.735   3.327   9.135  0.2032 -0.2293 -0.7610
    9CHL1  H16B  615   3.868   3.430   9.161  0.7959 -1.8401 -1.3851
    9CHL1   C17  616   3.918   3.218   9.206  0.4616 -0.3274  0.0409
    9CHL1   H17  617   4.019   3.260   9.224 -0.8100  1.8363  2.7455
    9CHL1   C13  618   3.862   3.132   9.324  0.7010  0.2524  0.8014
    9CHL1   C18  619   3.745   3.055   9.261  0.2760 -0.4630 -0.7808
    9CHL1  H18A  620   3.794   2.968   9.211  1.8343 -0.1028  0.0383
    9CHL1  H18B  621   3.673   3.025   9.340 -1.6207 -1.0010 -2.6400
    9CHL1  H18C  622   3.688   3.121   9.193 -1.2483 -2.0585 -1.1421
    9CHL1   C12  623   3.955   3.040   9.404 -0.0079  0.1990  0.6310
    9CHL1  H12A  624   4.000   2.964   9.337  0.7745  0.9159  0.3255
    9CHL1  H12B  625   4.043   3.099   9.437  0.7568  0.7036 -2.0426
    9CHL1   C11  626   3.888   2.973   9.519  0.1537 -0.5081 -0.2908
    9CHL1  H11A  627   3.805   2.908   9.486 -0.6328  1.0586 -1.5760
    9CHL1  H11B  628   3.965   2.915   9.574  1.6890  1.8776  0.2271
    9CHL1    C9  629   3.834   3.081   9.623 -0.6457 -0.4713  0.1857
    9CHL1    H9  630   3.920   3.142   9.659  0.3654 -1.8993  0.2694
    9CHL1   C10  631   3.774   3.021   9.756 -0.0472  0.0466  0.4210
    9CHL1   C19  632   3.665   2.911   9.718  0.3371  0.1932 -0.0023
    9CHL1  H19A  633   3.709   2.832   9.653  1.9270  1.6753 -0.8180
    9CHL1  H19B  634   3.615   2.879   9.812 -0.3822  1.7742  0.1892
    9CHL1  H19C  635   3.579   2.951   9.660 -1.0551  0.1041  1.9082
    9CHL1    C1  636   3.894   2.962   9.829 -0.3893 -0.5129 -0.0501
    9CHL1   H1A  637   3.935   2.872   9.780 -1.4492  0.3906 -2.7805
    9CHL1   H1B  638   3.973   3.039   9.843 -0.9122  0.2563 -1.1778
    9CHL1    C2  639   3.859   2.920   9.974  0.3524  0.0761  0.3928
    9CHL1   H2A  640   3.953   2.886  10.024  0.9259  0.7466 -0.2153
    9CHL1   H2B  641   3.790   2.833   9.979  2.6293 -1.8357  0.6660
    9CHL1   C20  642   3.919   3.148   9.063  0.4302  0.0250  0.2294
    9CHL1   H20  643   3.821   3.113   9.025  0.5440  0.1208 -0.1643
    9CHL1   C21  644   4.019   3.032   9.069  0.2117 -0.7319  0.5572
    9CHL1  H21A  645   3.976   2.956   9.138 -0.6827 -0.3845  0.3874
    9CHL1  H21B  646   4.113   3.069   9.116 -0.0575 -0.1421  0.6394
    9CHL1  H21C  647   4.035   2.978   8.973 -0.1877 -1.8175  1.0831
    9CHL1   C22  648   3.963   3.249   8.953  0.6792  0.4378 -0.0748
    9CHL1  H22A  649   3.883   3.326   8.948  2.0158  1.8256 -1.4166
    9CHL1  H22B  650   4.051   3.311   8.982  0.4573  1.1971 -0.9657
    9CHL1   C23  651   3.989   3.189   8.813 -0.7120 -0.2435 -0.6295
    9CHL1  H23A  652   4.073   3.119   8.831 -1.3690 -0.4651  2.0944
    9CHL1  H23B  653   3.895   3.133   8.791 -1.9159  0.2222  2.6555
    9CHL1   C24  654   4.041   3.297   8.724 -0.9282  0.4113  0.5190
    9CHL1  H24A  655   3.962   3.373   8.709 -0.5362  0.9093  0.9358
    9CHL1  H24B  656   4.120   3.351   8.781 -0.8355  0.8777 -0.0406
    9CHL1   C25  657   4.116   3.240   8.604 -0.1864  0.1139  1.2998
    9CHL1   H25  658   4.187   3.171   8.654 -0.0468 -0.5545  0.2061
    9CHL1   C26  659   4.024   3.163   8.510  0.6518 -0.2748 -0.4806
    9CHL1  H26A  660   3.954   3.245   8.483 -0.3689 -0.4635  1.4599
    9CHL1  H26B  661   4.077   3.117   8.424  0.1561 -1.2770 -0.2647
    9CHL1  H26C  662   3.968   3.084   8.564 -0.4144  0.9437  0.2469
    9CHL1   C27  663   4.198   3.342   8.528  0.1586 -0.2789  0.5536
    9CHL1  H27A  664   4.255   3.297   8.444 -2.2725  0.0046 -1.3931
    9CHL1  H27B  665   4.122   3.405   8.477  0.6851  0.7369  1.0138
    9CHL1  H27C  666   4.272   3.408   8.576  2.0715 -1.3828 -0.7321
   10CHL1    C3  667   2.650   0.595  10.064 -0.0233 -0.5319 -0.5993
   10CHL1    H3  668   2.719   0.680  10.044 -1.4837  0.5817 -1.0326
   10CHL1    O3  669   2.643   0.578  10.202  1.1317  0.1773  0.7847
   10CHL1   H3'  670   2.630   0.664  10.242  2.7013  0.8118  0.0218
   10CHL1    C4  671   2.517   0.619  10.002 -0.2886 -0.2527  0.6089
   10CHL1   H4A  672   2.436   0.545  10.017 -1.5406  0.6948 -1.2101
   10CHL1   H4B  673   2.482   0.714  10.047  0.8240  0.4804 -0.0197
   10CHL1    C5  674   2.546   0.646   9.854  0.3576 -0.1736  0.0195
   10CHL1    C6  675   2.524   0.765   9.796 -0.1272 -0.3801  0.0783
   10CHL1    H6  676   2.475   0.841   9.859 -0.6957 -0.9411  0.3235
   10CHL1    C7  677   2.535   0.790   9.652  0.1092  0.2718  0.6208
   10CHL1   H7A  678   2.446   0.845   9.616  1.0628  1.1898 -0.4269
   10CHL1   H7B  679   2.628   0.849   9.637  0.7903 -0.8461  0.3052
   10CHL1    C8  680   2.535   0.659   9.567  0.0321  0.1308  0.4081
   10CHL1    H8  681   2.436   0.609   9.563  0.5652 -1.1280  1.9677
   10CHL1   C14  682   2.590   0.686   9.423 -0.2336 -0.0109 -0.2644
   10CHL1   H14  683   2.697   0.710   9.440 -0.2692 -0.8689  1.3780
   10CHL1   C15  684   2.537   0.815   9.346  0.8830  0.6492  0.0477
   10CHL1  H15A  685   2.429   0.832   9.364 -0.1117 -0.7850 -3.6354
   10CHL1  H15B  686   2.581   0.914   9.370  0.5831  0.8579 -0.2533
   10CHL1   C16  687   2.558   0.781   9.200 -0.1939  0.6306  0.0334
   10CHL1  H16A  688   2.460   0.783   9.147 -0.4014  2.4632  0.4197
   10CHL1  H16B  689   2.614   0.858   9.143 -0.9922  0.3683 -1.1535
   10CHL1   C17  690   2.627   0.646   9.192 -0.4279  0.0334  0.0416
   10CHL1   H17  691   2.736   0.663   9.204 -0.2095 -1.6891  0.8455
   10CHL1   C13  692   2.593   0.570   9.322 -0.6709 -0.0062 -0.0474
   10CHL1   C18  693   2.454   0.499   9.309  0.3299  0.1351  0.3920
   10CHL1  H18A  694   2.380   0.571   9.269 -0.6106 -1.1069 -0.1803
   10CHL1  H18B  695   2.459   0.420   9.231 -2.3778 -1.2397  1.4692
   10CHL1  H18C  696   2.419   0.460   9.407 -0.8383 -0.1013 -0.1038
   10CHL1   C12  697   2.693   0.466   9.387 -0.2995 -0.0294  0.7052
   10CHL1  H12A  698   2.702   0.378   9.321  3.3505  0.4337  0.3920
   10CHL1  H12B  699   2.796   0.509   9.392 -0.5307  0.6292 -0.0977
   10CHL1   C11  700   2.656   0.432   9.535  0.3323 -0.9750  0.1255
   10CHL1  H11A  701   2.568   0.367   9.518  0.5056 -1.8390  2.3094
   10CHL1  H11B  702   2.733   0.364   9.576  0.2557 -1.4145 -0.4479
   10CHL1    C9  703   2.631   0.559   9.625 -0.5627  0.6667 -0.3543
   10CHL1    H9  704   2.733   0.604   9.625 -0.5957  0.7397 -1.0486
   10CHL1   C10  705   2.596   0.526   9.777  0.7591  0.1148 -0.2632
   10CHL1   C19  706   2.484   0.421   9.776  0.4078 -0.1181 -0.4738
   10CHL1  H19A  707   2.506   0.330   9.717  2.2604  0.1492 -0.2619
   10CHL1  H19B  708   2.447   0.393   9.877  1.5872  0.9421  0.2984
   10CHL1  H19C  709   2.397   0.468   9.727  2.0696  1.8580 -1.7314
   10CHL1    C1  710   2.727   0.475   9.849  0.1722  1.0272  0.3373
   10CHL1   H1A  711   2.758   0.383   9.794  2.5880  0.3574  2.6133
   10CHL1   H1B  712   2.798   0.560   9.840  0.5899  0.6876  0.3792
   10CHL1    C2  713   2.715   0.466  10.002 -0.8570 -0.5422 -0.1939
   10CHL1   H2A  714   2.816   0.442  10.042 -0.0850 -0.8935 -2.2113
   10CHL1   H2B  715   2.650   0.378  10.020 -0.3335 -0.6132  1.5030
   10CHL1   C20  716   2.600   0.583   9.052 -0.1169  0.6365 -0.2419
   10CHL1   H20  717   2.492   0.559   9.040  0.2002 -0.7627 -0.4920
   10CHL1   C21  718   2.678   0.446   9.048 -0.4513  0.2245  0.7262
   10CHL1  H21A  719   2.783   0.460   9.079  0.4892 -4.4205  0.4225
   10CHL1  H21B  720   2.690   0.398   8.949  0.7597 -0.7120  1.2901
   10CHL1  H21C  721   2.629   0.375   9.119 -0.9031 -0.5837 -0.3637
   10CHL1   C22  722   2.642   0.673   8.930  0.7037  0.9207 -0.1776
   10CHL1  H22A  723   2.619   0.616   8.837  2.2178  0.7665 -0.4882
   10CHL1  H22B  724   2.594   0.772   8.942 -0.0026  0.4881  0.5972
   10CHL1   C23  725   2.793   0.703   8.923 -0.3732 -0.2865  0.2952
   10CHL1  H23A  726   2.822   0.746   9.021 -0.4605  0.0777  0.1613
   10CHL1  H23B  727   2.849   0.607   8.914  0.6463  0.3517 -0.4309
   10CHL1   C24  728   2.830   0.790   8.808 -0.1784 -0.4390  0.3613
   10CHL1  H24A  729   2.783   0.761   8.712  1.8972  0.7955 -1.1139
   10CHL1  H24B  730   2.793   0.892   8.832  2.1966  1.1062 -1.9403
   10CHL1   C25  731   2.981   0.800   8.767 -0.3003  0.6425  0.4485
   10CHL1   H25  732   3.044   0.822   8.856 -0.0332  1.1000  0.1554
   10CHL1   C26  733   3.035   0.664   8.703  0.3028  0.4569 -0.7357
   10CHL1  H26A  734   2.950   0.614   8.652 -0.7437 -0.2831  1.5930
   10CHL1  H26B  735   3.124   0.680   8.639  1.3977  2.5316  1.1444
   10CHL1  H26C  736   3.053   0.591   8.786 -0.3108  1.7536  0.5848
   10CHL1   C27  737   2.978   0.923   8.673  0.2394 -1.1097  0.3253
   10CHL1  H27A  738   2.913   0.916   8.584  1.5303 -1.3396 -0.6417
   10CHL1  H27B  739   2.949   1.012   8.732  0.2191 -0.6352 -0.3935
   10CHL1  H27C  740   3.081   0.939   8.635 -0.1261 -0.3169 -0.3375
   11CHL1    C3  741   4.894   4.278  10.075 -0.4207 -0.2490 -0.7024
   11CHL1    H3  742   4.904   4.388  10.090  2.7953 -0.6607  1.0646
   11CHL1    O3  743   4.910   4.220  10.201  0.2259 -0.1890  0.3591
   11CHL1   H3'  744   4.990   4.261  10.234 -0.0310  0.9056 -0.3099
   11CHL1    C4  745   4.758   4.241  10.021 -0.3107  0.3028  0.3282
   11CHL1   H4A  746   4.759   4.130  10.027  0.4778  0.3786  1.9682
   11CHL1   H4B  747   4.682   4.276  10.094 -1.3596  0.1468 -0.6555
   11CHL1    C5  748   4.743   4.284   9.882  0.4526 -0.1696 -0.0245
   11CHL1    C6  749   4.641   4.365   9.850  0.6060 -0.0581 -0.1284
   11CHL1    H6  750   4.575   4.404   9.929  1.0573  1.2038 -0.3379
   11CHL1    C7  751   4.612   4.417   9.711  0.1706  0.2585 -0.3216
   11CHL1   H7A  752   4.506   4.386   9.693 -0.8455  1.5382  2.7998
   11CHL1   H7B  753   4.611   4.527   9.696 -0.2878  0.3418  0.2660
   11CHL1    C8  754   4.699   4.350   9.602 -0.8350 -0.3573  0.2350
   11CHL1    H8  755   4.672   4.244   9.581 -0.2845 -0.5878  0.6693
   11CHL1   C14  756   4.692   4.420   9.465 -0.5642 -0.1633 -0.2819
   11CHL1   H14  757   4.740   4.520   9.470  0.1153 -0.3429 -2.3168
   11CHL1   C15  758   4.551   4.445   9.418 -0.0170 -0.8232  0.1658
   11CHL1  H15A  759   4.487   4.358   9.446 -0.4196 -0.6535 -0.2072
   11CHL1  H15B  760   4.524   4.540   9.468  0.3771 -1.3491  1.3923
   11CHL1   C16  761   4.561   4.460   9.269  0.3125  0.0538  0.7364
   11CHL1  H16A  762   4.504   4.388   9.207  0.3726  0.4208  0.2465
   11CHL1  H16B  763   4.525   4.554   9.221 -2.6491 -2.1499 -1.7131
   11CHL1   C17  764   4.719   4.444   9.240  0.3194  0.0864  0.0835
   11CHL1   H17  765   4.752   4.548   9.259 -2.3809  0.7945  1.3946
   11CHL1   C13  766   4.769   4.352   9.354 -0.1912  0.0397  0.5071
   11CHL1   C18  767   4.718   4.208   9.315 -0.0170 -0.2505 -0.0787
   11CHL1  H18A  768   4.778   4.172   9.229  2.0483 -0.6618  1.4523
   11CHL1  H18B  769   4.713   4.137   9.401  0.8101 -1.0911 -0.6994
   11CHL1  H18C  770   4.616   4.225   9.277  0.0367  1.6000  0.5001
   11CHL1   C12  771   4.918   4.348   9.396 -0.2215  0.1987  0.2335
   11CHL1  H12A  772   4.978   4.290   9.324 -1.6947  0.1758 -1.0188
   11CHL1  H12B  773   4.962   4.449   9.408 -1.8246  0.9786 -0.2181
   11CHL1   C11  774   4.936   4.278   9.533 -0.8196  0.5487 -0.0107
   11CHL1  H11A  775   4.916   4.171   9.513 -1.3711  1.0094 -2.2633
   11CHL1  H11B  776   5.044   4.292   9.558 -0.6987  2.2065 -1.2399
   11CHL1    C9  777   4.843   4.330   9.647 -0.7505  0.4887  0.0931
   11CHL1    H9  778   4.883   4.429   9.679 -0.3407  0.1321  0.6807
   11CHL1   C10  779   4.850   4.248   9.782 -0.2185  0.3053  0.3834
   11CHL1   C19  780   4.835   4.095   9.747 -0.7348  0.3304 -0.3306
   11CHL1  H19A  781   4.739   4.064   9.701 -1.4574 -1.8081  2.3580
   11CHL1  H19B  782   4.923   4.051   9.696 -0.6957 -0.5854  0.5011
   11CHL1  H19C  783   4.833   4.042   9.845 -0.5956 -1.6582 -1.3522
   11CHL1    C1  784   4.988   4.272   9.842 -0.0901  0.5231 -0.2122
   11CHL1   H1A  785   5.060   4.213   9.782 -1.0391 -1.1833  0.2539
   11CHL1   H1B  786   5.006   4.381   9.850  0.7310  0.3481  0.5062
   11CHL1    C2  787   5.002   4.215   9.985 -0.4268 -0.8792  0.1491
   11CHL1   H2A  788   5.104   4.236  10.026 -0.1537 -1.2884 -0.3026
   11CHL1   H2B  789   5.000   4.104   9.986  1.8642 -0.9708  1.4996
   11CHL1   C20  790   4.745   4.409   9.088  0.0779  0.6589  0.2630
   11CHL1   H20  791   4.739   4.300   9.065  0.5433  0.4569  1.0545
   11CHL1   C21  792   4.887   4.457   9.045  1.1856  0.6505 -0.7162
   11CHL1  H21A  793   4.912   4.408   8.948  0.6890  1.8712 -1.4782
   11CHL1  H21B  794   4.963   4.429   9.122  2.3545  1.6119 -1.4712
   11CHL1  H21C  795   4.892   4.567   9.036 -1.5184  0.8279 -0.6126
   11CHL1   C22  796   4.640   4.476   8.994  0.2174 -0.1081  0.2430
   11CHL1  H22A  797   4.545   4.419   9.003  1.0736 -1.9680 -1.3974
   11CHL1  H22B  798   4.627   4.585   9.009  2.3561 -0.1149  2.9559
   11CHL1   C23  799   4.685   4.465   8.842  0.6223  0.1212 -0.1344
   11CHL1  H23A  800   4.765   4.542   8.830 -0.6996  1.3189 -1.6563
   11CHL1  H23B  801   4.706   4.360   8.814 -5.5753 -1.0459 -1.7959
   11CHL1   C24  802   4.578   4.509   8.744  0.6484 -0.2046  0.8784
   11CHL1  H24A  803   4.493   4.439   8.750  0.0372  0.2086 -1.7579
   11CHL1  H24B  804   4.554   4.615   8.769  0.9537  0.1929 -0.3915
   11CHL1   C25  805   4.618   4.510   8.587 -0.2963  0.7406 -0.3676
   11CHL1   H25  806   4.715   4.564   8.585  0.5494 -0.7300 -0.5423
   11CHL1   C26  807   4.653   4.373   8.524 -0.3210  0.3154  0.5970
   11CHL1  H26A  808   4.563   4.308   8.523 -1.9730  2.4803 -0.9910
   11CHL1  H26B  809   4.702   4.371   8.425 -3.6532  0.0189 -1.1818
   11CHL1  H26C  810   4.725   4.321   8.590 -1.2893 -2.5686 -0.4939
   11CHL1   C27  811   4.512   4.581   8.496  0.1368 -0.6214 -0.4485
   11CHL1  H27A  812   4.416   4.525   8.509  0.8753 -1.5763  1.2185
   11CHL1  H27B  813   4.500   4.685   8.535  0.9091 -1.0829  1.1017
   11CHL1  H27C  814   4.554   4.587   8.393  1.0524  2.3724 -0.0147
   12CHL1    C3  815   2.439   6.350  10.448  0.0164  0.7508  0.0606
   12CHL1    H3  816   2.382   6.445  10.453  0.3053  1.0101 -1.1968
   12CHL1    O3  817   2.464   6.311  10.582  0.1285 -0.1310  0.0708
   12CHL1   H3'  818   2.529   6.240  10.584 -2.1965 -2.4731 -1.4279
   12CHL1    C4  819   2.361   6.238  10.371  0.0744 -0.5281 -0.1675
   12CHL1   H4A  820   2.415   6.143  10.391  1.3646  0.2163  0.0295
   12CHL1   H4B  821   2.264   6.237  10.425 -0.2741  2.7037 -0.5597
   12CHL1    C5  822   2.338   6.266  10.216 -0.5013 -0.3221 -0.5549
   12CHL1    C6  823   2.216   6.281  10.165 -0.5576  0.0592 -0.2346
   12CHL1    H6  824   2.130   6.268  10.232 -1.3429  2.2036 -0.7648
   12CHL1    C7  825   2.188   6.299  10.022 -0.9393 -0.2924  0.3186
   12CHL1   H7A  826   2.097   6.244   9.990 -0.9778 -0.8535  1.3216
   12CHL1   H7B  827   2.168   6.408  10.011 -1.4587 -0.1536  2.2495
   12CHL1    C8  828   2.318   6.274   9.929  0.4631  0.8560 -0.2420
   12CHL1    H8  829   2.325   6.164   9.912  1.8008  0.9757 -0.5696
   12CHL1   C14  830   2.294   6.332   9.786  0.2461 -0.7701  0.9595
   12CHL1   H14  831   2.289   6.443   9.793  0.2748 -0.7053  0.0405
   12CHL1   C15  832   2.161   6.298   9.711 -0.0545 -0.0024  0.3141
   12CHL1  H15A  833   2.140   6.192   9.736  2.5875 -0.4013  1.1619
   12CHL1  H15B  834   2.087   6.370   9.752  2.4488  0.6186  4.3120
   12CHL1   C16  835   2.189   6.325   9.562  0.2489 -0.9643  0.3134
   12CHL1  H16A  836   2.163   6.235   9.502 -1.9049  0.1254 -0.5153
   12CHL1  H16B  837   2.118   6.407   9.537  0.3852 -1.3234 -1.3381
   12CHL1   C17  838   2.345   6.376   9.556  0.7975 -0.1014 -0.4151
   12CHL1   H17  839   2.343   6.486   9.565 -1.9370 -0.1987  1.3600
   12CHL1   C13  840   2.407   6.311   9.684 -0.8220  0.1609 -0.3287
   12CHL1   C18  841   2.422   6.160   9.658 -0.0377  0.1321  0.0739
   12CHL1  H18A  842   2.338   6.113   9.603 -1.0125  0.8606  0.9110
   12CHL1  H18B  843   2.519   6.129   9.613 -0.5239 -2.9938  0.8922
   12CHL1  H18C  844   2.424   6.100   9.751 -3.3823 -0.3137 -0.0082
   12CHL1   C12  845   2.533   6.381   9.745  0.5139 -0.0537  0.2000
   12CHL1  H12A  846   2.621   6.364   9.679  0.8285  0.8853  0.3689
   12CHL1  H12B  847   2.515   6.490   9.751 -1.1304 -0.2809 -0.1331
   12CHL1   C11  848   2.567   6.322   9.882 -0.5471  0.5141 -0.4901
   12CHL1  H11A  849   2.573   6.211   9.870 -4.2159  0.0239  1.0577
   12CHL1  H11B  850   2.661   6.359   9.927  0.5941 -1.2579 -1.2889
   12CHL1    C9  851   2.445   6.334   9.984  0.2276  0.7703  0.4048
   12CHL1    H9  852   2.427   6.443   9.991  0.3712  0.9511 -1.5462
   12CHL1   C10  853   2.467   6.292  10.133 -0.6506  0.4831  0.0858
   12CHL1   C19  854   2.552   6.154  10.135 -1.0681 -1.0069 -0.3376
   12CHL1  H19A  855   2.502   6.085  10.065 -0.6239 -0.2371 -1.4410
   12CHL1  H19B  856   2.657   6.170  10.103 -0.9367 -1.5429 -0.1811
   12CHL1  H19C  857   2.555   6.113  10.239 -1.6215  1.3247  0.6769
   12CHL1    C1  858   2.548   6.401  10.209 -0.6547  0.3483 -0.1133
   12CHL1   H1A  859   2.648   6.417  10.163  0.2578 -3.9623 -0.0462
   12CHL1   H1B  860   2.488   6.494  10.201  0.8210  1.3746  0.2812
   12CHL1    C2  861   2.572   6.380  10.368 -0.0579 -0.5672 -0.0895
   12CHL1   H2A  862   2.627   6.469  10.404  0.6472 -0.2517 -1.8147
   12CHL1   H2B  863   2.651   6.303  10.379  1.0484  0.4467 -0.7320
   12CHL1   C20  864   2.406   6.336   9.413 -0.0566 -0.5277 -0.5661
   12CHL1   H20  865   2.380   6.230   9.394 -1.4439  0.1652 -2.9161
   12CHL1   C21  866   2.561   6.356   9.420  0.5919 -0.0619  0.5987
   12CHL1  H21A  867   2.590   6.446   9.479  0.8975 -0.5618  1.2299
   12CHL1  H21B  868   2.594   6.360   9.314 -2.2648 -1.3256 -0.4233
   12CHL1  H21C  869   2.599   6.268   9.476 -2.6484 -1.3181  0.9761
   12CHL1   C22  870   2.338   6.415   9.295 -0.0636  0.4973 -0.2103
   12CHL1  H22A  871   2.234   6.432   9.330 -0.4300 -0.2596 -0.9203
   12CHL1  H22B  872   2.389   6.511   9.272  0.0915  0.0641 -1.7411
   12CHL1   C23  873   2.337   6.321   9.168  0.2758 -0.1811 -0.8905
   12CHL1  H23A  874   2.436   6.272   9.153  0.4875  0.7094 -2.6593
   12CHL1  H23B  875   2.266   6.237   9.185 -0.5250  0.4119 -1.2338
   12CHL1   C24  876   2.285   6.388   9.041  0.3309 -0.4991 -0.2207
   12CHL1  H24A  877   2.180   6.425   9.048  1.1464  1.8257  0.4506
   12CHL1  H24B  878   2.341   6.478   9.010 -0.2643  0.1955  0.6536
   12CHL1   C25  879   2.300   6.299   8.922  0.3701  0.4908 -0.4626
   12CHL1   H25  880   2.252   6.355   8.839  0.0936  0.6420 -0.2005
   12CHL1   C26  881   2.446   6.275   8.881  0.2616  0.6854  0.2569
   12CHL1  H26A  882   2.471   6.170   8.907 -0.5850 -0.1976 -2.2227
   12CHL1  H26B  883   2.445   6.273   8.770  2.0260 -0.7599  0.2285
   12CHL1  H26C  884   2.519   6.355   8.904  0.2337  0.6838  0.3501
   12CHL1   C27  885   2.221   6.162   8.920  0.0471 -0.0072 -0.6276
   12CHL1  H27A  886   2.112   6.167   8.942 -0.1162 -2.7210 -0.4838
   12CHL1  H27B  887   2.243   6.109   8.825 -0.5804 -0.3078 -0.6109
   12CHL1  H27C  888   2.251   6.101   9.008  0.7508  0.1946 -0.7202
   13CHL1    C3  889   1.641   0.936   9.956  0.1514 -0.1794 -0.3027
   13CHL1    H3  890   1.734   0.877   9.959  0.9539  1.0662  0.2206
   13CHL1    O3  891   1.578   0.953  10.082 -0.2271  0.1561  0.0031
   13CHL1   H3'  892   1.537   0.870  10.107 -1.7415  0.8508 -0.1009
   13CHL1    C4  893   1.672   1.076   9.901  0.2396 -0.3314  1.0026
   13CHL1   H4A  894   1.576   1.132   9.908  1.4475  1.8298  0.9813
   13CHL1   H4B  895   1.734   1.132   9.973  1.1413  1.4081 -1.0092
   13CHL1    C5  896   1.720   1.063   9.761 -1.2478 -0.2778 -0.1964
   13CHL1    C6  897   1.844   1.105   9.725  0.3071  0.2281 -0.3439
   13CHL1    H6  898   1.901   1.139   9.812 -1.1812  0.7298  0.4845
   13CHL1    C7  899   1.907   1.090   9.583  0.2799 -0.4019 -0.6252
   13CHL1   H7A  900   1.968   1.180   9.560  0.3816  0.1240  1.5434
   13CHL1   H7B  901   1.979   1.006   9.591  0.1414 -0.3227  2.4279
   13CHL1    C8  902   1.798   1.057   9.477 -0.3573  0.0797 -0.0285
   13CHL1    H8  903   1.745   1.153   9.461 -0.4571  0.0950  0.3676
   13CHL1   C14  904   1.863   0.997   9.354 -0.5763  0.0463  0.1532
   13CHL1   H14  905   1.920   0.906   9.382  0.8679  1.2641  1.3200
   13CHL1   C15  906   1.957   1.094   9.292  0.0219 -0.2759 -0.0603
   13CHL1  H15A  907   1.929   1.201   9.295 -2.9807 -0.9641  0.2410
   13CHL1  H15B  908   2.052   1.073   9.344  0.8878  0.9329 -1.1185
   13CHL1   C16  909   1.971   1.048   9.145  0.4697 -0.2082 -0.1066
   13CHL1  H16A  910   1.961   1.142   9.087  1.2269 -0.0949 -0.0634
   13CHL1  H16B  911   2.074   1.010   9.128  0.7147  1.2176 -2.1521
   13CHL1   C17  912   1.865   0.931   9.127  0.9261 -0.2716  0.0142
   13CHL1   H17  913   1.917   0.835   9.149 -0.7678 -1.1236  0.4588
   13CHL1   C13  914   1.766   0.960   9.244  0.0615  0.1702 -0.0564
   13CHL1   C18  915   1.683   1.086   9.205  0.4991  0.3350 -0.1075
   13CHL1  H18A  916   1.617   1.074   9.116  0.4442  3.5278 -0.6018
   13CHL1  H18B  917   1.616   1.114   9.290 -0.1048  1.8215 -1.0226
   13CHL1  H18C  918   1.746   1.173   9.177  1.2583 -0.5692 -1.2955
   13CHL1   C12  919   1.681   0.850   9.294 -0.0714  0.4449  0.5411
   13CHL1  H12A  920   1.608   0.814   9.218 -1.1312 -0.5225  1.9634
   13CHL1  H12B  921   1.753   0.769   9.318 -0.1590 -1.1848 -3.7475
   13CHL1   C11  922   1.605   0.885   9.425 -0.2857 -0.2935 -0.3687
   13CHL1  H11A  923   1.537   0.972   9.412  2.3705  2.5309  2.7559
   13CHL1  H11B  924   1.547   0.795   9.456  0.4232 -0.9065 -0.7654
   13CHL1    C9  925   1.696   0.951   9.538  0.2492  0.4538 -0.0385
   13CHL1    H9  926   1.760   0.864   9.566 -1.7793 -1.1604 -0.1393
   13CHL1   C10  927   1.622   0.995   9.667  0.5596 -0.0283 -0.2799
   13CHL1   C19  928   1.497   1.078   9.637  0.3619  0.3323 -0.2274
   13CHL1  H19A  929   1.417   1.020   9.585 -0.8948  0.4968  1.4244
   13CHL1  H19B  930   1.450   1.109   9.732 -1.1455  0.9146 -1.1173
   13CHL1  H19C  931   1.518   1.177   9.591  1.9149  1.3546  2.4732
   13CHL1    C1  932   1.583   0.861   9.726  0.6575  0.2066  0.3046
   13CHL1   H1A  933   1.507   0.824   9.655  0.6392  0.7485  0.0300
   13CHL1   H1B  934   1.667   0.789   9.717 -0.0475 -0.8511  1.7791
   13CHL1    C2  935   1.542   0.865   9.873  0.0974  0.0747 -0.0443
   13CHL1   H2A  936   1.533   0.755   9.889 -1.8925 -0.1823 -2.2584
   13CHL1   H2B  937   1.440   0.910   9.882  0.9676  2.0427  0.4404
   13CHL1   C20  938   1.798   0.911   8.988  0.8950  0.2853 -0.8815
   13CHL1   H20  939   1.722   0.990   8.972 -0.6874 -0.4887  2.0845
   13CHL1   C21  940   1.715   0.787   8.982  0.2236  0.3355  0.3134
   13CHL1  H21A  941   1.606   0.792   8.965  0.4350  0.1985 -1.2877
   13CHL1  H21B  942   1.744   0.717   9.063  1.8334  2.0700  1.3008
   13CHL1  H21C  943   1.751   0.731   8.892  1.9773  1.8885 -0.0123
   13CHL1   C22  944   1.901   0.919   8.873  0.0229  0.2856  0.2623
   13CHL1  H22A  945   1.954   1.017   8.880 -1.2220  1.0206 -0.2335
   13CHL1  H22B  946   1.981   0.844   8.891  1.2173  1.4383 -0.0613
   13CHL1   C23  947   1.833   0.928   8.737 -0.1719  0.5093 -0.7419
   13CHL1  H23A  948   1.781   0.832   8.714 -2.8134  1.6835 -0.1392
   13CHL1  H23B  949   1.751   1.001   8.754 -2.0991 -2.1688  2.7188
   13CHL1   C24  950   1.936   0.958   8.622 -0.1089  0.1031 -0.3613
   13CHL1  H24A  951   2.024   1.018   8.651  1.1082 -0.4527 -2.6775
   13CHL1  H24B  952   1.976   0.870   8.568 -0.6507 -1.2079  1.2867
   13CHL1   C25  953   1.861   1.024   8.503  0.2068 -0.3602 -0.2169
   13CHL1   H25  954   1.786   1.103   8.527  1.0224  0.7999 -1.3597
   13CHL1   C26  955   1.957   1.096   8.404  0.0805 -0.1970 -0.4581
   13CHL1  H26A  956   2.022   1.020   8.355 -0.7036 -0.5924 -0.9020
   13CHL1  H26B  957   1.896   1.154   8.331  2.5859  2.7181 -0.4304
   13CHL1  H26C  958   2.017   1.177   8.451 -1.0522 -0.2958  1.2639
   13CHL1   C27  959   1.783   0.908   8.423 -0.3394 -0.1191  1.0987
   13CHL1  H27A  960   1.860   0.834   8.392 -0.3891  0.7087 -1.1408
   13CHL1  H27B  961   1.704   0.859   8.484 -0.6975 -2.5909 -1.1730
   13CHL1  H27C  962   1.743   0.946   8.327 -0.5054  1.2742  1.7017
   14CHL1    C3  963   6.576   5.690  10.111 -0.7622  0.2857 -0.5120
   14CHL1    H3  964   6.592   5.794  10.075  0.6443  1.1975  2.4284
   14CHL1    O3  965   6.564   5.686  10.253  0.0556  0.4667  0.1235
   14CHL1   H3'  966   6.481   5.733  10.264 -0.4753 -0.5142  0.3729
   14CHL1    C4  967   6.446   5.638  10.052  0.7038 -0.1902 -0.2454
   14CHL1   H4A  968   6.408   5.544  10.099 -0.9138  1.0672  1.1011
   14CHL1   H4B  969   6.371   5.718  10.069 -0.2176 -0.2177 -3.3804
   14CHL1    C5  970   6.453   5.623   9.898  0.2725 -0.1445  0.4704
   14CHL1    C6  971   6.386   5.698   9.812 -0.5092 -0.0870  0.0239
   14CHL1    H6  972   6.324   5.772   9.865  0.4466  0.0710  0.9565
   14CHL1    C7  973   6.379   5.677   9.667 -0.2792  0.4645 -0.7131
   14CHL1   H7A  974   6.274   5.676   9.632  0.1466 -2.1084 -2.2237
   14CHL1   H7B  975   6.420   5.765   9.614 -1.4448  1.3599 -0.1659
   14CHL1    C8  976   6.443   5.548   9.617 -0.1395 -0.3797 -0.4542
   14CHL1    H8  977   6.373   5.467   9.646  1.1975 -0.3634  3.4214
   14CHL1   C14  978   6.465   5.544   9.471  0.0344 -0.4378  0.4278
   14CHL1   H14  979   6.520   5.636   9.442 -2.0784  0.4108 -1.1573
   14CHL1   C15  980   6.334   5.568   9.387  0.1778  0.2578 -0.4910
   14CHL1  H15A  981   6.252   5.502   9.424  1.4245 -0.8342  0.4400
   14CHL1  H15B  982   6.307   5.675   9.385  0.7728  0.3930 -1.4263
   14CHL1   C16  983   6.377   5.520   9.248 -0.9156  0.0176  0.2734
   14CHL1  H16A  984   6.294   5.456   9.211 -0.8647  0.1455 -0.0703
   14CHL1  H16B  985   6.405   5.603   9.179  1.0326 -0.6059  0.2745
   14CHL1   C17  986   6.511   5.440   9.273 -0.3931  0.0009  0.2166
   14CHL1   H17  987   6.596   5.503   9.241 -0.1245 -1.3846 -2.0538
   14CHL1   C13  988   6.529   5.420   9.421  0.0146 -0.2567 -0.7533
   14CHL1   C18  989   6.443   5.296   9.460  0.0971  0.0958  0.1274
   14CHL1  H18A  990   6.341   5.295   9.416 -1.5169  2.5572  3.4007
   14CHL1  H18B  991   6.482   5.198   9.425  0.7035  0.5990 -0.6651
   14CHL1  H18C  992   6.435   5.279   9.569  1.2942 -1.9741 -0.0478
   14CHL1   C12  993   6.674   5.428   9.475 -0.2281  0.0072 -0.2480
   14CHL1  H12A  994   6.733   5.348   9.424  1.9233  0.2438  1.7123
   14CHL1  H12B  995   6.716   5.529   9.457  0.1675 -0.2853 -1.0060
   14CHL1   C11  996   6.671   5.417   9.633  0.4623  0.3961  0.2946
   14CHL1  H11A  997   6.638   5.312   9.647  0.9126  0.2065 -0.0325
   14CHL1  H11B  998   6.775   5.432   9.670  1.8417 -1.0404 -2.5998
   14CHL1    C9  999   6.575   5.529   9.697  0.8546 -0.5836  0.0309
   14CHL1    H9 1000   6.628   5.625   9.682  0.0774 -0.2424 -0.6189
   14CHL1   C10 1001   6.553   5.517   9.852 -0.1153 -0.3282  0.0204
   14CHL1   C19 1002   6.501   5.378   9.885 -0.6159  0.4466  0.3525
   14CHL1  H19A 1003   6.449   5.367   9.983 -1.9140  0.3142 -0.3326
   14CHL1  H19B 1004   6.429   5.345   9.808 -0.8369  1.4162  0.1347
   14CHL1  H19C 1005   6.592   5.314   9.881 -0.7701  0.1735  0.9853
   14CHL1    C1 1006   6.685   5.554   9.920  0.0476  0.1256 -0.3331
   14CHL1   H1A 1007   6.753   5.469   9.897  2.1224  1.4252  0.6337
   14CHL1   H1B 1008   6.723   5.643   9.866 -0.6213 -1.4346 -3.6461
   14CHL1    C2 1009   6.682   5.585  10.072  0.7568 -0.2721 -0.4813
   14CHL1   H2A 1010   6.788   5.604  10.100  0.1241  1.4091  0.9930
   14CHL1   H2B 1011   6.663   5.485  10.116  0.1232  0.0214 -0.0734
   14CHL1   C20 1012   6.524   5.324   9.169 -0.3904  0.0836 -0.7461
   14CHL1   H20 1013   6.445   5.248   9.189  0.2163 -0.2052  0.7527
   14CHL1   C21 1014   6.662   5.256   9.186 -0.1734  0.1844  0.3214
   14CHL1  H21A 1015   6.678   5.197   9.094  0.4151  0.0087  0.5357
   14CHL1  H21B 1016   6.676   5.197   9.279  0.1543  1.8080  1.3345
   14CHL1  H21C 1017   6.748   5.326   9.185 -1.3757  1.7107 -0.9537
   14CHL1   C22 1018   6.505   5.374   9.024  0.2342 -0.0078 -0.2049
   14CHL1  H22A 1019   6.401   5.413   9.023 -0.0620 -0.7782 -0.7576
   14CHL1  H22B 1020   6.584   5.449   9.002  1.0238 -1.0463 -1.0462
   14CHL1   C23 1021   6.505   5.272   8.907  0.6347 -0.0108  0.1099
   14CHL1  H23A 1022   6.595   5.208   8.913  0.3253 -0.3115  3.1470
   14CHL1  H23B 1023   6.419   5.202   8.918  1.2308 -0.6873  0.5588
   14CHL1   C24 1024   6.482   5.357   8.771 -0.1002  0.4585 -0.8709
   14CHL1  H24A 1025   6.373   5.360   8.751 -0.3485 -2.2038 -0.2802
   14CHL1  H24B 1026   6.522   5.456   8.800  1.0441 -0.3970  0.6270
   14CHL1   C25 1027   6.541   5.290   8.643 -0.4447 -0.1672  0.0593
   14CHL1   H25 1028   6.646   5.323   8.661 -0.7103 -0.1614  1.7905
   14CHL1   C26 1029   6.541   5.139   8.633 -0.2556  0.0617 -0.3040
   14CHL1  H26A 1030   6.602   5.103   8.719 -1.8795 -0.7990  0.5345
   14CHL1  H26B 1031   6.435   5.108   8.642 -0.7349  1.7348  0.2149
   14CHL1  H26C 1032   6.587   5.104   8.537  0.6264 -1.5249  0.6487
   14CHL1   C27 1033   6.491   5.348   8.506 -0.0154 -0.5949 -0.7377
   14CHL1  H27A 1034   6.562   5.323   8.424  0.9070 -0.8676  0.1284
   14CHL1  H27B 1035   6.392   5.306   8.480 -1.6554  0.8247  2.5957
   14CHL1  H27C 1036   6.475   5.458   8.518  0.1067 -0.6277 -0.2846
   15CHL1    C3 1037   6.775   3.725  10.255 -0.3846  0.4652  0.5852
   15CHL1    H3 1038   6.802   3.829  10.225 -0.0995  0.2841  0.2097
   15CHL1    O3 1039   6.792   3.730  10.394 -0.4827 -0.0303 -0.5064
   15CHL1   H3' 1040   6.809   3.641  10.425  1.0744  1.2274  2.6903
   15CHL1    C4 1041   6.626   3.694  10.217  0.0197 -0.1402  0.1644
   15CHL1   H4A 1042   6.593   3.597  10.259  0.6632 -0.0072  1.0027
   15CHL1   H4B 1043   6.555   3.763  10.268 -0.6681 -0.5454 -0.2376
   15CHL1    C5 1044   6.616   3.707  10.066  0.0971  0.0721 -0.2297
   15CHL1    C6 1045   6.545   3.805  10.015  0.2072  0.1993 -0.0244
   15CHL1    H6 1046   6.512   3.889  10.078 -0.6236  0.7909 -1.2218
   15CHL1    C7 1047   6.522   3.833   9.872  0.0740  0.2525  1.1971
   15CHL1   H7A 1048   6.418   3.864   9.847  0.8821  0.9634 -1.6337
   15CHL1   H7B 1049   6.584   3.919   9.839 -0.0314  0.4249  1.4528
   15CHL1    C8 1050   6.554   3.705   9.790 -0.1283 -0.5366  0.5944
   15CHL1    H8 1051   6.471   3.634   9.809  0.7942 -2.5636 -2.2619
   15CHL1   C14 1052   6.558   3.723   9.640  0.1377 -0.4822 -0.1607
   15CHL1   H14 1053   6.638   3.797   9.620 -0.2335 -0.2022 -0.6220
   15CHL1   C15 1054   6.429   3.781   9.592 -0.1478  0.1624 -0.1053
   15CHL1  H15A 1055   6.350   3.728   9.650  0.3980 -0.3117  0.2198
   15CHL1  H15B 1056   6.426   3.889   9.619  1.8290  0.3462 -0.5107
   15CHL1   C16 1057   6.438   3.755   9.444  0.9297  0.6173  0.2218
   15CHL1  H16A 1058   6.344   3.708   9.409  0.3654  1.8893 -0.0200
   15CHL1  H16B 1059   6.445   3.847   9.382 -1.6350  1.4217  1.0157
   15CHL1   C17 1060   6.563   3.663   9.417  0.2314 -0.5785 -0.0166
   15CHL1   H17 1061   6.646   3.734   9.398  0.1720 -0.4980  0.0238
   15CHL1   C13 1062   6.589   3.600   9.556 -0.9942 -0.1482 -0.1791
   15CHL1   C18 1063   6.493   3.473   9.585  0.5656 -0.1589 -0.2860
   15CHL1  H18A 1064   6.401   3.490   9.525 -0.3953  2.0598  1.6504
   15CHL1  H18B 1065   6.545   3.387   9.537  2.8020  0.9925 -0.0700
   15CHL1  H18C 1066   6.458   3.456   9.689 -0.8395 -0.2172 -0.7449
   15CHL1   C12 1067   6.736   3.572   9.595  0.8912 -0.2136  0.0291
   15CHL1  H12A 1068   6.779   3.485   9.542  3.2461 -0.5397  2.2731
   15CHL1  H12B 1069   6.804   3.658   9.581  0.2594  0.0131 -1.9561
   15CHL1   C11 1070   6.752   3.530   9.740 -0.5055  0.2973 -0.1292
   15CHL1  H11A 1071   6.709   3.428   9.742  0.5367 -0.1581 -0.0811
   15CHL1  H11B 1072   6.859   3.511   9.768 -0.3529  0.4061 -0.6380
   15CHL1    C9 1073   6.689   3.636   9.836 -0.0335  0.0056  0.1014
   15CHL1    H9 1074   6.762   3.720   9.831 -0.0532  0.0923  1.0393
   15CHL1   C10 1075   6.694   3.599   9.985  0.0355  0.3129 -0.2172
   15CHL1   C19 1076   6.645   3.454  10.000  0.0084 -0.4427 -0.0509
   15CHL1  H19A 1077   6.537   3.445   9.973  0.1411 -0.2609 -0.6595
   15CHL1  H19B 1078   6.702   3.383   9.936  1.5156  2.1682 -1.8242
   15CHL1  H19C 1079   6.655   3.415  10.103  1.2193  1.5348  0.6402
   15CHL1    C1 1080   6.845   3.605  10.035 -0.3617  0.2397  0.8545
   15CHL1   H1A 1081   6.895   3.513   9.999 -1.5821 -0.0760 -0.1189
   15CHL1   H1B 1082   6.897   3.688   9.982  2.7690 -1.1110  1.5874
   15CHL1    C2 1083   6.858   3.616  10.196 -0.1499 -0.3185  0.6717
   15CHL1   H2A 1084   6.967   3.628  10.212 -0.0747  3.0186 -1.4303
   15CHL1   H2B 1085   6.827   3.523  10.249  0.2755 -0.3958  0.7880
   15CHL1   C20 1086   6.554   3.577   9.293  0.0338  0.4256 -0.1474
   15CHL1   H20 1087   6.485   3.492   9.312  1.5978 -0.8959 -0.2510
   15CHL1   C21 1088   6.691   3.513   9.278  0.1837  0.6657  0.3607
   15CHL1  H21A 1089   6.772   3.586   9.296 -0.9917  1.3898  3.3586
   15CHL1  H21B 1090   6.696   3.468   9.176 -0.7299 -0.6403  0.8603
   15CHL1  H21C 1091   6.707   3.435   9.355 -0.2395 -1.2706 -1.3974
   15CHL1   C22 1092   6.506   3.646   9.166  0.7455  0.0285  0.4000
   15CHL1  H22A 1093   6.501   3.586   9.073  1.6967 -0.4246  0.6297
   15CHL1  H22B 1094   6.399   3.670   9.183 -0.7918 -3.5169 -2.8940
   15CHL1   C23 1095   6.591   3.769   9.122 -0.1930  0.7583 -0.0376
   15CHL1  H23A 1096   6.626   3.840   9.199  0.0209  1.7765 -1.0556
   15CHL1  H23B 1097   6.687   3.731   9.082 -0.4795 -0.8335  0.6981
   15CHL1   C24 1098   6.513   3.844   9.018  1.3658 -0.1271 -0.2698
   15CHL1  H24A 1099   6.504   3.777   8.930  2.1948  2.3038 -2.3469
   15CHL1  H24B 1100   6.413   3.860   9.064  1.8182 -1.2224  1.1485
   15CHL1   C25 1101   6.571   3.977   8.977 -0.0105 -0.1701 -0.8501
   15CHL1   H25 1102   6.592   4.031   9.072 -1.0924 -0.4661 -0.4272
   15CHL1   C26 1103   6.705   3.959   8.909  0.2162 -0.3134 -0.7386
   15CHL1  H26A 1104   6.785   3.923   8.977  0.8693  0.6427 -0.9748
   15CHL1  H26B 1105   6.706   3.896   8.818 -0.0325 -0.2094 -0.8168
   15CHL1  H26C 1106   6.729   4.063   8.876 -0.0827 -0.0748 -0.2208
   15CHL1   C27 1107   6.468   4.058   8.893  0.8226 -0.2951  0.7730
   15CHL1  H27A 1108   6.377   4.080   8.952  0.0796 -0.9308 -0.1085
   15CHL1  H27B 1109   6.517   4.155   8.868  2.5097 -0.6523  2.4492
   15CHL1  H27C 1110   6.451   4.003   8.798 -0.2505 -1.4427  1.6060
   16CHL1    C3 1111   0.293   4.125  10.153  0.2922 -0.1515 -0.9907
   16CHL1    H3 1112   0.246   4.222  10.124 -1.5834 -0.4795  0.7960
   16CHL1    O3 1113   0.284   4.111  10.295  0.1863 -0.1450 -0.1322
   16CHL1   H3' 1114   0.285   4.015  10.300  0.4055 -0.0976  2.0257
   16CHL1    C4 1115   0.217   4.009  10.090  0.2798 -0.0112 -0.0181
   16CHL1   H4A 1116   0.233   3.913  10.144  1.5816  0.9445  1.3998
   16CHL1   H4B 1117   0.108   4.031  10.102  0.4475  0.7498  0.2124
   16CHL1    C5 1118   0.237   4.009   9.941  0.1028  0.2606  0.2736
   16CHL1    C6 1119   0.125   4.014   9.862 -0.0168 -0.0311  0.7643
   16CHL1    H6 1120   0.020   4.012   9.896  0.0139 -1.7518  0.8467
   16CHL1    C7 1121   0.139   3.996   9.712  0.3063 -0.0617  0.1543
   16CHL1   H7A 1122   0.051   3.944   9.670  0.9169 -0.6203 -0.4552
   16CHL1   H7B 1123   0.134   4.099   9.672  0.1947  0.7599  2.1536
   16CHL1    C8 1124   0.275   3.929   9.670 -0.0430 -0.4930  0.0168
   16CHL1    H8 1125   0.268   3.823   9.702  1.8771 -0.4583  0.6780
   16CHL1   C14 1126   0.294   3.939   9.514  0.2326  0.1198  0.2741
   16CHL1   H14 1127   0.292   4.046   9.483 -0.1545  0.1068  0.2439
   16CHL1   C15 1128   0.188   3.885   9.416 -1.0365  0.2194  1.3840
   16CHL1  H15A 1129   0.162   3.778   9.436 -2.8087  0.1052 -1.1016
   16CHL1  H15B 1130   0.094   3.943   9.420 -0.9104  0.7995 -1.6402
   16CHL1   C16 1131   0.263   3.884   9.280 -0.6269 -0.7324 -0.5448
   16CHL1  H16A 1132   0.267   3.791   9.220  1.8180 -0.3000 -1.1599
   16CHL1  H16B 1133   0.221   3.960   9.210 -1.3987  0.4946  1.1668
   16CHL1   C17 1134   0.410   3.923   9.308 -0.1785 -0.0825 -0.3389
   16CHL1   H17 1135   0.420   4.034   9.298  2.3299  0.1917  3.2373
   16CHL1   C13 1136   0.430   3.898   9.457  0.1968 -0.5393 -0.0789
   16CHL1   C18 1137   0.453   3.747   9.482  0.3327 -0.6590 -0.3941
   16CHL1  H18A 1138   0.420   3.722   9.585  0.1275  1.2328  0.0329
   16CHL1  H18B 1139   0.389   3.692   9.410 -1.7988  0.7883  0.2689
   16CHL1  H18C 1140   0.554   3.719   9.444  1.0051  2.8177 -1.5359
   16CHL1   C12 1141   0.537   3.977   9.533 -0.4455  0.6676  0.4589
   16CHL1  H12A 1142   0.637   3.940   9.502 -0.2332  1.8381 -0.2983
   16CHL1  H12B 1143   0.544   4.084   9.505  1.0336  0.5330  0.2280
   16CHL1   C11 1144   0.529   3.964   9.684  0.0660 -0.0257 -0.0952
   16CHL1  H11A 1145   0.549   3.857   9.705 -1.0871 -0.3825 -0.7522
   16CHL1  H11B 1146   0.610   4.027   9.727  1.6291 -0.8448 -1.6875
   16CHL1    C9 1147   0.388   4.003   9.736 -0.6153 -0.7911 -0.8817
   16CHL1    H9 1148   0.384   4.108   9.700  1.2683 -0.2264  0.3710
   16CHL1   C10 1149   0.382   4.002   9.894 -0.3683  0.1116 -0.4329
   16CHL1   C19 1150   0.440   3.867   9.935  0.7160  0.0248  0.9193
   16CHL1  H19A 1151   0.421   3.840  10.042  0.2053 -1.1141  0.5539
   16CHL1  H19B 1152   0.390   3.792   9.871 -0.9342  1.8419 -0.0233
   16CHL1  H19C 1153   0.550   3.861   9.923  0.9474  2.3237  1.4035
   16CHL1    C1 1154   0.449   4.127   9.955 -0.3648 -0.1825  0.0864
   16CHL1   H1A 1155   0.558   4.121   9.930 -0.5517 -1.4461 -0.5235
   16CHL1   H1B 1156   0.402   4.221   9.918  0.9444  1.0602  1.4660
   16CHL1    C2 1157   0.439   4.127  10.109  0.0524  0.0676 -0.3717
   16CHL1   H2A 1158   0.491   4.222  10.135  0.6881  0.1467 -1.8577
   16CHL1   H2B 1159   0.494   4.040  10.153  0.6589  1.4923  1.8666
   16CHL1   C20 1160   0.506   3.858   9.213  0.1070 -0.8947  0.3758
   16CHL1   H20 1161   0.514   3.749   9.232 -4.4057 -1.3970  0.3364
   16CHL1   C21 1162   0.650   3.913   9.236 -0.3825 -0.8213 -0.0651
   16CHL1  H21A 1163   0.720   3.907   9.150  1.4465  0.3850  1.2785
   16CHL1  H21B 1164   0.699   3.849   9.312  0.4566 -0.4809 -0.3136
   16CHL1  H21C 1165   0.646   4.013   9.283 -2.9310 -1.7717  2.0513
   16CHL1   C22 1166   0.474   3.870   9.054 -0.3656 -0.6741 -0.2526
   16CHL1  H22A 1167   0.555   3.827   8.990 -0.7530 -0.6282 -0.7832
   16CHL1  H22B 1168   0.379   3.819   9.029 -0.8415  1.0931 -2.4214
   16CHL1   C23 1169   0.449   4.013   9.000  0.2846  0.3092  0.2278
   16CHL1  H23A 1170   0.376   4.065   9.066 -0.4135 -0.0215 -0.2787
   16CHL1  H23B 1171   0.553   4.053   9.000  0.6796 -0.6927 -0.2756
   16CHL1   C24 1172   0.392   4.009   8.852  0.6742  0.0663 -0.2250
   16CHL1  H24A 1173   0.464   3.953   8.788 -0.1637 -0.9988 -0.2707
   16CHL1  H24B 1174   0.313   3.931   8.846 -1.0998  1.6959  0.8962
   16CHL1   C25 1175   0.352   4.146   8.794  0.3040 -0.0647  0.2804
   16CHL1   H25 1176   0.326   4.126   8.688 -0.0071  3.9451 -0.5536
   16CHL1   C26 1177   0.221   4.195   8.863  0.1097  0.0070  0.0976
   16CHL1  H26A 1178   0.147   4.112   8.865  2.1411 -1.9008  0.3805
   16CHL1  H26B 1179   0.234   4.213   8.972 -3.0185 -0.5552  0.6668
   16CHL1  H26C 1180   0.176   4.285   8.816 -1.4838 -1.8797 -2.2094
   16CHL1   C27 1181   0.455   4.261   8.808  0.3265  0.1797 -0.2412
   16CHL1  H27A 1182   0.402   4.353   8.775  1.9144  0.1129 -3.3953
   16CHL1  H27B 1183   0.469   4.274   8.917  0.8249  1.1058 -0.4065
   16CHL1  H27C 1184   0.552   4.254   8.753  0.3427  0.4444 -0.2452
   17CHL1    C3 1185   4.029   1.020  10.379  0.4054  0.2812 -0.1728
   17CHL1    H3 1186   4.135   1.049  10.367  1.0738 -1.0381  1.9361
   17CHL1    O3 1187   4.006   0.996  10.521 -0.4165 -0.2560 -0.0035
   17CHL1   H3' 1188   3.917   0.958  10.525 -1.2371  1.4746 -1.0827
   17CHL1    C4 1189   3.921   1.123  10.324 -0.5722 -0.1209  0.0649
   17CHL1   H4A 1190   3.822   1.085  10.357 -0.0148 -0.9367  0.8581
   17CHL1   H4B 1191   3.938   1.222  10.372 -1.3634  0.6146 -1.1165
   17CHL1    C5 1192   3.932   1.133  10.172  0.2943  0.3038  0.0997
   17CHL1    C6 1193   3.943   1.258  10.114  0.1484 -0.7250  0.3826
   17CHL1    H6 1194   3.956   1.350  10.172 -2.5147 -0.0348 -0.0067
   17CHL1    C7 1195   3.959   1.282   9.965 -0.2102 -0.5095 -0.7841
   17CHL1   H7A 1196   3.905   1.375   9.937  0.0327 -0.2940 -0.5439
   17CHL1   H7B 1197   4.067   1.307   9.953 -0.2840  0.6899  0.8511
   17CHL1    C8 1198   3.918   1.154   9.881 -0.5337  0.4710 -0.4549
   17CHL1    H8 1199   3.809   1.140   9.896 -0.8330  3.2170  0.3817
   17CHL1   C14 1200   3.955   1.175   9.741 -0.6581 -0.5688  0.0308
   17CHL1   H14 1201   4.065   1.195   9.743 -0.8850  0.7806  0.0921
   17CHL1   C15 1202   3.910   1.306   9.662 -0.1854  0.4375  0.4886
   17CHL1  H15A 1203   3.801   1.322   9.680 -0.0987  0.2196  1.2495
   17CHL1  H15B 1204   3.967   1.393   9.700  1.0856 -0.1765  0.0401
   17CHL1   C16 1205   3.936   1.271   9.518 -0.0557 -0.6877  0.1723
   17CHL1  H16A 1206   3.844   1.298   9.461  0.8959  0.5763 -0.8020
   17CHL1  H16B 1207   4.019   1.332   9.476 -2.1901  1.4923 -1.1863
   17CHL1   C17 1208   3.971   1.124   9.507 -0.9270 -0.0961 -0.2292
   17CHL1   H17 1209   4.082   1.125   9.507 -0.8311  2.8783  1.5347
   17CHL1   C13 1210   3.931   1.064   9.647 -0.2959  0.3756  0.2498
   17CHL1   C18 1211   3.778   1.025   9.647  0.0873  0.3194 -0.1260
   17CHL1  H18A 1212   3.713   1.102   9.601 -0.4419  1.6123  2.6217
   17CHL1  H18B 1213   3.753   0.938   9.582 -1.0162  0.4227  0.1373
   17CHL1  H18C 1214   3.752   1.002   9.752  0.6901 -2.5936 -0.5129
   17CHL1   C12 1215   4.022   0.946   9.692 -0.0940  0.0895 -1.0579
   17CHL1  H12A 1216   4.010   0.854   9.632  0.8138 -0.4335 -0.4580
   17CHL1  H12B 1217   4.128   0.977   9.703 -0.7019  1.5656  1.8717
   17CHL1   C11 1218   3.987   0.909   9.836 -0.3655  0.1776  0.2415
   17CHL1  H11A 1219   3.890   0.855   9.839 -0.2947 -0.0121 -0.5889
   17CHL1  H11B 1220   4.072   0.843   9.864  1.6223  3.1817  1.7995
   17CHL1    C9 1221   3.991   1.024   9.939  0.0354 -0.3325  0.1662
   17CHL1    H9 1222   4.097   1.056   9.941  0.0202 -0.2855  0.2267
   17CHL1   C10 1223   3.942   0.999  10.089 -0.0868 -0.8910 -0.2127
   17CHL1   C19 1224   3.807   0.937  10.087 -0.8641  0.2808 -0.3544
   17CHL1  H19A 1225   3.806   0.833  10.049 -3.4539 -0.0879  0.4627
   17CHL1  H19B 1226   3.761   0.927  10.188  0.0185 -2.0012 -0.1244
   17CHL1  H19C 1227   3.734   1.000  10.031  0.7738  1.7781 -0.8964
   17CHL1    C1 1228   4.037   0.903  10.162  0.1953 -0.3240 -0.1994
   17CHL1   H1A 1229   4.036   0.802  10.114 -0.1224 -0.1518 -0.5582
   17CHL1   H1B 1230   4.138   0.942  10.136 -0.6751  0.8583 -1.9740
   17CHL1    C2 1231   4.014   0.881  10.314  0.3786  0.0909 -0.4075
   17CHL1   H2A 1232   4.107   0.826  10.341  0.0141  0.6306  2.2880
   17CHL1   H2B 1233   3.919   0.829  10.337  0.4611 -1.5493 -3.3113
   17CHL1   C20 1234   3.917   1.063   9.372  0.6241  0.3149 -0.7373
   17CHL1   H20 1235   3.808   1.042   9.381  0.2328  2.1047 -0.8838
   17CHL1   C21 1236   3.978   0.927   9.357  0.4325  0.8229 -0.8100
   17CHL1  H21A 1237   3.961   0.873   9.262  2.3362 -0.2606 -0.5739
   17CHL1  H21B 1238   3.954   0.853   9.437 -0.4237  1.3641 -0.5472
   17CHL1  H21C 1239   4.088   0.934   9.373  0.3524 -0.0417  0.2168
   17CHL1   C22 1240   3.927   1.155   9.248  0.3302  0.6875  0.1994
   17CHL1  H22A 1241   3.872   1.252   9.243 -0.1938  0.3336 -2.3575
   17CHL1  H22B 1242   4.034   1.182   9.255  0.9286 -0.9544 -1.8205
   17CHL1   C23 1243   3.916   1.086   9.107  0.5067 -0.1415  0.5154
   17CHL1  H23A 1244   3.991   1.004   9.099  0.7761  0.2427 -1.2065
   17CHL1  H23B 1245   3.814   1.048   9.081  0.3609  1.2633 -1.1636
   17CHL1   C24 1246   3.934   1.175   8.983 -0.4421  0.2778  0.3942
   17CHL1  H24A 1247   3.845   1.240   8.972 -2.0674 -1.6273  1.4735
   17CHL1  H24B 1248   4.028   1.233   8.990  2.1550 -2.9575 -3.1698
   17CHL1   C25 1249   3.943   1.099   8.847  0.6118 -0.1432  1.0511
   17CHL1   H25 1250   3.970   0.992   8.861 -4.2703 -1.6922  0.4788
   17CHL1   C26 1251   3.805   1.069   8.780  0.2941  0.2819  0.1737
   17CHL1  H26A 1252   3.752   1.165   8.758  1.6671  0.9624 -0.2741
   17CHL1  H26B 1253   3.833   1.007   8.692  2.9587  0.0172  1.1333
   17CHL1  H26C 1254   3.738   1.007   8.843 -0.4873 -0.9602 -1.7997
   17CHL1   C27 1255   4.036   1.171   8.753 -0.6210 -0.1457  0.5086
   17CHL1  H27A 1256   4.136   1.156   8.799 -0.3160 -2.3596 -0.7554
   17CHL1  H27B 1257   4.042   1.131   8.649  1.4318  1.8880 -0.2399
   17CHL1  H27C 1258   4.021   1.280   8.741 -1.0765 -0.1210  1.2373
   18CHL1    C3 1259   3.611   0.029  10.336  0.2703  0.3755 -0.7267
   18CHL1    H3 1260   3.688   0.100  10.300  0.0232  1.2688  0.4362
   18CHL1    O3 1261   3.616   0.034  10.472 -0.0789  0.0799 -0.2740
   18CHL1   H3' 1262   3.617   0.128  10.494  2.1547 -0.2079  1.1911
   18CHL1    C4 1263   3.474   0.089  10.277 -0.1146 -0.1501  0.4421
   18CHL1   H4A 1264   3.386   0.026  10.303 -0.1195  0.3062  1.5976
   18CHL1   H4B 1265   3.457   0.187  10.327 -1.2082 -0.0110 -0.1662
   18CHL1    C5 1266   3.494   0.091  10.127  0.7000 -0.0478  0.6620
   18CHL1    C6 1267   3.494   0.206  10.055  0.7224 -0.1245  0.4265
   18CHL1    H6 1268   3.474   0.295  10.117  0.3852 -0.5947  0.9876
   18CHL1    C7 1269   3.507   0.219   9.901 -0.1746 -0.0119  0.1158
   18CHL1   H7A 1270   3.438   0.294   9.857  0.1071  0.6233  0.7573
   18CHL1   H7B 1271   3.611   0.253   9.887 -0.3139  1.1459  1.7272
   18CHL1    C8 1272   3.471   0.082   9.834  0.0547 -0.0401  0.3307
   18CHL1    H8 1273   3.366   0.053   9.851  0.5123 -2.9375 -1.1696
   18CHL1   C14 1274   3.495   0.070   9.682  0.2913  0.9499  0.3921
   18CHL1   H14 1275   3.604   0.083   9.662 -0.1046  1.0976 -1.9147
   18CHL1   C15 1276   3.421   0.169   9.589  1.2426 -0.1485  0.0681
   18CHL1  H15A 1277   3.315   0.181   9.622  0.9313  3.2753 -1.6905
   18CHL1  H15B 1278   3.460   0.272   9.577 -0.1413  0.4414  0.4621
   18CHL1   C16 1279   3.425   0.095   9.448 -0.4430  0.2927  0.6663
   18CHL1  H16A 1280   3.320   0.090   9.412 -0.4639 -1.1741  0.8608
   18CHL1  H16B 1281   3.496   0.156   9.387 -2.6073  3.0624  0.7276
   18CHL1   C17 1282   3.481  -0.050   9.469 -0.1443 -0.3957  0.2749
   18CHL1   H17 1283   3.589  -0.044   9.444 -0.0671  4.2955  0.8653
   18CHL1   C13 1284   3.475  -0.066   9.622  0.6145 -0.2130  0.0937
   18CHL1   C18 1285   3.329  -0.122   9.652 -0.2251  0.4922  0.1695
   18CHL1  H18A 1286   3.304  -0.113   9.760  0.9528  1.4577  0.3874
   18CHL1  H18B 1287   3.262  -0.061   9.588  1.0058  2.1434  0.3686
   18CHL1  H18C 1288   3.323  -0.230   9.627 -2.1454  0.4294  0.7478
   18CHL1   C12 1289   3.588  -0.156   9.680  0.3642  0.0459 -0.3916
   18CHL1  H12A 1290   3.588  -0.262   9.646 -1.2385 -0.0062 -0.2994
   18CHL1  H12B 1291   3.684  -0.103   9.660 -0.3631  2.0276  1.0357
   18CHL1   C11 1292   3.564  -0.167   9.829  0.0540 -0.5110 -0.5123
   18CHL1  H11A 1293   3.467  -0.220   9.839  1.5176 -3.3378 -0.2915
   18CHL1  H11B 1294   3.650  -0.225   9.869 -0.7771 -0.1764  1.8669
   18CHL1    C9 1295   3.554  -0.028   9.906 -0.6725  0.7815  0.0002
   18CHL1    H9 1296   3.658   0.011   9.912 -0.3019 -0.3115  1.3102
   18CHL1   C10 1297   3.517  -0.050  10.057 -0.6987 -0.9069  0.4174
   18CHL1   C19 1298   3.399  -0.140  10.067  0.5566  0.2831 -0.1374
   18CHL1  H19A 1299   3.425  -0.245  10.043  1.1216 -0.2849  2.5764
   18CHL1  H19B 1300   3.370  -0.137  10.174 -1.1185  0.9211 -0.5795
   18CHL1  H19C 1301   3.320  -0.100  10.000 -0.6912  2.1611  2.3049
   18CHL1    C1 1302   3.640  -0.123  10.128  0.5602 -0.3261 -0.4849
   18CHL1   H1A 1303   3.655  -0.227  10.092  0.4325 -0.7900  0.7636
   18CHL1   H1B 1304   3.728  -0.070  10.085  0.7100 -1.5133 -1.7039
   18CHL1    C2 1305   3.645  -0.113  10.287  0.1121 -0.6677  0.2671
   18CHL1   H2A 1306   3.746  -0.146  10.320  0.4696 -0.7069 -0.8163
   18CHL1   H2B 1307   3.569  -0.184  10.327 -1.0616  0.4009 -0.0036
   18CHL1   C20 1308   3.427  -0.159   9.372  0.3246  0.3031  0.4440
   18CHL1   H20 1309   3.319  -0.178   9.391  0.6694 -1.1492  1.0855
   18CHL1   C21 1310   3.501  -0.294   9.392  0.5432 -0.2559 -0.4897
   18CHL1  H21A 1311   3.480  -0.345   9.488  2.5852  0.9143  0.6317
   18CHL1  H21B 1312   3.608  -0.273   9.374  0.3336  0.2055 -1.2670
   18CHL1  H21C 1313   3.464  -0.356   9.308 -2.1695  2.0858 -1.2060
   18CHL1   C22 1314   3.433  -0.112   9.220 -0.9583  1.0696 -0.1151
   18CHL1  H22A 1315   3.398  -0.192   9.152  0.8245  0.3674 -0.2586
   18CHL1  H22B 1316   3.362  -0.028   9.201 -0.0280  1.3612 -2.7783
   18CHL1   C23 1317   3.576  -0.073   9.174  0.5212  0.4319  1.1630
   18CHL1  H23A 1318   3.612   0.019   9.226  4.4762 -0.5723  0.5196
   18CHL1  H23B 1319   3.651  -0.151   9.197  0.1092  0.1944  1.7118
   18CHL1   C24 1320   3.584  -0.053   9.018  0.0300  0.1914 -0.8175
   18CHL1  H24A 1321   3.491  -0.011   8.975  0.6127 -0.2730 -2.5939
   18CHL1  H24B 1322   3.677   0.006   9.007  1.6126 -1.7688  1.1315
   18CHL1   C25 1323   3.593  -0.186   8.948  0.7820  0.6189  0.5023
   18CHL1   H25 1324   3.524  -0.262   8.989 -0.5086 -0.5361 -3.3966
   18CHL1   C26 1325   3.560  -0.193   8.802  0.9800  0.1427  0.1856
   18CHL1  H26A 1326   3.637  -0.132   8.750 -1.3446  2.3363 -0.9140
   18CHL1  H26B 1327   3.558  -0.295   8.760  0.9689 -0.4718  1.6149
   18CHL1  H26C 1328   3.465  -0.138   8.784  1.9946  1.3693 -1.7690
   18CHL1   C27 1329   3.737  -0.238   8.956  0.0072  0.3927  0.1647
   18CHL1  H27A 1330   3.742  -0.326   8.888 -0.5266  2.1612 -2.2895
   18CHL1  H27B 1331   3.795  -0.157   8.906 -1.8618  1.0281 -1.0930
   18CHL1  H27C 1332   3.756  -0.252   9.064 -1.1680  1.7919  0.5693
   19CHL1    C3 1333   5.046   3.143   9.996  0.4945 -0.1266 -0.8478
   19CHL1    H3 1334   5.139   3.175   9.944  0.6141  0.3684 -0.3441
   19CHL1    O3 1335   5.062   3.187  10.130  0.0961 -0.1913  0.0468
   19CHL1   H3' 1336   5.145   3.150  10.161 -0.7547 -0.5757  1.9932
   19CHL1    C4 1337   4.915   3.205   9.945 -0.5560  0.1785  0.5519
   19CHL1   H4A 1338   4.827   3.174  10.005 -2.1359  5.2687  1.3646
   19CHL1   H4B 1339   4.910   3.316   9.958  0.1789  0.2361  0.4339
   19CHL1    C5 1340   4.909   3.173   9.796  0.1997  0.6817  0.4070
   19CHL1    C6 1341   4.911   3.256   9.691 -0.3167  0.8789 -0.8511
   19CHL1    H6 1342   4.925   3.361   9.718  0.0640  0.5228  0.4081
   19CHL1    C7 1343   4.903   3.225   9.543  0.1764  0.6090  0.1838
   19CHL1   H7A 1344   4.830   3.290   9.491 -0.3264 -1.1470 -1.3986
   19CHL1   H7B 1345   4.995   3.250   9.485 -0.3167 -2.3495 -2.0963
   19CHL1    C8 1346   4.868   3.077   9.509 -0.3607 -0.8589 -0.7640
   19CHL1    H8 1347   4.761   3.051   9.519 -0.9211  1.0350 -1.4217
   19CHL1   C14 1348   4.912   3.042   9.371  0.0365  0.1149  0.2847
   19CHL1   H14 1349   5.022   3.057   9.374  0.1109  0.2381 -1.7675
   19CHL1   C15 1350   4.853   3.131   9.264 -0.5664  0.5461  0.3857
   19CHL1  H15A 1351   4.747   3.153   9.287  0.7183  3.6502  5.1149
   19CHL1  H15B 1352   4.905   3.230   9.268 -1.1130  0.8204  0.9132
   19CHL1   C16 1353   4.883   3.058   9.132 -0.1462 -0.1536  0.5847
   19CHL1  H16A 1354   4.787   3.056   9.076 -0.3610  0.6150  0.9157
   19CHL1  H16B 1355   4.951   3.106   9.058  2.6690 -1.6993  2.0067
   19CHL1   C17 1356   4.925   2.910   9.167 -0.2579  0.2161  0.8535
   19CHL1   H17 1357   5.036   2.916   9.162 -0.2371 -0.1993 -3.5328
   19CHL1   C13 1358   4.879   2.901   9.317 -0.2909 -0.5619 -0.9021
   19CHL1   C18 1359   4.723   2.869   9.320  0.7090 -0.2494  0.0319
   19CHL1  H18A 1360   4.687   2.865   9.426 -1.0187  0.1470 -0.5104
   19CHL1  H18B 1361   4.675   2.953   9.266 -0.1543  0.2524  1.5078
   19CHL1  H18C 1362   4.696   2.772   9.272  1.8489  0.0495 -1.2611
   19CHL1   C12 1363   4.949   2.804   9.415 -0.9393  0.2174  0.1829
   19CHL1  H12A 1364   4.922   2.698   9.397  0.6794 -0.1599 -0.1541
   19CHL1  H12B 1365   5.058   2.818   9.396 -0.5711 -2.6556 -0.3122
   19CHL1   C11 1366   4.915   2.835   9.566 -0.6111 -0.0224  0.0559
   19CHL1  H11A 1367   4.806   2.814   9.581 -1.1402  2.8937  1.0669
   19CHL1  H11B 1368   4.969   2.761   9.629  1.0826 -0.9239 -2.3160
   19CHL1    C9 1369   4.938   2.983   9.612  0.4700 -0.3317  0.7032
   19CHL1    H9 1370   5.049   2.992   9.603  0.2573  2.1343 -0.1481
   19CHL1   C10 1371   4.911   3.019   9.766  1.2423  0.0713 -0.1921
   19CHL1   C19 1372   4.769   2.962   9.801  0.1496 -0.2785 -0.6113
   19CHL1  H19A 1373   4.744   2.989   9.906 -2.2015  2.0814 -1.6731
   19CHL1  H19B 1374   4.689   3.007   9.737 -0.6078  1.6430  1.5491
   19CHL1  H19C 1375   4.762   2.851   9.792  1.0804 -0.5615  1.5269
   19CHL1    C1 1376   5.015   2.945   9.852  0.3216  0.2345 -0.3200
   19CHL1   H1A 1377   5.011   2.834   9.844  0.3597  0.3107 -1.4840
   19CHL1   H1B 1378   5.110   2.973   9.802  0.4814 -0.5291 -0.4527
   19CHL1    C2 1379   5.029   2.990   9.994 -0.7370  0.1505 -1.1385
   19CHL1   H2A 1380   5.118   2.942  10.041 -1.7991 -1.1572 -0.3812
   19CHL1   H2B 1381   4.948   2.957  10.062  1.3122 -2.0938  0.3984
   19CHL1   C20 1382   4.879   2.805   9.067  0.1889 -0.0229  0.1578
   19CHL1   H20 1383   4.768   2.797   9.063  0.1249  1.1967 -1.2291
   19CHL1   C21 1384   4.935   2.669   9.101 -0.7758 -0.2887  0.2821
   19CHL1  H21A 1385   5.046   2.663   9.106 -0.8598 -1.0653  1.9346
   19CHL1  H21B 1386   4.910   2.585   9.033 -0.4010 -0.9184  0.9032
   19CHL1  H21C 1387   4.890   2.637   9.198 -1.0298 -0.2673  0.1707
   19CHL1   C22 1388   4.909   2.846   8.923  0.1466  0.2104 -0.6304
   19CHL1  H22A 1389   4.860   2.944   8.905  0.2061  0.4854  0.6330
   19CHL1  H22B 1390   5.018   2.846   8.899  0.3546 -0.7264  0.2582
   19CHL1   C23 1391   4.851   2.749   8.818 -0.1439  0.3467 -0.8953
   19CHL1  H23A 1392   4.922   2.663   8.823 -0.0787  0.4331 -0.2525
   19CHL1  H23B 1393   4.750   2.717   8.852 -1.2367  3.3468 -1.0073
   19CHL1   C24 1394   4.849   2.806   8.672  0.1551  0.3914 -0.1101
   19CHL1  H24A 1395   4.773   2.887   8.678  0.1143  0.3060  0.6745
   19CHL1  H24B 1396   4.944   2.855   8.642  0.1192  0.3262 -0.3287
   19CHL1   C25 1397   4.814   2.700   8.567 -0.3160  0.3523  0.6026
   19CHL1   H25 1398   4.720   2.653   8.604  0.1549  0.6110  2.1991
   19CHL1   C26 1399   4.808   2.772   8.433 -0.3728  0.2583 -0.9028
   19CHL1  H26A 1400   4.909   2.792   8.392  0.1196  1.8557  0.9188
   19CHL1  H26B 1401   4.737   2.722   8.363 -1.1421  0.4806 -0.3008
   19CHL1  H26C 1402   4.773   2.876   8.448 -1.1149  0.1099 -1.5003
   19CHL1   C27 1403   4.923   2.591   8.559 -0.0269 -0.3307 -0.7224
   19CHL1  H27A 1404   4.955   2.549   8.657 -1.5065  1.6286  0.6815
   19CHL1  H27B 1405   4.884   2.508   8.497 -1.0850 -0.5508  0.1920
   19CHL1  H27C 1406   5.011   2.638   8.511 -1.0764  0.2582 -2.1306
   20CHL1    C3 1407   1.041   4.558  10.404  0.4565 -0.3360 -0.3133
   20CHL1    H3 1408   0.981   4.648  10.379  0.7347  0.1632  0.7205
   20CHL1    O3 1409   1.067   4.566  10.543  0.1805 -0.2733  0.1620
   20CHL1   H3' 1410   0.985   4.579  10.591  0.8593  0.0665  1.2482
   20CHL1    C4 1411   0.955   4.434  10.373 -0.1956 -0.7736 -0.8000
   20CHL1   H4A 1412   1.013   4.356  10.426 -0.9118  0.2067  1.5551
   20CHL1   H4B 1413   0.852   4.441  10.415 -0.0461 -0.5476 -0.4703
   20CHL1    C5 1414   0.945   4.391  10.229  0.0169 -0.2388  0.4255
   20CHL1    C6 1415   0.829   4.348  10.177 -0.3620  0.1424 -0.7197
   20CHL1    H6 1416   0.738   4.332  10.238 -0.6613  1.8613 -0.6673
   20CHL1    C7 1417   0.808   4.327  10.027 -0.2197  0.2642  0.0203
   20CHL1   H7A 1418   0.734   4.246  10.005 -0.7683  0.1227  2.1419
   20CHL1   H7B 1419   0.753   4.414   9.984  1.4743  0.9139 -0.8988
   20CHL1    C8 1420   0.942   4.303   9.942  0.7403  0.5481 -0.8423
   20CHL1    H8 1421   0.964   4.195   9.958 -1.8618 -0.0290 -0.7196
   20CHL1   C14 1422   0.917   4.329   9.796  0.2496 -0.0766  0.5942
   20CHL1   H14 1423   0.865   4.428   9.802 -0.6713 -0.5813  1.3574
   20CHL1   C15 1424   0.821   4.232   9.726 -0.0189 -0.2791  0.6445
   20CHL1  H15A 1425   0.846   4.125   9.744  0.0557 -0.3378  0.2013
   20CHL1  H15B 1426   0.716   4.251   9.755 -0.3517  0.6771 -1.0606
   20CHL1   C16 1427   0.836   4.272   9.578  0.6668 -0.4945  0.1393
   20CHL1  H16A 1428   0.840   4.179   9.517 -2.4346  0.5527 -1.8797
   20CHL1  H16B 1429   0.750   4.333   9.545 -0.2466 -1.0504  1.4077
   20CHL1   C17 1430   0.965   4.347   9.562 -0.0053  0.4015 -0.5627
   20CHL1   H17 1431   0.950   4.457   9.558  2.4750  0.7997 -0.6694
   20CHL1   C13 1432   1.036   4.335   9.705  0.5658  1.1746 -0.1955
   20CHL1   C18 1433   1.105   4.192   9.701  0.4613  0.5035 -0.4780
   20CHL1  H18A 1434   1.113   4.168   9.810 -0.1579 -0.4325 -0.6240
   20CHL1  H18B 1435   1.053   4.110   9.647  2.5004  0.3558 -2.3328
   20CHL1  H18C 1436   1.201   4.201   9.647 -0.8168  2.6031 -2.5601
   20CHL1   C12 1437   1.125   4.451   9.749 -0.6951 -0.1211 -0.3733
   20CHL1  H12A 1438   1.216   4.463   9.686  1.1821  1.9146  2.4663
   20CHL1  H12B 1439   1.062   4.541   9.740  0.7120  0.9087 -0.2355
   20CHL1   C11 1440   1.166   4.427   9.894 -0.4719  0.0139  0.1051
   20CHL1  H11A 1441   1.232   4.338   9.897 -0.0680  0.2423 -1.1564
   20CHL1  H11B 1442   1.223   4.518   9.921 -3.1130  1.9334 -0.3740
   20CHL1    C9 1443   1.043   4.412   9.988  0.2313  0.7127 -0.2111
   20CHL1    H9 1444   0.986   4.506   9.978 -0.0578  0.4117 -1.5876
   20CHL1   C10 1445   1.076   4.404  10.141  0.0965  0.5417 -0.6472
   20CHL1   C19 1446   1.155   4.278  10.174 -0.7685  0.4424  0.2217
   20CHL1  H19A 1447   1.231   4.293  10.253 -0.7799 -2.4634  0.8741
   20CHL1  H19B 1448   1.089   4.193  10.201 -1.5289  1.1414  0.5995
   20CHL1  H19C 1449   1.204   4.225  10.089 -2.1699 -0.5617 -0.0052
   20CHL1    C1 1450   1.149   4.537  10.174  0.7569 -0.4380  0.3223
   20CHL1   H1A 1451   1.235   4.562  10.110  0.1974  0.3657 -0.1365
   20CHL1   H1B 1452   1.079   4.620  10.149 -0.2971 -1.6338 -0.8671
   20CHL1    C2 1453   1.171   4.566  10.329 -0.4281 -0.0800  0.5539
   20CHL1   H2A 1454   1.209   4.671  10.337  0.4165 -0.3906  0.7447
   20CHL1   H2B 1455   1.241   4.502  10.387  1.4686  1.4403  0.0908
   20CHL1   C20 1456   1.050   4.313   9.440 -0.7114  0.4584 -0.7699
   20CHL1   H20 1457   1.067   4.204   9.448 -1.0620  0.4345 -0.3325
   20CHL1   C21 1458   1.177   4.405   9.429  0.9961  0.2200  0.5594
   20CHL1  H21A 1459   1.262   4.381   9.497  1.5949  0.7427 -0.0057
   20CHL1  H21B 1460   1.153   4.507   9.465  2.5709  0.2180  1.7078
   20CHL1  H21C 1461   1.193   4.425   9.321 -2.5023  2.5657  0.3061
   20CHL1   C22 1462   0.970   4.333   9.314  0.8961 -0.5905  0.7355
   20CHL1  H22A 1463   0.867   4.299   9.340  1.2043 -0.8828  1.6258
   20CHL1  H22B 1464   0.948   4.439   9.288 -1.1845 -1.4181 -1.2130
   20CHL1   C23 1465   1.014   4.254   9.185 -0.3703  0.0706  0.2129
   20CHL1  H23A 1466   1.090   4.313   9.130 -0.7389 -1.1802 -1.7505
   20CHL1  H23B 1467   1.042   4.152   9.219 -0.5311 -0.7123 -1.8794
   20CHL1   C24 1468   0.904   4.229   9.080 -0.2020 -0.0717  0.1765
   20CHL1  H24A 1469   0.826   4.171   9.134 -0.1278 -0.0330  0.3263
   20CHL1  H24B 1470   0.850   4.324   9.059 -0.4493 -0.3721 -0.5567
   20CHL1   C25 1471   0.947   4.169   8.941 -0.3371 -0.1780  0.0238
   20CHL1   H25 1472   1.014   4.083   8.964 -0.6858  0.0724  2.1886
   20CHL1   C26 1473   0.823   4.113   8.866  0.2653 -0.1991  0.2180
   20CHL1  H26A 1474   0.845   4.079   8.763 -0.2276  0.1267  0.0035
   20CHL1  H26B 1475   0.795   4.017   8.915  2.2030 -1.0993 -0.3485
   20CHL1  H26C 1476   0.732   4.177   8.870 -0.1335 -0.5429 -2.0812
   20CHL1   C27 1477   1.025   4.274   8.857  0.3245 -0.2809  0.1637
   20CHL1  H27A 1478   1.048   4.235   8.755 -0.5735 -0.6348  0.0877
   20CHL1  H27B 1479   0.973   4.373   8.852  0.1575 -0.3959 -0.6534
   20CHL1  H27C 1480   1.118   4.305   8.908 -0.9824  0.8084  1.9970
   21CHL1    C3 1481   3.014   0.203  10.312  0.8977 -0.2280  0.1828
   21CHL1    H3 1482   2.973   0.306  10.318  0.1233 -0.5587  0.7951
   21CHL1    O3 1483   3.047   0.182  10.448  0.1184  0.4097  0.2014
   21CHL1   H3' 1484   3.041   0.088  10.462  0.9186  0.3453  0.1598
   21CHL1    C4 1485   2.896   0.104  10.287 -0.1588 -0.2916  0.7611
   21CHL1   H4A 1486   2.945   0.008  10.314 -1.8859 -2.5679 -3.3742
   21CHL1   H4B 1487   2.809   0.124  10.353 -1.1460 -1.1498 -0.2578
   21CHL1    C5 1488   2.851   0.093  10.144  0.1651  0.0804  0.7014
   21CHL1    C6 1489   2.720   0.104  10.107  0.1423  0.4150  0.2065
   21CHL1    H6 1490   2.637   0.120  10.177 -1.3291  0.1304 -1.4074
   21CHL1    C7 1491   2.674   0.082   9.967 -0.1602  0.7659  0.0741
   21CHL1   H7A 1492   2.596   0.003   9.972 -1.3718  1.7373 -2.0563
   21CHL1   H7B 1493   2.633   0.178   9.929 -0.5805  0.8182  0.6486
   21CHL1    C8 1494   2.785   0.032   9.868 -0.3022 -1.0319  0.3996
   21CHL1    H8 1495   2.794  -0.078   9.879 -0.0165 -1.4565 -2.8831
   21CHL1   C14 1496   2.752   0.058   9.719  0.9004  0.0020 -0.6162
   21CHL1   H14 1497   2.744   0.169   9.711  1.7084  0.1317  0.2055
   21CHL1   C15 1498   2.620   0.004   9.663 -0.1002  0.7475  0.0370
   21CHL1  H15A 1499   2.591  -0.098   9.697 -2.7456  1.5487  0.4103
   21CHL1  H15B 1500   2.535   0.064   9.700  0.9605  3.1043 -1.1369
   21CHL1   C16 1501   2.631   0.024   9.510 -0.6372 -0.4686 -0.8082
   21CHL1  H16A 1502   2.583  -0.053   9.445  0.5076 -1.2621 -0.7480
   21CHL1  H16B 1503   2.567   0.112   9.489  1.9837  1.9327  0.6196
   21CHL1   C17 1504   2.784   0.058   9.481  0.5777  0.2005  0.0129
   21CHL1   H17 1505   2.802   0.168   9.477  0.4931  0.3310  2.2006
   21CHL1   C13 1506   2.851   0.017   9.618 -0.8540  0.2940 -0.0019
   21CHL1   C18 1507   2.870  -0.136   9.614  0.3948  0.5737 -0.3330
   21CHL1  H18A 1508   2.877  -0.168   9.721  1.4852  0.6499 -0.3707
   21CHL1  H18B 1509   2.782  -0.192   9.576 -0.0628  2.0227 -1.4887
   21CHL1  H18C 1510   2.958  -0.165   9.553 -1.5694 -1.0322 -2.5692
   21CHL1   C12 1511   2.984   0.100   9.647  0.3303 -0.2349  0.9861
   21CHL1  H12A 1512   3.066   0.103   9.572  1.3402 -0.5643  2.0385
   21CHL1  H12B 1513   2.949   0.205   9.650  1.6039  0.2708 -0.5860
   21CHL1   C11 1514   3.029   0.061   9.787 -0.3834  0.5098  0.7781
   21CHL1  H11A 1515   3.064  -0.045   9.794 -0.4268  0.2000 -2.3767
   21CHL1  H11B 1516   3.122   0.116   9.811 -1.0551  2.0234  0.0341
   21CHL1    C9 1517   2.922   0.097   9.898 -0.7303  0.1069  0.6880
   21CHL1    H9 1518   2.912   0.207   9.884  0.4519  0.2329  0.7692
   21CHL1   C10 1519   2.965   0.070  10.044 -0.2349  0.3847 -1.2194
   21CHL1   C19 1520   3.009  -0.076  10.060 -0.0320 -0.3681  0.3292
   21CHL1  H19A 1521   3.113  -0.086  10.022 -0.0102  0.3175  0.1988
   21CHL1  H19B 1522   3.021  -0.096  10.169  0.1571  0.2983  0.4308
   21CHL1  H19C 1523   2.934  -0.145  10.016 -1.4432  0.1451  1.8265
   21CHL1    C1 1524   3.084   0.165  10.073  0.4239  0.2238  0.3852
   21CHL1   H1A 1525   3.180   0.142  10.022  1.4306  1.8310  1.4340
   21CHL1   H1B 1526   3.045   0.266  10.048 -2.7402 -0.3184  2.5467
   21CHL1    C2 1527   3.128   0.167  10.219  0.3389 -0.1549 -0.9926
   21CHL1   H2A 1528   3.217   0.231  10.237  1.0587 -1.4748  0.4466
   21CHL1   H2B 1529   3.163   0.065  10.248  0.6076  0.5462  1.3285
   21CHL1   C20 1530   2.831  -0.014   9.347  0.1515 -0.0054  0.4863
   21CHL1   H20 1531   2.811  -0.120   9.372 -1.6616  0.3712  0.7824
   21CHL1   C21 1532   2.971   0.028   9.323 -0.7750 -0.5861 -0.1501
   21CHL1  H21A 1533   2.976   0.139   9.327 -1.6457 -0.5757  1.2026
   21CHL1  H21B 1534   3.014   0.012   9.222  0.0617  1.7016 -0.2249
   21CHL1  H21C 1535   3.038  -0.013   9.401 -1.1358  1.7534  1.4821
   21CHL1   C22 1536   2.747   0.021   9.219  0.4388 -0.1336  0.7047
   21CHL1  H22A 1537   2.640   0.023   9.248  0.5783 -0.6209  1.2781
   21CHL1  H22B 1538   2.783   0.125   9.203 -1.5812  0.4099 -0.5999
   21CHL1   C23 1539   2.757  -0.086   9.106  0.3411 -0.0395 -0.0485
   21CHL1  H23A 1540   2.856  -0.080   9.056 -0.7388 -0.5648 -2.3778
   21CHL1  H23B 1541   2.747  -0.185   9.156 -0.3154  0.7402  1.4292
   21CHL1   C24 1542   2.642  -0.087   8.995  0.1598  0.3572 -0.0028
   21CHL1  H24A 1543   2.616  -0.193   8.978 -0.2145  0.4678 -0.1169
   21CHL1  H24B 1544   2.549  -0.054   9.045 -0.9688 -0.3467 -1.5758
   21CHL1   C25 1545   2.674  -0.023   8.859  0.1194  0.1176  0.3269
   21CHL1   H25 1546   2.755  -0.084   8.815 -0.2591 -1.3584  1.6071
   21CHL1   C26 1547   2.563  -0.048   8.744  0.0602 -0.2696  0.3959
   21CHL1  H26A 1548   2.540  -0.157   8.743  0.8566 -0.4488 -0.4506
   21CHL1  H26B 1549   2.467  -0.007   8.782 -1.6766 -2.1926 -1.6189
   21CHL1  H26C 1550   2.594   0.001   8.649  1.1092  0.0313  0.8790
   21CHL1   C27 1551   2.718   0.125   8.873  0.5017 -0.4459 -0.6254
   21CHL1  H27A 1552   2.797   0.136   8.950  0.2152 -1.0635 -0.2424
   21CHL1  H27B 1553   2.760   0.165   8.778  1.6321  0.2750  0.1473
   21CHL1  H27C 1554   2.635   0.191   8.907  1.8599  0.6937  0.6317
   22CHL1    C3 1555   2.882   0.945   9.956 -0.1801  0.8333  0.6860
   22CHL1    H3 1556   2.785   0.893   9.937  0.8556 -1.1440  0.6018
   22CHL1    O3 1557   2.921   0.912  10.088  0.0565  0.4728  0.1925
   22CHL1   H3' 1558   2.854   0.956  10.141 -0.3899  0.6824 -0.5359
   22CHL1    C4 1559   2.986   0.885   9.862  0.4700  0.2947  0.1476
   22CHL1   H4A 1560   3.092   0.900   9.892  0.6492 -0.5260 -0.0560
   22CHL1   H4B 1561   2.990   0.774   9.859  2.6940  0.3081  0.7914
   22CHL1    C5 1562   2.959   0.934   9.720 -0.3398  0.6025  0.3614
   22CHL1    C6 1563   2.920   0.847   9.623  0.3678  1.1763  0.3428
   22CHL1    H6 1564   2.923   0.738   9.638 -1.6390  0.6479 -2.2229
   22CHL1    C7 1565   2.893   0.892   9.481  0.4315 -0.0077 -0.8820
   22CHL1   H7A 1566   2.923   0.814   9.407 -0.1014 -1.0508 -0.0372
   22CHL1   H7B 1567   2.783   0.905   9.476  0.7142  2.7362 -1.5748
   22CHL1    C8 1568   2.960   1.023   9.454 -0.1421  0.6592 -0.2891
   22CHL1    H8 1569   3.071   1.020   9.455 -0.0693  2.3638 -0.9307
   22CHL1   C14 1570   2.907   1.056   9.315 -0.4790  0.4657  0.0564
   22CHL1   H14 1571   2.797   1.052   9.331 -0.5385 -0.8008 -0.5688
   22CHL1   C15 1572   2.934   0.956   9.199  0.0682  0.4162 -0.2319
   22CHL1  H15A 1573   3.039   0.925   9.181  0.2944  1.6751 -1.2107
   22CHL1  H15B 1574   2.859   0.875   9.216  0.1724  0.2941 -0.3524
   22CHL1   C16 1575   2.882   1.040   9.079 -0.0281 -0.5142 -0.1184
   22CHL1  H16A 1576   2.956   1.025   8.998  1.1199  0.4027  0.7125
   22CHL1  H16B 1577   2.781   1.016   9.042  0.0748 -1.9236  0.4615
   22CHL1   C17 1578   2.884   1.191   9.127  0.3260 -0.3532  0.0927
   22CHL1   H17 1579   2.777   1.207   9.152 -0.2980 -0.8769 -2.0586
   22CHL1   C13 1580   2.959   1.191   9.268 -0.1629 -0.3063  0.2741
   22CHL1   C18 1581   3.111   1.196   9.259 -0.1844  0.4086  0.0899
   22CHL1  H18A 1582   3.157   1.114   9.200  2.4988  1.2587  0.8782
   22CHL1  H18B 1583   3.141   1.296   9.222 -0.0563  0.3457  0.0244
   22CHL1  H18C 1584   3.158   1.189   9.360 -1.3914 -2.3888  0.5553
   22CHL1   C12 1585   2.911   1.303   9.368  0.2941  0.0496  0.2829
   22CHL1  H12A 1586   2.954   1.401   9.339  2.1644 -0.6185  0.6310
   22CHL1  H12B 1587   2.800   1.304   9.362  0.3645 -0.2786 -1.6003
   22CHL1   C11 1588   2.948   1.269   9.518 -0.0324 -0.0654  1.4427
   22CHL1  H11A 1589   3.059   1.261   9.517 -0.1700 -3.1714  0.3385
   22CHL1  H11B 1590   2.900   1.349   9.577 -0.0524  0.3272  0.9055
   22CHL1    C9 1591   2.910   1.120   9.560  0.3934 -0.3656 -0.4524
   22CHL1    H9 1592   2.800   1.109   9.564  0.5258 -1.2580  1.9604
   22CHL1   C10 1593   2.952   1.087   9.702  0.0858  0.3289 -1.0649
   22CHL1   C19 1594   3.101   1.125   9.741 -0.7363 -0.1019 -0.3293
   22CHL1  H19A 1595   3.174   1.083   9.668  0.0651  0.2630  0.2412
   22CHL1  H19B 1596   3.117   1.235   9.737  0.3677 -0.2147  0.7126
   22CHL1  H19C 1597   3.134   1.082   9.837 -0.4303  0.3023 -0.2469
   22CHL1    C1 1598   2.853   1.145   9.811  1.0561 -0.6649  0.4877
   22CHL1   H1A 1599   2.866   1.255   9.802  0.9973 -0.7027 -0.0990
   22CHL1   H1B 1600   2.748   1.140   9.773  2.1256  0.0189 -2.8541
   22CHL1    C2 1601   2.876   1.098   9.952  0.1602 -0.8906  0.1818
   22CHL1   H2A 1602   2.798   1.138  10.021 -0.9927  1.8650 -2.4736
   22CHL1   H2B 1603   2.972   1.140   9.988 -1.1117  2.2903  0.1500
   22CHL1   C20 1604   2.914   1.293   9.014 -0.2515 -0.3285  0.6275
   22CHL1   H20 1605   3.025   1.297   9.011 -0.3112  1.2652 -0.0005
   22CHL1   C21 1606   2.873   1.429   9.064 -0.0262 -0.8240 -0.3034
   22CHL1  H21A 1607   2.843   1.505   8.988  2.8191  2.3748  1.5209
   22CHL1  H21B 1608   2.960   1.478   9.112 -0.6009 -0.5065  0.4228
   22CHL1  H21C 1609   2.799   1.429   9.147  0.8026 -0.5887  0.4379
   22CHL1   C22 1610   2.856   1.258   8.871  0.2439 -0.4070  0.4575
   22CHL1  H22A 1611   2.875   1.156   8.831 -0.2599 -0.1552 -0.4378
   22CHL1  H22B 1612   2.746   1.256   8.886 -0.8949  1.6927 -5.2085
   22CHL1   C23 1613   2.887   1.356   8.755  0.2711 -0.5866  0.0570
   22CHL1  H23A 1614   2.839   1.316   8.663 -0.6753 -1.3896  0.8726
   22CHL1  H23B 1615   2.835   1.450   8.783  1.1152 -0.2741  0.6323
   22CHL1   C24 1616   3.038   1.374   8.738 -0.3614 -0.0799  0.3023
   22CHL1  H24A 1617   3.096   1.375   8.833 -1.6826 -0.6180  1.1581
   22CHL1  H24B 1618   3.066   1.290   8.671 -1.1934  1.5653 -2.2379
   22CHL1   C25 1619   3.071   1.501   8.665  0.0909 -0.0500 -0.0330
   22CHL1   H25 1620   2.993   1.575   8.693 -0.0183 -1.0767  2.5852
   22CHL1   C26 1621   3.208   1.554   8.707 -0.4215  0.0590 -0.2568
   22CHL1  H26A 1622   3.231   1.635   8.634 -0.7196  1.2941  0.9772
   22CHL1  H26B 1623   3.207   1.589   8.812 -0.1155  2.1731 -0.9089
   22CHL1  H26C 1624   3.283   1.472   8.708 -1.3888 -0.8475 -0.2574
   22CHL1   C27 1625   3.076   1.475   8.513  0.1260 -0.5036  0.2655
   22CHL1  H27A 1626   3.158   1.407   8.481  0.7037  0.5206 -0.4571
   22CHL1  H27B 1627   2.981   1.434   8.472 -0.4478  2.2145 -1.3333
   22CHL1  H27C 1628   3.095   1.573   8.466  0.4159 -0.6414  0.0944
   23CHL1    C3 1629   4.308   2.243  10.089  0.6949 -0.2376 -0.9244
   23CHL1    H3 1630   4.411   2.272  10.060  1.2350 -0.2667  0.8889
   23CHL1    O3 1631   4.287   2.262  10.224  0.1719  0.6362  0.1992
   23CHL1   H3' 1632   4.202   2.225  10.247 -0.2679  1.7838  0.4599
   23CHL1    C4 1633   4.213   2.327  10.009 -0.3336  0.0250 -0.7205
   23CHL1   H4A 1634   4.111   2.310  10.049  0.0091 -1.0260 -0.2354
   23CHL1   H4B 1635   4.240   2.430  10.039 -0.7519 -0.3901  1.2084
   23CHL1    C5 1636   4.209   2.303   9.861  0.1336  0.4993 -0.6527
   23CHL1    C6 1637   4.219   2.405   9.772 -0.0434 -0.0425  0.3373
   23CHL1    H6 1638   4.227   2.510   9.804 -0.0929 -0.2138  0.9273
   23CHL1    C7 1639   4.223   2.388   9.621 -0.7778 -0.7522 -0.5712
   23CHL1   H7A 1640   4.141   2.449   9.575 -0.0099 -0.4060 -1.5177
   23CHL1   H7B 1641   4.324   2.411   9.583 -0.2192 -0.1037  1.2111
   23CHL1    C8 1642   4.174   2.249   9.576 -0.1956 -0.5456 -0.5235
   23CHL1    H8 1643   4.064   2.248   9.596 -0.0234 -0.4049  0.4745
   23CHL1   C14 1644   4.198   2.237   9.423  0.5288 -0.0820 -0.1153
   23CHL1   H14 1645   4.308   2.240   9.409  0.6606 -0.7214  0.6900
   23CHL1   C15 1646   4.152   2.337   9.314  0.1399 -0.1068 -0.5237
   23CHL1  H15A 1647   4.045   2.367   9.318  0.8872  2.7509  3.0047
   23CHL1  H15B 1648   4.215   2.428   9.308 -0.6993  0.4164 -4.1440
   23CHL1   C16 1649   4.177   2.257   9.179  0.3346 -0.3643  0.2006
   23CHL1  H16A 1650   4.083   2.270   9.120 -0.1854  0.0617  1.1054
   23CHL1  H16B 1651   4.252   2.304   9.111  0.8337  0.4690  1.2989
   23CHL1   C17 1652   4.217   2.112   9.224 -0.0195 -0.6900  0.7165
   23CHL1   H17 1653   4.327   2.123   9.235 -0.0624 -0.0139  0.4953
   23CHL1   C13 1654   4.167   2.100   9.368 -0.3823  0.6284  0.1501
   23CHL1   C18 1655   4.016   2.087   9.359  0.2360 -0.3279  0.5500
   23CHL1  H18A 1656   3.982   1.984   9.335  0.1741 -0.5458  1.5446
   23CHL1  H18B 1657   3.976   2.115   9.459 -2.4459 -0.7394 -0.3341
   23CHL1  H18C 1658   3.968   2.155   9.285 -0.4231 -0.2672  1.0219
   23CHL1   C12 1659   4.238   1.991   9.445  0.8743  0.1824 -0.0553
   23CHL1  H12A 1660   4.214   1.888   9.410 -0.7152  0.4200  0.2634
   23CHL1  H12B 1661   4.344   2.021   9.428  0.5826  1.6628  0.5778
   23CHL1   C11 1662   4.209   2.001   9.598  0.0778  0.1048 -0.4217
   23CHL1  H11A 1663   4.103   1.974   9.615  0.7375 -0.8042  3.2354
   23CHL1  H11B 1664   4.274   1.924   9.644 -0.9456 -0.6023 -0.1347
   23CHL1    C9 1665   4.237   2.139   9.664 -0.2911 -0.2386  0.0545
   23CHL1    H9 1666   4.345   2.154   9.643 -0.6470  1.4926 -0.6952
   23CHL1   C10 1667   4.195   2.157   9.815 -0.3146 -0.9839 -0.1263
   23CHL1   C19 1668   4.053   2.094   9.844  0.6523  0.1079  0.6296
   23CHL1  H19A 1669   3.971   2.128   9.776  1.1588  1.5695  0.7015
   23CHL1  H19B 1670   4.050   1.984   9.831 -2.4620 -0.4539  4.4968
   23CHL1  H19C 1671   4.020   2.098   9.950 -1.9608  0.1655 -0.1175
   23CHL1    C1 1672   4.290   2.068   9.904  0.0918  0.7522 -0.5528
   23CHL1   H1A 1673   4.254   1.966   9.878 -2.2798  0.5213  2.9351
   23CHL1   H1B 1674   4.393   2.079   9.863  0.7002 -3.6871 -0.8083
   23CHL1    C2 1675   4.290   2.092  10.064  0.3507  1.1790  0.3395
   23CHL1   H2A 1676   4.374   2.038  10.114 -0.2579 -0.3739 -0.2427
   23CHL1   H2B 1677   4.191   2.063  10.105 -0.5267 -0.7284 -2.8039
   23CHL1   C20 1678   4.200   2.001   9.115  0.0857 -0.2953  0.2712
   23CHL1   H20 1679   4.103   1.949   9.131  1.2757 -2.6066  0.4235
   23CHL1   C21 1680   4.304   1.898   9.152 -0.7917  0.0748 -0.5321
   23CHL1  H21A 1681   4.268   1.828   9.230  0.4772 -1.0423 -0.9093
   23CHL1  H21B 1682   4.401   1.940   9.186 -1.3807  2.1521 -1.2999
   23CHL1  H21C 1683   4.322   1.830   9.066 -2.1197  0.8533 -1.4578
   23CHL1   C22 1684   4.211   2.042   8.960 -0.8858 -0.5165  0.7112
   23CHL1  H22A 1685   4.137   2.124   8.944  0.6894  1.1364  1.5224
   23CHL1  H22B 1686   4.312   2.079   8.933 -1.5437  0.9621  0.1904
   23CHL1   C23 1687   4.178   1.922   8.867 -0.1226  0.4151  0.4841
   23CHL1  H23A 1688   4.236   1.830   8.888 -1.5236 -0.4143  0.8876
   23CHL1  H23B 1689   4.074   1.898   8.899 -0.4756  2.0106  0.6238
   23CHL1   C24 1690   4.195   1.962   8.721  0.4017  0.0496  0.3485
   23CHL1  H24A 1691   4.139   2.058   8.711 -2.0758 -1.4211 -0.8370
   23CHL1  H24B 1692   4.300   1.989   8.699 -0.0120  0.2901 -1.5098
   23CHL1   C25 1693   4.139   1.865   8.617 -0.4959  0.4931 -0.3003
   23CHL1   H25 1694   4.032   1.842   8.637 -0.9273  0.9966 -1.8534
   23CHL1   C26 1695   4.149   1.925   8.475 -0.0964  0.8674 -0.3205
   23CHL1  H26A 1696   4.246   1.978   8.460  0.8293 -0.9221 -0.9699
   23CHL1  H26B 1697   4.134   1.849   8.395 -0.5104  0.4965  0.1037
   23CHL1  H26C 1698   4.071   2.001   8.452 -1.0891 -0.2472 -0.7991
   23CHL1   C27 1699   4.221   1.733   8.623 -0.3954 -0.0045  0.1240
   23CHL1  H27A 1700   4.327   1.744   8.592 -1.1984  2.0222 -2.2336
   23CHL1  H27B 1701   4.195   1.694   8.723  0.8377  0.9368  0.8312
   23CHL1  H27C 1702   4.181   1.662   8.547  1.2821 -0.6808 -0.1862
   24CHL1    C3 1703   5.416   3.389  10.169 -0.0947 -0.3945  0.8522
   24CHL1    H3 1704   5.362   3.292  10.182  1.7412 -1.8127 -1.3972
   24CHL1    O3 1705   5.469   3.415  10.302  0.2842  0.0117  0.2484
   24CHL1   H3' 1706   5.401   3.469  10.344 -0.2523  0.2284 -0.8520
   24CHL1    C4 1707   5.521   3.353  10.052  0.7609 -0.3129 -0.0995
   24CHL1   H4A 1708   5.584   3.445  10.050  0.8631 -0.3770  0.1317
   24CHL1   H4B 1709   5.596   3.280  10.091  1.4954  0.8203  0.6670
   24CHL1    C5 1710   5.451   3.333   9.914  0.3485  0.7053 -0.0139
   24CHL1    C6 1711   5.451   3.215   9.855  0.0737  0.2638 -0.0132
   24CHL1    H6 1712   5.528   3.147   9.896  1.0991  2.0070  1.1110
   24CHL1    C7 1713   5.403   3.199   9.711  0.8559 -0.2561 -0.2872
   24CHL1   H7A 1714   5.474   3.144   9.646  1.5418  0.6189 -0.2956
   24CHL1   H7B 1715   5.308   3.141   9.713  0.0421  1.0129 -0.4398
   24CHL1    C8 1716   5.377   3.331   9.638  0.4519 -0.6801  0.3315
   24CHL1    H8 1717   5.474   3.383   9.620  0.7224 -1.5189 -0.7158
   24CHL1   C14 1718   5.301   3.315   9.509  0.3223 -0.6156 -0.1967
   24CHL1   H14 1719   5.200   3.277   9.534  0.6751 -0.8209  0.9596
   24CHL1   C15 1720   5.364   3.228   9.405 -0.7844  0.9141 -0.0929
   24CHL1  H15A 1721   5.475   3.238   9.404 -0.6215 -0.3830  1.5329
   24CHL1  H15B 1722   5.350   3.120   9.426  0.6881  1.0164  1.6161
   24CHL1   C16 1723   5.310   3.266   9.265 -0.2767  0.6660 -0.6007
   24CHL1  H16A 1724   5.396   3.309   9.209  0.0713  1.5715  0.6097
   24CHL1  H16B 1725   5.250   3.180   9.227 -1.1864  0.3184  1.4682
   24CHL1   C17 1726   5.216   3.389   9.301  0.2522  0.2991 -0.8644
   24CHL1   H17 1727   5.112   3.356   9.320  0.4660 -0.8817 -1.6220
   24CHL1   C13 1728   5.273   3.449   9.431  0.0761  0.2831 -0.3440
   24CHL1   C18 1729   5.400   3.533   9.408 -0.8484 -0.3821  0.1647
   24CHL1  H18A 1730   5.380   3.640   9.384  0.3148 -0.1722  0.0759
   24CHL1  H18B 1731   5.471   3.532   9.494  1.2390 -1.5017 -1.4503
   24CHL1  H18C 1732   5.456   3.499   9.318 -2.4149  1.6602 -1.6935
   24CHL1   C12 1733   5.174   3.526   9.521  0.0650 -0.5958 -0.0651
   24CHL1  H12A 1734   5.133   3.621   9.482  0.7282 -0.4589 -0.4378
   24CHL1  H12B 1735   5.096   3.447   9.524  1.0966 -1.6442 -0.2193
   24CHL1   C11 1736   5.231   3.545   9.657 -0.2900 -0.0252 -0.2252
   24CHL1  H11A 1737   5.305   3.627   9.640  2.7721 -2.5400 -0.0079
   24CHL1  H11B 1738   5.148   3.581   9.721  0.8549  0.7011  0.8992
   24CHL1    C9 1739   5.289   3.413   9.732  0.2891 -0.6761 -0.2996
   24CHL1    H9 1740   5.202   3.347   9.754  1.2092 -1.4951  1.0033
   24CHL1   C10 1741   5.362   3.449   9.859 -0.2029  0.1109  0.4210
   24CHL1   C19 1742   5.464   3.559   9.826  0.0111 -0.4418 -0.3191
   24CHL1  H19A 1743   5.538   3.593   9.902  0.9361 -0.3728 -1.2253
   24CHL1  H19B 1744   5.535   3.535   9.744 -0.7543 -0.4836 -0.9714
   24CHL1  H19C 1745   5.417   3.658   9.810  0.6135 -0.3403 -1.5710
   24CHL1    C1 1746   5.258   3.484   9.978  1.0114 -0.1464 -1.1967
   24CHL1   H1A 1747   5.202   3.577   9.956  1.3086 -0.2009 -2.2734
   24CHL1   H1B 1748   5.198   3.401  10.019  1.2306  0.3909  0.2917
   24CHL1    C2 1749   5.333   3.512  10.114  0.3608  0.1186  0.5222
   24CHL1   H2A 1750   5.252   3.530  10.188 -0.4554 -1.5756  0.1054
   24CHL1   H2B 1751   5.396   3.602  10.100 -1.3153  1.2629 -0.0015
   24CHL1   C20 1752   5.205   3.486   9.179 -0.1861  0.9783 -0.8145
   24CHL1   H20 1753   5.303   3.536   9.165  0.5591 -0.4359 -0.8848
   24CHL1   C21 1754   5.106   3.594   9.215  0.8037 -0.3874 -0.3615
   24CHL1  H21A 1755   5.140   3.685   9.269  0.0871  0.3474 -1.1270
   24CHL1  H21B 1756   5.016   3.550   9.264 -0.9601  1.9680 -1.3077
   24CHL1  H21C 1757   5.058   3.636   9.124 -0.3450 -1.6783 -0.3839
   24CHL1   C22 1758   5.165   3.413   9.050 -0.3082 -0.3133 -0.5667
   24CHL1  H22A 1759   5.109   3.321   9.079 -0.7844 -0.3369 -1.5145
   24CHL1  H22B 1760   5.088   3.476   9.001 -1.0372 -0.4062  0.4311
   24CHL1   C23 1761   5.289   3.367   8.964  0.4311 -0.9582 -0.2054
   24CHL1  H23A 1762   5.364   3.441   9.000  0.7846 -1.2650 -0.3079
   24CHL1  H23B 1763   5.316   3.266   9.001  2.0357 -1.7370 -3.2222
   24CHL1   C24 1764   5.260   3.370   8.812 -0.4823  0.6335  0.0919
   24CHL1  H24A 1765   5.225   3.473   8.789 -0.9868  0.2720 -0.7975
   24CHL1  H24B 1766   5.355   3.351   8.759 -0.4692 -4.1658  1.3553
   24CHL1   C25 1767   5.146   3.276   8.759 -0.6346  0.3533  0.2351
   24CHL1   H25 1768   5.055   3.300   8.818  0.2029 -0.3571  1.8806
   24CHL1   C26 1769   5.120   3.306   8.607 -0.2809 -0.2544 -0.2190
   24CHL1  H26A 1770   5.034   3.243   8.575  0.1981 -1.6289  1.0831
   24CHL1  H26B 1771   5.099   3.414   8.617  1.0381  0.0095 -0.1259
   24CHL1  H26C 1772   5.215   3.307   8.549 -0.7720 -0.6170 -1.0518
   24CHL1   C27 1773   5.159   3.122   8.793  0.5915 -0.4987  0.5464
   24CHL1  H27A 1774   5.260   3.092   8.758 -0.3245  0.6121 -3.6370
   24CHL1  H27B 1775   5.151   3.097   8.901 -1.1844  1.3017  0.8936
   24CHL1  H27C 1776   5.085   3.057   8.742 -0.5105  1.7528 -0.8859
   25CHL1    C3 1777   0.279   5.014  10.296  0.1457 -0.1015  0.0923
   25CHL1    H3 1778   0.352   4.933  10.316 -1.7493 -2.3518 -1.5685
   25CHL1    O3 1779   0.242   5.053  10.428 -0.0142 -0.7320  1.0163
   25CHL1   H3' 1780   0.164   5.108  10.415 -0.0362 -0.9528  0.1807
   25CHL1    C4 1781   0.328   5.130  10.221 -0.1265 -0.1706  0.2353
   25CHL1   H4A 1782   0.258   5.214  10.242  0.8630  0.7615 -0.0542
   25CHL1   H4B 1783   0.426   5.160  10.263  1.1085  1.9795 -3.6340
   25CHL1    C5 1784   0.356   5.104  10.074 -0.3991 -0.3228 -0.0773
   25CHL1    C6 1785   0.476   5.126  10.023 -0.0891  0.0501  0.3819
   25CHL1    H6 1786   0.566   5.167  10.072  0.3645  2.0075 -1.9296
   25CHL1    C7 1787   0.502   5.111   9.876 -0.3945  0.4314 -0.1820
   25CHL1   H7A 1788   0.558   5.196   9.832 -0.7792  0.2282 -1.0775
   25CHL1   H7B 1789   0.557   5.015   9.860  0.0587  0.7617 -0.6205
   25CHL1    C8 1790   0.372   5.085   9.792 -0.2390  0.2557  0.3926
   25CHL1    H8 1791   0.330   5.187   9.788  2.7706  1.5654 -0.4060
   25CHL1   C14 1792   0.406   5.026   9.654  0.1079 -0.4171  0.5173
   25CHL1   H14 1793   0.446   4.924   9.670  0.7614  0.0141  1.8601
   25CHL1   C15 1794   0.516   5.098   9.573  0.6656 -0.0622 -0.3026
   25CHL1  H15A 1795   0.518   5.209   9.578  4.1827  0.1387 -2.5241
   25CHL1  H15B 1796   0.617   5.064   9.604 -0.1078 -4.8596 -2.1040
   25CHL1   C16 1797   0.484   5.063   9.423 -0.1260  0.2661  0.7057
   25CHL1  H16A 1798   0.475   5.165   9.378  0.0968  0.4519  1.0749
   25CHL1  H16B 1799   0.566   5.004   9.377  0.8637  1.2960  1.0852
   25CHL1   C17 1800   0.350   4.984   9.420  0.1718 -0.3921  0.0611
   25CHL1   H17 1801   0.365   4.874   9.420 -0.8832 -0.5599  1.1834
   25CHL1   C13 1802   0.281   5.013   9.563 -0.3941  0.0354  0.4022
   25CHL1   C18 1803   0.205   5.144   9.549 -0.2590  0.1482  0.4209
   25CHL1  H18A 1804   0.113   5.142   9.486  0.4328  1.5982 -0.7080
   25CHL1  H18B 1805   0.161   5.168   9.648 -2.1347  0.3948 -0.4313
   25CHL1  H18C 1806   0.274   5.225   9.516  2.8347 -1.9638  1.2741
   25CHL1   C12 1807   0.203   4.901   9.627  0.2636  0.4580  0.1157
   25CHL1  H12A 1808   0.116   4.876   9.564 -0.9799  0.7790  1.6346
   25CHL1  H12B 1809   0.276   4.818   9.641  0.2840  0.7423  1.9137
   25CHL1   C11 1810   0.159   4.935   9.769  0.2824 -0.2834  0.0085
   25CHL1  H11A 1811   0.073   5.005   9.760  2.5133  2.6488 -0.1427
   25CHL1  H11B 1812   0.118   4.839   9.806 -0.3740 -0.1066 -0.2365
   25CHL1    C9 1813   0.272   4.994   9.855  0.9155  0.2195  0.1729
   25CHL1    H9 1814   0.329   4.902   9.879  1.6266  0.8693  1.0585
   25CHL1   C10 1815   0.233   5.047   9.992  0.2123  0.8977 -0.0835
   25CHL1   C19 1816   0.131   5.162   9.969 -0.2107  0.6136 -0.1082
   25CHL1  H19A 1817   0.175   5.248   9.914  0.7466  1.3656  1.7318
   25CHL1  H19B 1818   0.046   5.111   9.919 -0.9094 -0.2644  1.8367
   25CHL1  H19C 1819   0.091   5.208  10.062 -1.9394 -0.6009 -0.2038
   25CHL1    C1 1820   0.172   4.931  10.076  0.2468 -0.2822  0.2304
   25CHL1   H1A 1821   0.070   4.913  10.036 -0.6330  0.6912  1.9054
   25CHL1   H1B 1822   0.234   4.841  10.060  0.1806 -0.1275 -0.9339
   25CHL1    C2 1823   0.155   4.957  10.226 -0.3772  0.3747  0.9177
   25CHL1   H2A 1824   0.129   4.861  10.275  0.2460 -0.9496 -1.2189
   25CHL1   H2B 1825   0.070   5.028  10.231 -0.8296 -0.1791  1.3530
   25CHL1   C20 1826   0.272   5.008   9.291 -0.0584 -0.0986  0.5383
   25CHL1   H20 1827   0.256   5.118   9.291  2.5708  0.3740  2.4130
   25CHL1   C21 1828   0.136   4.940   9.289  0.1417 -0.1759  0.0952
   25CHL1  H21A 1829   0.080   4.958   9.195  2.4585  2.2235 -0.9717
   25CHL1  H21B 1830   0.071   4.954   9.377 -2.4221 -1.3495 -1.4834
   25CHL1  H21C 1831   0.152   4.830   9.290  2.8144  0.1378 -0.0857
   25CHL1   C22 1832   0.346   4.971   9.161  0.3869 -1.1111 -0.8160
   25CHL1  H22A 1833   0.455   4.971   9.179  0.1409 -3.7578  1.2861
   25CHL1  H22B 1834   0.315   4.869   9.131 -2.8307  0.0341 -1.7763
   25CHL1   C23 1835   0.309   5.068   9.050  0.0170 -0.3071 -0.5747
   25CHL1  H23A 1836   0.201   5.060   9.023  0.0834  1.3083 -1.4271
   25CHL1  H23B 1837   0.324   5.174   9.081 -2.5799  0.2303 -0.8887
   25CHL1   C24 1838   0.382   5.057   8.917 -0.0617 -0.3252 -0.1012
   25CHL1  H24A 1839   0.338   5.133   8.849 -1.0425  0.2501  1.1228
   25CHL1  H24B 1840   0.492   5.070   8.927 -0.0265 -1.2483  0.8040
   25CHL1   C25 1841   0.356   4.926   8.844 -0.2629 -0.3035  1.0921
   25CHL1   H25 1842   0.389   4.846   8.914 -3.1309  0.1796  3.1836
   25CHL1   C26 1843   0.209   4.911   8.785  0.5284 -0.3007 -0.3095
   25CHL1  H26A 1844   0.168   4.989   8.717 -1.7199 -1.0427  0.1198
   25CHL1  H26B 1845   0.200   4.817   8.727  1.0245 -0.0799 -0.7541
   25CHL1  H26C 1846   0.132   4.909   8.865  0.1659 -2.8022 -0.6547
   25CHL1   C27 1847   0.454   4.919   8.729 -0.0397  0.4767  0.1155
   25CHL1  H27A 1848   0.468   4.809   8.721  2.7191  0.5035  2.7450
   25CHL1  H27B 1849   0.418   4.969   8.636  1.6477  1.2256 -0.1741
   25CHL1  H27C 1850   0.555   4.960   8.750  0.8263 -1.2364 -0.5368
   26CHL1    C3 1851   0.854   6.352  10.337 -0.5136  0.6081 -0.4475
   26CHL1    H3 1852   0.850   6.241  10.333  2.3895  0.4139 -0.1497
   26CHL1    O3 1853   0.853   6.388  10.472 -0.3821 -0.4750  0.1645
   26CHL1   H3' 1854   0.773   6.441  10.476 -1.0992 -1.5293  0.1582
   26CHL1    C4 1855   0.978   6.396  10.260 -0.5183 -0.1669  0.2348
   26CHL1   H4A 1856   0.977   6.501  10.295  0.5011 -0.6429  1.8540
   26CHL1   H4B 1857   1.074   6.353  10.297 -0.6952 -1.9452 -1.2191
   26CHL1    C5 1858   0.970   6.387  10.112  0.8112 -1.1791 -0.0408
   26CHL1    C6 1859   1.052   6.307  10.035  0.9025 -1.0159 -0.1104
   26CHL1    H6 1860   1.137   6.254  10.083  1.3306 -0.6547 -0.4573
   26CHL1    C7 1861   1.042   6.304   9.883 -0.7465 -0.6920  0.1640
   26CHL1   H7A 1862   1.143   6.298   9.839 -1.0076 -3.7818 -0.1943
   26CHL1   H7B 1863   0.992   6.209   9.855 -0.2900 -0.7456 -0.4717
   26CHL1    C8 1864   0.954   6.416   9.819 -0.1199 -0.1118  0.6431
   26CHL1    H8 1865   1.012   6.510   9.833 -2.0998  1.4900 -1.2217
   26CHL1   C14 1866   0.930   6.378   9.675 -0.0605  0.5357  0.5033
   26CHL1   H14 1867   0.861   6.291   9.677 -0.4043  0.6391 -2.6061
   26CHL1   C15 1868   1.039   6.325   9.582  0.5997 -0.0459 -0.4115
   26CHL1  H15A 1869   1.137   6.372   9.604  0.0635  1.3240 -0.8903
   26CHL1  H15B 1870   1.038   6.215   9.599 -0.0257  0.0531  0.1908
   26CHL1   C16 1871   0.985   6.344   9.436  0.1128  0.3285 -0.8196
   26CHL1  H16A 1872   1.054   6.413   9.383  1.1068 -1.1335 -1.5081
   26CHL1  H16B 1873   0.980   6.246   9.385 -1.6683 -0.5176  0.8510
   26CHL1   C17 1874   0.847   6.408   9.454 -0.0856 -0.3741 -0.7567
   26CHL1   H17 1875   0.774   6.324   9.460 -0.9711  0.2827 -1.8831
   26CHL1   C13 1876   0.854   6.478   9.595  0.0079  0.5696  0.3641
   26CHL1   C18 1877   0.930   6.618   9.579  0.1956  0.5071  0.0157
   26CHL1  H18A 1878   1.033   6.603   9.542  0.1158  1.3828 -0.5769
   26CHL1  H18B 1879   0.867   6.679   9.512 -2.1834 -0.5059  1.1743
   26CHL1  H18C 1880   0.929   6.666   9.679 -2.0266 -0.8070  0.7119
   26CHL1   C12 1881   0.711   6.508   9.662 -0.0987  0.5889 -0.4392
   26CHL1  H12A 1882   0.682   6.602   9.611  1.9113  1.1307 -0.6658
   26CHL1  H12B 1883   0.642   6.425   9.633 -0.1919  1.2039 -2.0482
   26CHL1   C11 1884   0.726   6.520   9.816 -0.2596  0.0156  0.0950
   26CHL1  H11A 1885   0.776   6.619   9.825 -0.0970  0.0895 -1.4278
   26CHL1  H11B 1886   0.622   6.531   9.855  0.5262 -1.4751  2.8880
   26CHL1    C9 1887   0.824   6.429   9.894  0.2070  0.4040  0.1495
   26CHL1    H9 1888   0.780   6.327   9.892  2.1822 -0.5046  0.5491
   26CHL1   C10 1889   0.847   6.456  10.045 -0.3667 -0.0957 -0.3238
   26CHL1   C19 1890   0.873   6.603  10.061 -0.1023 -0.6331  0.4352
   26CHL1  H19A 1891   0.910   6.643  10.159 -1.4447  1.0401  0.3148
   26CHL1  H19B 1892   0.944   6.645   9.987 -0.7590 -0.1384  0.0773
   26CHL1  H19C 1893   0.773   6.648  10.047 -0.4840 -1.4237  0.5852
   26CHL1    C1 1894   0.723   6.412  10.124 -0.5726 -0.5957  0.6854
   26CHL1   H1A 1895   0.634   6.471  10.093  0.3253  1.3522  1.6227
   26CHL1   H1B 1896   0.717   6.304  10.099  1.5506 -0.7094  0.4426
   26CHL1    C2 1897   0.729   6.426  10.280  0.9528  0.3644  0.2971
   26CHL1   H2A 1898   0.636   6.394  10.330  0.8646  2.5471  1.6482
   26CHL1   H2B 1899   0.749   6.535  10.294  0.5811  0.0731  3.7723
   26CHL1   C20 1900   0.805   6.469   9.319 -0.8863  0.6162 -0.3421
   26CHL1   H20 1901   0.875   6.545   9.278  0.6394  0.1883  1.3265
   26CHL1   C21 1902   0.659   6.534   9.338 -0.7197 -0.1706  0.3990
   26CHL1  H21A 1903   0.632   6.590   9.246  1.5096 -1.9960 -1.4883
   26CHL1  H21B 1904   0.666   6.615   9.415  0.3598 -1.4561  1.7173
   26CHL1  H21C 1905   0.590   6.450   9.359 -1.7505  0.1815 -1.3953
   26CHL1   C22 1906   0.805   6.358   9.211 -0.6589 -0.5516 -0.3335
   26CHL1  H22A 1907   0.904   6.309   9.202 -0.9828 -1.3800  0.5017
   26CHL1  H22B 1908   0.740   6.272   9.237 -0.9674  0.0473  0.9367
   26CHL1   C23 1909   0.768   6.410   9.073  0.0467 -0.1586  0.7409
   26CHL1  H23A 1910   0.662   6.442   9.082 -1.1137 -2.6695 -2.3371
   26CHL1  H23B 1911   0.821   6.506   9.055 -1.6221  0.7299  0.3458
   26CHL1   C24 1912   0.785   6.304   8.967  0.4394 -0.2615 -0.3357
   26CHL1  H24A 1913   0.882   6.252   8.985  1.1806  2.2472  4.6639
   26CHL1  H24B 1914   0.701   6.231   8.972 -1.0951  1.4068 -0.9736
   26CHL1   C25 1915   0.775   6.359   8.825 -0.5399 -0.0130  0.1267
   26CHL1   H25 1916   0.689   6.427   8.813 -1.0641 -0.6218  0.3606
   26CHL1   C26 1917   0.908   6.426   8.775  0.8635  0.4470  0.2148
   26CHL1  H26A 1918   0.911   6.454   8.668  1.5079 -2.0089 -0.4731
   26CHL1  H26B 1919   0.916   6.518   8.837 -2.2374  2.3519 -1.9189
   26CHL1  H26C 1920   0.997   6.362   8.790 -0.3175 -1.1700  0.5412
   26CHL1   C27 1921   0.741   6.249   8.724 -0.7487 -0.2847 -0.3243
   26CHL1  H27A 1922   0.717   6.288   8.623 -1.1904 -1.6566 -0.7676
   26CHL1  H27B 1923   0.828   6.179   8.723 -0.3039 -0.0051  3.1903
   26CHL1  H27C 1924   0.655   6.197   8.771  0.1370 -0.8535  0.7350
   27CHL1    C3 1925   1.376   5.254  10.464 -0.3367 -0.2776 -0.1402
   27CHL1    H3 1926   1.273   5.254  10.424 -0.7193 -2.1794  0.7748
   27CHL1    O3 1927   1.382   5.304  10.591  0.7110 -0.3106 -0.3778
   27CHL1   H3' 1928   1.439   5.249  10.646 -1.5692 -1.3348  1.1131
   27CHL1    C4 1929   1.436   5.106  10.469 -0.5337 -0.3785  0.2612
   27CHL1   H4A 1930   1.540   5.099  10.507 -1.4921 -0.1902  3.2220
   27CHL1   H4B 1931   1.386   5.042  10.546  1.5382 -0.9838  1.1641
   27CHL1    C5 1932   1.421   5.047  10.331 -0.2049  0.2771 -0.3484
   27CHL1    C6 1933   1.338   4.944  10.310 -0.9467 -0.0988  0.0522
   27CHL1    H6 1934   1.280   4.894  10.389 -0.0904 -0.7736  0.2766
   27CHL1    C7 1935   1.315   4.882  10.176  0.3547 -0.4124 -0.4012
   27CHL1   H7A 1936   1.325   4.772  10.189  0.0434 -0.1145  3.9627
   27CHL1   H7B 1937   1.214   4.920  10.151  1.2882  0.7637 -2.6791
   27CHL1    C8 1938   1.411   4.946  10.065  0.3466  0.7238  0.3600
   27CHL1    H8 1939   1.507   4.891  10.066  0.2553  0.5383  2.3955
   27CHL1   C14 1940   1.344   4.926   9.925 -0.4986 -0.1471 -0.4001
   27CHL1   H14 1941   1.256   4.994   9.929 -0.1963  0.2226  0.1682
   27CHL1   C15 1942   1.291   4.786   9.900  0.0757  0.7668 -0.3109
   27CHL1  H15A 1943   1.364   4.710   9.935 -2.2687 -0.3456  2.6738
   27CHL1  H15B 1944   1.199   4.746   9.948  1.0768 -1.8671 -0.4149
   27CHL1   C16 1945   1.274   4.781   9.749  0.4283  0.4091  0.3604
   27CHL1  H16A 1946   1.344   4.706   9.707  0.0882  0.7011 -0.7531
   27CHL1  H16B 1947   1.170   4.769   9.712  1.5258 -0.8383 -2.5977
   27CHL1   C17 1948   1.328   4.917   9.688  0.0039 -0.1101 -0.2414
   27CHL1   H17 1949   1.243   4.988   9.685 -1.9031 -2.3176 -0.8258
   27CHL1   C13 1950   1.423   4.978   9.802  0.1464  0.6066 -0.1277
   27CHL1   C18 1951   1.560   4.902   9.795  0.6235 -0.2511  0.0788
   27CHL1  H18A 1952   1.549   4.795   9.822  4.0183 -0.2785  1.8555
   27CHL1  H18B 1953   1.622   4.906   9.703  2.9088  0.8169  1.5582
   27CHL1  H18C 1954   1.626   4.937   9.878  1.2442 -2.3820  0.5413
   27CHL1   C12 1955   1.437   5.126   9.815  0.0480 -0.1549 -0.1901
   27CHL1  H12A 1956   1.508   5.157   9.735  2.1083  1.6904  2.1582
   27CHL1  H12B 1957   1.341   5.182   9.808  0.4548  0.9542  2.1263
   27CHL1   C11 1958   1.506   5.162   9.950 -0.2299 -0.4143  0.5165
   27CHL1  H11A 1959   1.614   5.135   9.941  0.0937  1.1037 -0.6310
   27CHL1  H11B 1960   1.506   5.272   9.969  1.3364  0.0553 -1.8260
   27CHL1    C9 1961   1.436   5.094  10.075 -0.1307  0.1097 -0.9357
   27CHL1    H9 1962   1.332   5.134  10.083 -0.7263 -1.5634  0.4875
   27CHL1   C10 1963   1.491   5.126  10.218 -0.0122  0.6088 -0.4767
   27CHL1   C19 1964   1.639   5.099  10.222  0.6309  0.2047 -0.2376
   27CHL1  H19A 1965   1.698   5.155  10.146 -0.4366  3.5247  1.1870
   27CHL1  H19B 1966   1.675   5.126  10.323 -0.0935 -2.2290  0.7405
   27CHL1  H19C 1967   1.670   4.993  10.205  0.8251  0.3299 -0.6802
   27CHL1    C1 1968   1.474   5.278  10.232  0.2454  0.3200 -0.4853
   27CHL1   H1A 1969   1.556   5.329  10.177  0.5855 -2.1899 -2.4910
   27CHL1   H1B 1970   1.376   5.310  10.190 -0.9362  1.7720  3.0457
   27CHL1    C2 1971   1.468   5.334  10.371 -0.3979 -0.7629  0.0953
   27CHL1   H2A 1972   1.434   5.440  10.372  2.8241  0.4160  2.5239
   27CHL1   H2B 1973   1.571   5.331  10.414 -0.7939 -2.1656  1.0328
   27CHL1   C20 1974   1.371   4.907   9.538  0.3619  0.2864 -0.0317
   27CHL1   H20 1975   1.451   4.830   9.534  1.1025  1.0600 -0.5351
   27CHL1   C21 1976   1.433   5.039   9.492  0.4700  0.3988  0.0514
   27CHL1  H21A 1977   1.450   5.049   9.383  1.1849 -3.5509 -0.3531
   27CHL1  H21B 1978   1.534   5.045   9.537  0.6275 -1.9897  0.1340
   27CHL1  H21C 1979   1.369   5.124   9.524 -0.1727 -0.7567  1.9998
   27CHL1   C22 1980   1.244   4.879   9.447  0.2342 -0.2852  0.3360
   27CHL1  H22A 1981   1.198   4.790   9.496  1.4575  0.5817  3.3059
   27CHL1  H22B 1982   1.177   4.968   9.447  1.4977  0.7074  1.2215
   27CHL1   C23 1983   1.263   4.831   9.301 -0.2742 -0.3602  0.0419
   27CHL1  H23A 1984   1.298   4.921   9.246  2.8807 -0.2580  1.9454
   27CHL1  H23B 1985   1.339   4.749   9.301  0.5095  0.3260  1.2622
   27CHL1   C24 1986   1.139   4.770   9.236  0.4832  0.0473 -0.2330
   27CHL1  H24A 1987   1.096   4.691   9.300 -0.4054  0.8287  0.1602
   27CHL1  H24B 1988   1.060   4.848   9.228 -1.4654 -1.9800 -2.0267
   27CHL1   C25 1989   1.146   4.719   9.094 -0.1261 -0.2658  0.3890
   27CHL1   H25 1990   1.235   4.654   9.090  0.9981  1.0188  2.4801
   27CHL1   C26 1991   1.037   4.627   9.049  1.1153  0.1253  0.1777
   27CHL1  H26A 1992   1.035   4.534   9.109  0.8491  0.5595  0.8557
   27CHL1  H26B 1993   0.937   4.675   9.047  0.0111 -2.0456 -2.1094
   27CHL1  H26C 1994   1.050   4.594   8.944  1.3309 -0.7550  0.4792
   27CHL1   C27 1995   1.180   4.828   8.991  0.4553  0.2475  0.6688
   27CHL1  H27A 1996   1.091   4.895   8.993  0.7747  0.8881 -2.1235
   27CHL1  H27B 1997   1.278   4.876   9.008 -0.3203  2.5496 -0.9607
   27CHL1  H27C 1998   1.204   4.777   8.895 -0.1256 -2.3950  1.8271
   28CHL1    C3 1999   6.063   3.617  10.248  0.0014  0.1822  0.6144
   28CHL1    H3 2000   5.969   3.672  10.270 -0.6660 -0.7859  0.2222
   28CHL1    O3 2001   6.124   3.611  10.368  0.2937  0.2469  0.2256
   28CHL1   H3' 2002   6.054   3.573  10.421 -1.3418  1.1781 -1.1775
   28CHL1    C4 2003   6.041   3.466  10.202 -0.3738 -0.2315  0.1513
   28CHL1   H4A 2004   6.135   3.409  10.219 -0.4174 -0.3424  0.0178
   28CHL1   H4B 2005   5.970   3.413  10.270  1.3326 -0.4554  1.8571
   28CHL1    C5 2006   5.988   3.478  10.055  0.2423  0.2122 -0.8303
   28CHL1    C6 2007   5.869   3.435  10.007 -0.6905  0.0201  0.4920
   28CHL1    H6 2008   5.807   3.383  10.082 -0.0945  0.1924  1.1166
   28CHL1    C7 2009   5.821   3.435   9.869  0.1674  0.0205 -0.3010
   28CHL1   H7A 2010   5.763   3.342   9.847  2.4286 -0.9303 -2.8628
   28CHL1   H7B 2011   5.769   3.532   9.854  1.0314  0.7877  1.4708
   28CHL1    C8 2012   5.932   3.440   9.763  0.3255 -0.2409 -0.5435
   28CHL1    H8 2013   5.991   3.351   9.791  0.6678  0.0965 -0.1767
   28CHL1   C14 2014   5.882   3.446   9.627 -0.9899  0.2719  0.2754
   28CHL1   H14 2015   5.824   3.541   9.625  0.2782  1.0623 -0.6330
   28CHL1   C15 2016   5.786   3.345   9.573  0.2033  0.3520 -0.0751
   28CHL1  H15A 2017   5.836   3.250   9.603 -1.0401 -0.4718 -0.5240
   28CHL1  H15B 2018   5.682   3.344   9.612 -1.0066 -0.7698 -2.9790
   28CHL1   C16 2019   5.798   3.372   9.423 -0.0881  0.4160 -0.2298
   28CHL1  H16A 2020   5.807   3.278   9.364  0.9957  0.1028  0.4176
   28CHL1  H16B 2021   5.701   3.415   9.390 -0.5632 -0.6438 -0.2632
   28CHL1   C17 2022   5.918   3.461   9.383  0.1934  0.7295 -1.2696
   28CHL1   H17 2023   5.887   3.567   9.369  2.2924  1.7395  0.8478
   28CHL1   C13 2024   5.997   3.467   9.519 -0.1025  0.2448  0.1368
   28CHL1   C18 2025   6.093   3.354   9.536  0.4656  0.2526  0.0404
   28CHL1  H18A 2026   6.040   3.259   9.512  0.2953  0.3842 -0.1085
   28CHL1  H18B 2027   6.180   3.355   9.468  0.6954 -1.5481  0.2621
   28CHL1  H18C 2028   6.143   3.347   9.635 -0.7415  0.9962  0.7307
   28CHL1   C12 2029   6.059   3.608   9.552  0.0398  0.4787  0.5470
   28CHL1  H12A 2030   6.131   3.636   9.471 -0.2730 -0.1371  0.0484
   28CHL1  H12B 2031   5.974   3.681   9.554 -1.1022 -0.7443 -0.9740
   28CHL1   C11 2032   6.120   3.604   9.692 -0.0679  0.3293 -1.2740
   28CHL1  H11A 2033   6.206   3.534   9.693 -1.5252 -1.5462  0.2571
   28CHL1  H11B 2034   6.159   3.706   9.712  0.0047 -0.2051  1.8731
   28CHL1    C9 2035   6.024   3.558   9.804 -0.0247 -0.1826 -0.2443
   28CHL1    H9 2036   5.952   3.641   9.821  0.0770  0.0865 -1.0535
   28CHL1   C10 2037   6.084   3.539   9.949 -0.0596 -0.4745  0.3774
   28CHL1   C19 2038   6.198   3.441   9.936  0.1165  0.2686 -0.1507
   28CHL1  H19A 2039   6.231   3.410  10.038  0.4867  2.1448  0.3562
   28CHL1  H19B 2040   6.180   3.356   9.867 -0.3478 -1.2419  1.7419
   28CHL1  H19C 2041   6.286   3.500   9.904  0.1760  0.5514  0.5050
   28CHL1    C1 2042   6.123   3.676  10.002 -0.0862  0.1332 -0.5558
   28CHL1   H1A 2043   6.215   3.711   9.951 -0.0440  0.8297 -0.0280
   28CHL1   H1B 2044   6.043   3.753   9.995 -0.7119 -0.2640  1.4886
   28CHL1    C2 2045   6.164   3.684  10.151  0.2704 -0.0300 -0.4869
   28CHL1   H2A 2046   6.153   3.789  10.184  0.5436 -0.0351 -0.3743
   28CHL1   H2B 2047   6.270   3.653  10.166  0.6005  1.8513  1.7677
   28CHL1   C20 2048   5.994   3.412   9.258 -0.1184  0.3815  0.3651
   28CHL1   H20 2049   6.025   3.305   9.261  1.7135  0.6073 -3.4656
   28CHL1   C21 2050   6.116   3.499   9.233 -0.0277  0.3592  0.6892
   28CHL1  H21A 2051   6.181   3.507   9.323  2.5479  0.1792 -1.0378
   28CHL1  H21B 2052   6.074   3.597   9.202  1.6991  0.4128 -1.7655
   28CHL1  H21C 2053   6.175   3.454   9.150 -0.5679  1.8902 -0.5829
   28CHL1   C22 2054   5.910   3.429   9.121  0.2144 -0.3553 -0.2992
   28CHL1  H22A 2055   5.981   3.429   9.036  0.5396  1.2935 -0.0603
   28CHL1  H22B 2056   5.861   3.329   9.126  0.5942 -0.5280  0.0386
   28CHL1   C23 2057   5.814   3.556   9.116 -0.3323  0.4232 -0.2148
   28CHL1  H23A 2058   5.758   3.561   9.212  0.7718  1.2226  0.4092
   28CHL1  H23B 2059   5.873   3.649   9.101 -1.6177  1.2071 -0.5205
   28CHL1   C24 2060   5.725   3.537   8.996  0.1013 -0.1370 -0.1065
   28CHL1  H24A 2061   5.789   3.557   8.907 -0.1275 -0.0839 -0.2597
   28CHL1  H24B 2062   5.704   3.429   8.997 -1.6870  0.1718 -1.0377
   28CHL1   C25 2063   5.599   3.619   8.991  0.0589 -0.4767  0.3706
   28CHL1   H25 2064   5.518   3.567   9.047 -1.2584 -0.4654 -1.4289
   28CHL1   C26 2065   5.626   3.764   9.042  0.5075 -0.2761 -0.2791
   28CHL1  H26A 2066   5.699   3.821   8.980  0.3134 -0.7783 -0.9770
   28CHL1  H26B 2067   5.536   3.828   9.033  2.8392  3.5063  0.5158
   28CHL1  H26C 2068   5.662   3.774   9.147  0.9592  1.3143 -0.5503
   28CHL1   C27 2069   5.559   3.620   8.845  0.7040 -0.1368  0.5236
   28CHL1  H27A 2070   5.472   3.688   8.845  1.4185  0.8617  2.4207
   28CHL1  H27B 2071   5.647   3.662   8.792 -0.1265  0.5529 -0.3282
   28CHL1  H27C 2072   5.543   3.512   8.822 -0.1996  0.2158 -0.5336
   29CHL1    C3 2073   4.397   0.679   6.493  0.4177 -0.2290 -0.2289
   29CHL1    H3 2074   4.391   0.789   6.509  0.8790 -0.1066 -0.8506
   29CHL1    O3 2075   4.442   0.651   6.363  0.4870 -0.5009  0.2730
   29CHL1   H3' 2076   4.454   0.555   6.365  0.6458 -0.4857  0.1064
   29CHL1    C4 2077   4.504   0.622   6.590  0.4443 -0.0334  0.9474
   29CHL1   H4A 2078   4.531   0.518   6.564 -1.5267 -0.3259 -0.0815
   29CHL1   H4B 2079   4.588   0.690   6.565 -0.5493  1.5455  1.7296
   29CHL1    C5 2080   4.461   0.633   6.735 -0.2518 -0.3025  0.6151
   29CHL1    C6 2081   4.542   0.705   6.812  0.1344  0.6514 -0.5283
   29CHL1    H6 2082   4.639   0.733   6.768  0.4481  0.2941 -0.0790
   29CHL1    C7 2083   4.510   0.725   6.964  0.3254  0.3645  0.0420
   29CHL1   H7A 2084   4.600   0.696   7.023 -0.0406 -1.6670 -0.3308
   29CHL1   H7B 2085   4.479   0.830   6.980  0.3199  0.0982  2.0103
   29CHL1    C8 2086   4.400   0.628   7.010 -0.3024 -0.1403  0.1309
   29CHL1    H8 2087   4.448   0.530   7.026  1.5674  0.9088  1.3076
   29CHL1   C14 2088   4.347   0.686   7.147 -0.0204 -1.0663  0.4058
   29CHL1   H14 2089   4.300   0.782   7.116 -1.0088 -1.1692  1.4885
   29CHL1   C15 2090   4.453   0.721   7.256 -0.4539  0.2976  0.2421
   29CHL1  H15A 2091   4.522   0.634   7.254 -1.1823 -0.2806 -0.3513
   29CHL1  H15B 2092   4.502   0.820   7.249 -3.2163  1.6721 -1.3153
   29CHL1   C16 2093   4.382   0.703   7.391  0.5250 -0.1762 -0.3893
   29CHL1  H16A 2094   4.419   0.618   7.452  0.2596  0.6614  0.9615
   29CHL1  H16B 2095   4.378   0.798   7.449 -0.1271 -0.1075 -0.5433
   29CHL1   C17 2096   4.227   0.674   7.354  0.2907 -0.2476  0.2949
   29CHL1   H17 2097   4.175   0.772   7.347  1.0642  0.1259 -0.4850
   29CHL1   C13 2098   4.237   0.599   7.208 -0.1943  0.3453 -1.1317
   29CHL1   C18 2099   4.287   0.460   7.238 -1.2775  0.1327 -0.2036
   29CHL1  H18A 2100   4.377   0.454   7.302  0.3501  0.4408 -2.3560
   29CHL1  H18B 2101   4.209   0.385   7.266 -0.6516 -1.0187 -1.4254
   29CHL1  H18C 2102   4.339   0.408   7.155 -0.5172  0.0568  0.3156
   29CHL1   C12 2103   4.117   0.591   7.113  0.3324  0.3121  0.0638
   29CHL1  H12A 2104   4.056   0.508   7.155  0.5103  0.1448 -0.0069
   29CHL1  H12B 2105   4.059   0.685   7.124 -0.7592 -0.4912  1.5305
   29CHL1   C11 2106   4.164   0.552   6.970  0.1139  0.0276  0.1910
   29CHL1  H11A 2107   4.191   0.445   6.980  1.6699  0.2976 -0.8567
   29CHL1  H11B 2108   4.078   0.565   6.901  0.3766 -0.3494 -0.2105
   29CHL1    C9 2109   4.280   0.627   6.910 -0.4656 -0.8853 -0.7251
   29CHL1    H9 2110   4.247   0.733   6.904  0.3925 -0.6772 -2.1881
   29CHL1   C10 2111   4.317   0.582   6.770 -0.5204  0.1449 -0.6382
   29CHL1   C19 2112   4.331   0.424   6.770 -0.3519 -0.1909  0.1911
   29CHL1  H19A 2113   4.361   0.387   6.670 -0.2944 -0.8364  0.4401
   29CHL1  H19B 2114   4.398   0.390   6.853  0.9071  1.1359 -0.2310
   29CHL1  H19C 2115   4.232   0.377   6.788 -1.2061  1.4570 -0.0942
   29CHL1    C1 2116   4.216   0.634   6.660  0.1425  0.4740 -0.3513
   29CHL1   H1A 2117   4.127   0.569   6.675  1.4402 -1.5436 -0.9410
   29CHL1   H1B 2118   4.187   0.740   6.678 -0.6592  0.5482 -1.9432
   29CHL1    C2 2119   4.256   0.620   6.512 -0.0410 -0.2931  0.3844
   29CHL1   H2A 2120   4.184   0.683   6.456  1.2543  0.6357 -0.3152
   29CHL1   H2B 2121   4.251   0.515   6.476  1.7002  0.2604 -1.7139
   29CHL1   C20 2122   4.153   0.601   7.464  0.6120 -0.2507  0.0539
   29CHL1   H20 2123   4.210   0.511   7.493  1.2952 -0.1004 -0.7816
   29CHL1   C21 2124   4.014   0.562   7.423 -0.4701  0.5203 -0.5205
   29CHL1  H21A 2125   3.969   0.638   7.355  1.0137  0.7722 -1.2562
   29CHL1  H21B 2126   3.946   0.539   7.507 -0.1796 -1.8154 -0.8529
   29CHL1  H21C 2127   4.016   0.473   7.356 -2.8406 -1.3066  1.6675
   29CHL1   C22 2128   4.145   0.687   7.594 -0.4771  0.1034  0.3628
   29CHL1  H22A 2129   4.246   0.726   7.619 -0.1767 -1.8950  2.6791
   29CHL1  H22B 2130   4.078   0.775   7.579 -0.3480  0.3551  1.1813
   29CHL1   C23 2131   4.107   0.616   7.719  0.1680 -0.2101  0.1089
   29CHL1  H23A 2132   3.997   0.604   7.718 -0.1263  2.1023  0.0210
   29CHL1  H23B 2133   4.154   0.516   7.727 -0.9792 -0.6673  1.5461
   29CHL1   C24 2134   4.158   0.693   7.837  0.3318  0.5092 -0.4479
   29CHL1  H24A 2135   4.260   0.728   7.811  1.5839 -1.0741  2.0507
   29CHL1  H24B 2136   4.092   0.778   7.867  0.8355  0.1808  1.7520
   29CHL1   C25 2137   4.203   0.601   7.960 -0.6460 -0.4410  0.0345
   29CHL1   H25 2138   4.294   0.549   7.922  0.3087  1.2362 -0.1039
   29CHL1   C26 2139   4.248   0.706   8.069 -0.0478 -0.1188  0.3481
   29CHL1  H26A 2140   4.153   0.753   8.101 -0.1773  0.2303 -0.5100
   29CHL1  H26B 2141   4.299   0.656   8.154  3.2307  0.4798 -1.1142
   29CHL1  H26C 2142   4.316   0.784   8.029 -0.3985  0.2701  0.5050
   29CHL1   C27 2143   4.099   0.496   8.017  0.7819 -0.4675  0.3698
   29CHL1  H27A 2144   4.151   0.456   8.106  2.5835 -0.0263 -0.4277
   29CHL1  H27B 2145   4.010   0.556   8.044  1.0300  0.2160 -0.2868
   29CHL1  H27C 2146   4.072   0.416   7.944 -1.3300 -0.4980  1.1332
   30CHL1    C3 2147   2.306   5.921   7.133 -0.0362 -0.6160  0.5393
   30CHL1    H3 2148   2.408   5.953   7.161  0.3100  0.8383 -2.0511
   30CHL1    O3 2149   2.307   5.859   7.008 -0.0292  0.1400 -0.1293
   30CHL1   H3' 2150   2.399   5.834   6.995 -0.1054 -0.0666 -0.2737
   30CHL1    C4 2151   2.249   5.824   7.230 -0.5384 -0.5534 -0.5606
   30CHL1   H4A 2152   2.149   5.795   7.190 -0.9582 -0.5983  0.4667
   30CHL1   H4B 2153   2.301   5.726   7.235 -1.3550 -0.9499  1.0843
   30CHL1    C5 2154   2.231   5.878   7.370 -0.0056  0.1270  0.0875
   30CHL1    C6 2155   2.299   5.827   7.475 -0.0815 -0.6310  0.4525
   30CHL1    H6 2156   2.361   5.737   7.463 -0.6440 -0.8641 -0.9774
   30CHL1    C7 2157   2.287   5.875   7.615 -0.5897  0.1207 -0.2785
   30CHL1   H7A 2158   2.282   5.798   7.694  0.5567  1.9150  1.6532
   30CHL1   H7B 2159   2.380   5.927   7.647 -0.2845 -1.5249  1.6711
   30CHL1    C8 2160   2.173   5.982   7.630  0.7099 -0.1732 -0.5505
   30CHL1    H8 2161   2.078   5.925   7.635 -0.6840  2.1608  1.4652
   30CHL1   C14 2162   2.184   6.075   7.758 -0.6337 -0.1923 -0.0117
   30CHL1   H14 2163   2.276   6.135   7.746  0.3175 -1.1877  1.8730
   30CHL1   C15 2164   2.193   5.998   7.888 -0.4010 -0.2082  0.0019
   30CHL1  H15A 2165   2.124   5.911   7.882  0.8790 -1.2232 -0.6346
   30CHL1  H15B 2166   2.294   5.958   7.912 -0.9365 -0.1610  2.6147
   30CHL1   C16 2167   2.149   6.093   7.998 -0.5067 -0.6690 -0.7535
   30CHL1  H16A 2168   2.067   6.043   8.055 -2.0545 -0.1060 -2.3783
   30CHL1  H16B 2169   2.232   6.110   8.070  1.6105 -0.8093 -3.0319
   30CHL1   C17 2170   2.105   6.220   7.923  0.4499 -0.0389  0.3494
   30CHL1   H17 2171   2.192   6.289   7.913  1.1598 -1.0197 -0.4837
   30CHL1   C13 2172   2.069   6.178   7.779  0.0584  0.4672  0.4231
   30CHL1   C18 2173   1.927   6.115   7.772  0.1861  0.1443  0.3417
   30CHL1  H18A 2174   1.907   6.058   7.679 -1.5581  1.4394 -0.1230
   30CHL1  H18B 2175   1.923   6.030   7.844 -2.2062 -0.4731 -0.4318
   30CHL1  H18C 2176   1.847   6.188   7.796  0.9176  1.8135 -2.0123
   30CHL1   C12 2177   2.084   6.282   7.660  0.0527  0.7805 -0.1170
   30CHL1  H12A 2178   2.010   6.364   7.677 -0.0654  0.6229  0.1445
   30CHL1  H12B 2179   2.185   6.328   7.665  0.0565  0.7750 -0.1479
   30CHL1   C11 2180   2.082   6.210   7.522 -0.0837  0.1169 -0.2768
   30CHL1  H11A 2181   1.978   6.175   7.509 -0.9447  2.1267  0.7819
   30CHL1  H11B 2182   2.106   6.282   7.440  1.7780  0.1993  0.2985
   30CHL1    C9 2183   2.174   6.079   7.514  0.6866 -0.1397  0.2700
   30CHL1    H9 2184   2.279   6.115   7.505 -0.3539  3.5081  1.0368
   30CHL1   C10 2185   2.150   6.001   7.378  0.1822  0.5154  0.3619
   30CHL1   C19 2186   2.000   5.955   7.354  0.8071 -0.4171 -0.9417
   30CHL1  H19A 2187   1.921   6.021   7.396  1.1122  0.0203 -1.0488
   30CHL1  H19B 2188   1.964   5.930   7.252 -2.3515 -1.4728  0.3242
   30CHL1  H19C 2189   1.978   5.868   7.418 -0.8286 -2.4677 -4.0418
   30CHL1    C1 2190   2.191   6.109   7.259 -0.7999  0.0764 -0.6116
   30CHL1   H1A 2191   2.118   6.188   7.231 -0.9936  0.4618  0.8592
   30CHL1   H1B 2192   2.286   6.159   7.285 -0.8411 -0.2554  0.2073
   30CHL1    C2 2193   2.214   6.047   7.121  0.0833 -0.2937  0.5136
   30CHL1   H2A 2194   2.263   6.118   7.051  0.1791 -1.8580 -1.0754
   30CHL1   H2B 2195   2.118   6.003   7.087  0.6838 -2.4878  1.4860
   30CHL1   C20 2196   1.993   6.290   8.011  0.3931 -0.3752  0.5559
   30CHL1   H20 2197   1.904   6.224   8.018  0.3255 -0.5075 -1.2303
   30CHL1   C21 2198   1.961   6.426   7.946 -0.3577 -0.6283  0.1399
   30CHL1  H21A 2199   1.879   6.480   7.999 -0.4407  2.1628 -2.5746
   30CHL1  H21B 2200   1.928   6.418   7.841 -2.3037  3.2406  0.2634
   30CHL1  H21C 2201   2.049   6.493   7.937 -0.5516 -0.4541 -0.4886
   30CHL1   C22 2202   2.040   6.311   8.160  0.6351 -0.3040 -0.7720
   30CHL1  H22A 2203   2.074   6.217   8.207  0.5108 -0.5335 -1.1362
   30CHL1  H22B 2204   2.122   6.386   8.155  1.1244 -0.7124  0.5758
   30CHL1   C23 2205   1.933   6.365   8.257  0.3552  0.3761 -0.1797
   30CHL1  H23A 2206   1.912   6.468   8.224  2.2101  0.1128 -2.4232
   30CHL1  H23B 2207   1.838   6.310   8.242  1.1696 -1.2100  0.2288
   30CHL1   C24 2208   1.970   6.367   8.409 -0.5208 -0.3267 -0.8539
   30CHL1  H24A 2209   2.073   6.404   8.428  0.2981 -0.7235 -3.9280
   30CHL1  H24B 2210   1.895   6.428   8.464  0.0023 -0.4107 -0.0318
   30CHL1   C25 2211   1.956   6.231   8.478  0.4199  0.4622 -0.0484
   30CHL1   H25 2212   1.923   6.162   8.398  0.6378 -0.0194  0.2690
   30CHL1   C26 2213   2.089   6.165   8.517 -0.7616  0.1653  0.1078
   30CHL1  H26A 2214   2.082   6.059   8.551  0.7791 -0.8180 -2.2883
   30CHL1  H26B 2215   2.154   6.171   8.426  0.0926  1.7851  0.7859
   30CHL1  H26C 2216   2.142   6.218   8.598  0.4405  1.0016 -1.1817
   30CHL1   C27 2217   1.843   6.230   8.585  0.7008  0.4966 -0.8852
   30CHL1  H27A 2218   1.863   6.301   8.668 -2.3559 -0.9110  1.2545
   30CHL1  H27B 2219   1.744   6.255   8.542 -0.0570 -0.2740  0.3261
   30CHL1  H27C 2220   1.829   6.129   8.629 -0.3435  1.5517  1.3920
   31CHL1    C3 2221   2.165   1.125   6.944 -0.4543 -0.5284 -0.0406
   31CHL1    H3 2222   2.110   1.216   6.974  1.6839  0.4265  1.1530
   31CHL1    O3 2223   2.174   1.126   6.802  0.0893  0.0674  0.5089
   31CHL1   H3' 2224   2.233   1.058   6.769  0.9176  1.4390 -1.0031
   31CHL1    C4 2225   2.294   1.145   7.020  0.9185  0.3015 -0.0127
   31CHL1   H4A 2226   2.366   1.066   6.993  0.0949 -1.2492  2.0863
   31CHL1   H4B 2227   2.336   1.240   6.979 -1.0403  1.0418 -0.4555
   31CHL1    C5 2228   2.272   1.150   7.169 -0.1495 -0.5348  0.6556
   31CHL1    C6 2229   2.314   1.259   7.243 -0.0881  0.6710  0.7665
   31CHL1    H6 2230   2.361   1.348   7.198  2.3189 -0.5725  0.6124
   31CHL1    C7 2231   2.292   1.266   7.394  0.0356 -0.1591 -0.5931
   31CHL1   H7A 2232   2.382   1.309   7.443  0.2513 -0.3135 -0.8504
   31CHL1   H7B 2233   2.207   1.331   7.425 -0.2073 -0.6193 -0.2739
   31CHL1    C8 2234   2.266   1.124   7.458 -0.2706 -0.3494  0.6048
   31CHL1    H8 2235   2.365   1.074   7.451  0.1324  0.4847  0.0119
   31CHL1   C14 2236   2.220   1.148   7.599 -0.4444  0.2439  0.1138
   31CHL1   H14 2237   2.122   1.200   7.598 -1.2522 -1.1298  1.9093
   31CHL1   C15 2238   2.306   1.232   7.691 -0.1565  0.5300 -0.1786
   31CHL1  H15A 2239   2.410   1.204   7.665 -1.0343 -0.5873 -2.8114
   31CHL1  H15B 2240   2.291   1.341   7.680  1.2536  0.5591 -2.2357
   31CHL1   C16 2241   2.282   1.188   7.833  0.2407 -0.4893  0.3857
   31CHL1  H16A 2242   2.373   1.148   7.884  0.6934 -0.0358 -0.0529
   31CHL1  H16B 2243   2.247   1.276   7.891 -0.5649  1.0254 -2.2281
   31CHL1   C17 2244   2.177   1.077   7.822 -0.0314 -0.2609  0.2281
   31CHL1   H17 2245   2.078   1.128   7.822  1.0192  1.8940  1.6886
   31CHL1   C13 2246   2.191   1.018   7.675 -0.7434  0.1282 -0.0148
   31CHL1   C18 2247   2.308   0.917   7.672 -0.3770  0.0460 -1.7108
   31CHL1  H18A 2248   2.396   0.974   7.710 -1.2924  1.3065 -1.4158
   31CHL1  H18B 2249   2.289   0.835   7.745  2.6322  0.0873 -0.7288
   31CHL1  H18C 2250   2.316   0.871   7.572 -1.6369 -0.6015 -1.5360
   31CHL1   C12 2251   2.063   0.965   7.606 -0.2897  0.1668  0.1368
   31CHL1  H12A 2252   2.020   0.869   7.642  0.4314 -1.8569 -3.8095
   31CHL1  H12B 2253   1.980   1.039   7.610 -0.5591 -0.1710  1.1976
   31CHL1   C11 2254   2.073   0.946   7.450  0.0567  0.2549 -0.4671
   31CHL1  H11A 2255   2.130   0.850   7.449  0.6977  0.5875  0.8291
   31CHL1  H11B 2256   1.977   0.932   7.397  0.4045  0.2824 -1.1068
   31CHL1    C9 2257   2.149   1.063   7.383 -0.1540 -0.1470 -0.4696
   31CHL1    H9 2258   2.080   1.149   7.374 -3.1008 -2.3531 -0.5314
   31CHL1   C10 2259   2.184   1.034   7.232  0.5683 -0.0310  0.2328
   31CHL1   C19 2260   2.272   0.909   7.229  0.6667  0.1192 -0.2337
   31CHL1  H19A 2261   2.343   0.906   7.314 -0.3029  0.9244  0.6343
   31CHL1  H19B 2262   2.214   0.814   7.237  0.0192  0.6274  2.0314
   31CHL1  H19C 2263   2.341   0.909   7.142  0.7805  2.3219 -0.1934
   31CHL1    C1 2264   2.061   1.006   7.147  0.0126  0.3462  0.2636
   31CHL1   H1A 2265   2.005   0.919   7.188 -0.6612  1.4662  1.8472
   31CHL1   H1B 2266   1.986   1.087   7.163  0.7871  0.5570  3.5660
   31CHL1    C2 2267   2.086   1.000   6.994 -0.2898  0.2953 -0.3733
   31CHL1   H2A 2268   1.985   0.989   6.948 -0.7497 -0.1187  0.6862
   31CHL1   H2B 2269   2.139   0.905   6.971 -2.3363 -1.0012  0.0107
   31CHL1   C20 2270   2.192   0.978   7.936  0.4965 -0.0640 -0.4850
   31CHL1   H20 2271   2.293   0.933   7.929  0.8273  0.5483  0.1869
   31CHL1   C21 2272   2.079   0.874   7.923 -0.6038 -1.4302 -0.2949
   31CHL1  H21A 2273   1.982   0.923   7.899  0.3089  0.2763 -0.7314
   31CHL1  H21B 2274   2.058   0.812   8.012 -0.1823  0.1977  0.9807
   31CHL1  H21C 2275   2.104   0.797   7.847 -0.3383 -0.4929 -1.1872
   31CHL1   C22 2276   2.196   1.050   8.074  0.3762 -0.2079 -0.0099
   31CHL1  H22A 2277   2.251   1.146   8.068 -1.0370  0.5826 -0.7081
   31CHL1  H22B 2278   2.094   1.076   8.111  1.0794  1.6677  0.7517
   31CHL1   C23 2279   2.240   0.975   8.201 -0.0531  0.2482  0.1593
   31CHL1  H23A 2280   2.240   1.045   8.288 -0.2529  0.7749 -0.2643
   31CHL1  H23B 2281   2.167   0.892   8.214 -0.4053  0.3643 -0.9933
   31CHL1   C24 2282   2.382   0.914   8.191  0.5284 -0.1764 -0.3396
   31CHL1  H24A 2283   2.382   0.850   8.100  0.2723  1.3103 -1.4160
   31CHL1  H24B 2284   2.446   1.001   8.168 -1.4989  1.0052 -1.8414
   31CHL1   C25 2285   2.433   0.832   8.318 -0.8375 -0.3169  0.1844
   31CHL1   H25 2286   2.536   0.796   8.295 -0.7975 -0.6482  0.8720
   31CHL1   C26 2287   2.429   0.923   8.444  0.8733 -0.2977 -0.0764
   31CHL1  H26A 2288   2.433   0.856   8.533  0.1732 -1.7105 -1.0653
   31CHL1  H26B 2289   2.515   0.992   8.448  0.6825 -0.0229 -0.5920
   31CHL1  H26C 2290   2.337   0.984   8.453  1.2036  0.2212 -0.2187
   31CHL1   C27 2291   2.345   0.703   8.337  0.2350  0.2375 -0.1059
   31CHL1  H27A 2292   2.246   0.750   8.353 -0.4033 -0.4812 -1.7454
   31CHL1  H27B 2293   2.371   0.637   8.422 -0.1058  1.3513  0.8793
   31CHL1  H27C 2294   2.351   0.652   8.238  1.9611  0.0587  0.0666
   32CHL1    C3 2295   3.594   6.190   6.767  0.2513 -0.4913  0.3511
   32CHL1    H3 2296   3.660   6.106   6.799  0.5067  0.6117  3.0287
   32CHL1    O3 2297   3.624   6.234   6.631 -0.1086 -0.2243  0.0672
   32CHL1   H3' 2298   3.542   6.276   6.605  0.1866 -0.4770 -1.3609
   32CHL1    C4 2299   3.449   6.156   6.770 -0.0129 -0.0941  0.1958
   32CHL1   H4A 2300   3.397   6.249   6.740  0.5051  1.4244  3.5168
   32CHL1   H4B 2301   3.421   6.085   6.689  0.9091 -0.4246  0.1550
   32CHL1    C5 2302   3.399   6.113   6.908  0.0337 -0.1414 -0.4318
   32CHL1    C6 2303   3.340   5.995   6.937  0.0927  0.0750 -0.0271
   32CHL1    H6 2304   3.316   5.928   6.853 -1.4406 -0.2213  0.6062
   32CHL1    C7 2305   3.293   5.952   7.077  0.1874 -0.4140 -1.0595
   32CHL1   H7A 2306   3.190   5.910   7.076 -0.4024  0.8195  1.0741
   32CHL1   H7B 2307   3.359   5.874   7.120  0.4282  1.2996  1.9315
   32CHL1    C8 2308   3.297   6.071   7.181 -0.4292 -0.2302 -0.6296
   32CHL1    H8 2309   3.214   6.140   7.157 -0.3895  0.1627  0.3192
   32CHL1   C14 2310   3.285   6.028   7.326  0.2701  1.1442 -0.1924
   32CHL1   H14 2311   3.368   5.955   7.342 -0.8448 -0.5752 -1.8624
   32CHL1   C15 2312   3.154   5.948   7.359 -0.2579 -1.2553  0.1042
   32CHL1  H15A 2313   3.059   5.973   7.307 -0.9574  0.3089  2.0019
   32CHL1  H15B 2314   3.173   5.842   7.331  2.4855 -0.7755 -0.1526
   32CHL1   C16 2315   3.147   5.947   7.513  0.0692 -1.2272  0.3881
   32CHL1  H16A 2316   3.051   5.990   7.549 -0.0880 -0.0413 -1.3318
   32CHL1  H16B 2317   3.160   5.851   7.567  1.0641 -0.1493  2.1369
   32CHL1   C17 2318   3.258   6.049   7.563  0.1020  0.3435  0.9625
   32CHL1   H17 2319   3.345   5.981   7.579  0.8512  1.4574  1.7610
   32CHL1   C13 2320   3.291   6.134   7.439 -0.5463 -0.1065 -0.0791
   32CHL1   C18 2321   3.174   6.243   7.422 -0.8932 -0.0789  0.2936
   32CHL1  H18A 2322   3.075   6.193   7.424 -1.8527  1.7227  0.4440
   32CHL1  H18B 2323   3.174   6.322   7.500 -1.9933  0.8721 -0.6433
   32CHL1  H18C 2324   3.192   6.300   7.328  2.1884  1.8417  1.8871
   32CHL1   C12 2325   3.433   6.190   7.423 -0.2333 -0.5775 -0.0578
   32CHL1  H12A 2326   3.467   6.260   7.502 -1.5588 -1.5514  1.4355
   32CHL1  H12B 2327   3.505   6.106   7.439  0.0867 -0.3835 -0.4515
   32CHL1   C11 2328   3.459   6.248   7.284  0.5303 -0.1307 -0.1198
   32CHL1  H11A 2329   3.401   6.343   7.285  0.4250 -0.1934  0.5808
   32CHL1  H11B 2330   3.566   6.275   7.289  0.4831 -0.0906  1.4145
   32CHL1    C9 2331   3.426   6.152   7.164 -0.5252  0.5461 -0.6577
   32CHL1    H9 2332   3.501   6.071   7.172 -0.7947  0.4017  0.6399
   32CHL1   C10 2333   3.436   6.213   7.018  0.1600 -1.0191 -0.4209
   32CHL1   C19 2334   3.340   6.333   7.015  0.2837  1.2000 -0.0406
   32CHL1  H19A 2335   3.363   6.405   7.096 -1.0841  2.2338 -0.5511
   32CHL1  H19B 2336   3.354   6.384   6.918 -4.1631  1.8276 -0.5794
   32CHL1  H19C 2337   3.235   6.296   7.008  0.9188 -0.4543 -1.6870
   32CHL1    C1 2338   3.576   6.275   7.004 -0.0919 -0.0684 -0.4460
   32CHL1   H1A 2339   3.571   6.369   7.063 -3.4334 -0.4873  0.1239
   32CHL1   H1B 2340   3.663   6.215   7.040  0.6511  2.4421  2.3410
   32CHL1    C2 2341   3.615   6.306   6.863  0.5794 -0.7683 -0.0839
   32CHL1   H2A 2342   3.720   6.340   6.852  0.2081  0.4125 -0.1562
   32CHL1   H2B 2343   3.553   6.394   6.833 -0.3198 -1.8348 -1.4725
   32CHL1   C20 2344   3.215   6.114   7.691 -0.0549 -0.1375  0.9801
   32CHL1   H20 2345   3.128   6.178   7.668  0.2512 -0.6223 -1.9603
   32CHL1   C21 2346   3.323   6.219   7.724 -0.0385 -0.2219 -0.4086
   32CHL1  H21A 2347   3.422   6.176   7.749  0.1179  0.3093 -0.0961
   32CHL1  H21B 2348   3.286   6.270   7.815  1.2358  1.0990 -0.5878
   32CHL1  H21C 2349   3.329   6.306   7.654 -1.7090  1.3942  1.3366
   32CHL1   C22 2350   3.191   6.009   7.800  0.2413  0.1691 -0.3230
   32CHL1  H22A 2351   3.098   5.952   7.779  0.9796 -1.8733  1.5575
   32CHL1  H22B 2352   3.276   5.937   7.794 -0.8729 -1.1914 -0.4992
   32CHL1   C23 2353   3.195   6.056   7.942 -0.2692  0.0533 -0.3671
   32CHL1  H23A 2354   3.304   6.070   7.961  0.0453 -2.6998  0.2695
   32CHL1  H23B 2355   3.147   6.155   7.954  2.2636  1.1775  1.5702
   32CHL1   C24 2356   3.143   5.963   8.051  0.2290 -0.0988 -0.2599
   32CHL1  H24A 2357   3.034   5.951   8.035  0.2617  2.1212 -2.8151
   32CHL1  H24B 2358   3.196   5.865   8.057  0.5813  0.1507  0.9086
   32CHL1   C25 2359   3.166   6.035   8.190 -0.7086  0.5219 -0.5341
   32CHL1   H25 2360   3.134   6.140   8.182 -0.4188  1.0814  3.5631
   32CHL1   C26 2361   3.089   5.971   8.304 -0.8752  0.2677  0.0381
   32CHL1  H26A 2362   2.985   5.954   8.267  0.4207 -1.3586 -3.2594
   32CHL1  H26B 2363   3.131   5.873   8.334 -1.8607 -0.1142  0.2245
   32CHL1  H26C 2364   3.089   6.042   8.390 -0.0694 -2.9299  2.9013
   32CHL1   C27 2365   3.312   6.033   8.233  0.7593 -0.8385  0.3142
   32CHL1  H27A 2366   3.378   6.102   8.177  1.1711 -0.3324  1.3904
   32CHL1  H27B 2367   3.319   6.075   8.335  0.6025  0.9420 -0.3690
   32CHL1  H27C 2368   3.345   5.927   8.231 -0.5357 -1.2714  0.7690
   33CHL1    C3 2369   4.250   6.023   6.816  0.1487 -0.1865 -0.0447
   33CHL1    H3 2370   4.308   6.118   6.820 -0.2099  0.2143 -2.4518
   33CHL1    O3 2371   4.197   6.027   6.682 -0.6427  0.5623 -0.0581
   33CHL1   H3' 2372   4.179   5.937   6.656  2.0498 -0.8675  2.4674
   33CHL1    C4 2373   4.331   5.896   6.832 -0.7301  0.3438  0.0914
   33CHL1   H4A 2374   4.272   5.806   6.805 -0.9557  0.4489  0.2409
   33CHL1   H4B 2375   4.419   5.907   6.765  0.2535 -1.8802  0.9366
   33CHL1    C5 2376   4.380   5.894   6.972 -0.0572 -0.3756 -0.0334
   33CHL1    C6 2377   4.510   5.904   6.997  0.5740 -0.3160  0.1036
   33CHL1    H6 2378   4.584   5.899   6.915  0.8685 -1.5693  0.4290
   33CHL1    C7 2379   4.562   5.903   7.138 -0.1261  0.0762 -0.0670
   33CHL1   H7A 2380   4.659   5.850   7.149  0.0586  0.4343  0.0318
   33CHL1   H7B 2381   4.586   6.007   7.166 -0.6634 -0.2260  1.5967
   33CHL1    C8 2382   4.462   5.836   7.237  0.1408 -0.7158  0.1893
   33CHL1    H8 2383   4.448   5.730   7.205 -1.4973 -0.7539  0.9492
   33CHL1   C14 2384   4.517   5.836   7.375  0.2185  0.6680  0.0140
   33CHL1   H14 2385   4.543   5.943   7.388 -0.4555  1.2026 -2.5185
   33CHL1   C15 2386   4.652   5.761   7.404 -0.6040  0.5705  0.1947
   33CHL1  H15A 2387   4.638   5.659   7.363 -0.5304 -0.2233  2.0448
   33CHL1  H15B 2388   4.732   5.819   7.353 -0.7699 -0.0147 -0.7509
   33CHL1   C16 2389   4.662   5.768   7.556 -0.0664  0.0336 -0.4883
   33CHL1  H16A 2390   4.691   5.671   7.601  1.6920 -0.1453 -1.8699
   33CHL1  H16B 2391   4.743   5.841   7.580  0.7530 -0.1125 -2.5084
   33CHL1   C17 2392   4.530   5.815   7.611  0.2478  0.2480 -0.5478
   33CHL1   H17 2393   4.532   5.919   7.649 -2.0193 -0.7645  2.7582
   33CHL1   C13 2394   4.426   5.810   7.489 -0.1291 -0.6087 -0.2133
   33CHL1   C18 2395   4.384   5.659   7.479  0.6285 -0.6832  0.5263
   33CHL1  H18A 2396   4.459   5.579   7.493 -0.6507 -1.8496  0.9810
   33CHL1  H18B 2397   4.307   5.637   7.555 -0.2814 -3.1989 -1.0038
   33CHL1  H18C 2398   4.330   5.656   7.382 -0.0458 -1.0336  0.9076
   33CHL1   C12 2399   4.304   5.908   7.485  0.1929 -0.3518 -0.0552
   33CHL1  H12A 2400   4.239   5.887   7.573  1.6752  2.2149  1.7936
   33CHL1  H12B 2401   4.339   6.011   7.510 -1.4894  0.5051 -1.0605
   33CHL1   C11 2402   4.231   5.908   7.344 -0.4641 -0.1810 -0.0085
   33CHL1  H11A 2403   4.179   5.810   7.344  0.8356 -0.8921 -0.3531
   33CHL1  H11B 2404   4.149   5.984   7.343 -1.2006 -0.9658 -0.6554
   33CHL1    C9 2405   4.332   5.927   7.225 -0.1190  0.1051 -0.1069
   33CHL1    H9 2406   4.362   6.033   7.234  1.8960 -0.5474  1.5384
   33CHL1   C10 2407   4.271   5.906   7.089 -0.1811  0.3248  0.2272
   33CHL1   C19 2408   4.203   5.765   7.073  0.3122 -0.3393 -0.9624
   33CHL1  H19A 2409   4.279   5.685   7.066  0.7598  0.0531 -0.7070
   33CHL1  H19B 2410   4.132   5.744   7.156  0.6042  2.0945  0.0154
   33CHL1  H19C 2411   4.146   5.764   6.978  2.5476 -0.7746 -2.3618
   33CHL1    C1 2412   4.184   6.026   7.052  0.3435 -0.0824 -0.6994
   33CHL1   H1A 2413   4.093   6.038   7.115  0.7776 -0.7177  0.0655
   33CHL1   H1B 2414   4.236   6.123   7.069 -1.6357  0.8017  0.8591
   33CHL1    C2 2415   4.131   6.027   6.907  0.6572  0.0266 -0.5391
   33CHL1   H2A 2416   4.073   6.121   6.903  0.3663 -0.1904 -1.7291
   33CHL1   H2B 2417   4.067   5.937   6.889  0.8991  0.1278 -1.9642
   33CHL1   C20 2418   4.490   5.748   7.741  0.0739  0.3237  0.3462
   33CHL1   H20 2419   4.439   5.652   7.720  1.0705 -0.3831  1.0178
   33CHL1   C21 2420   4.391   5.837   7.815  0.5759 -0.2987 -0.3916
   33CHL1  H21A 2421   4.349   5.784   7.903  1.0157  1.3922  0.8882
   33CHL1  H21B 2422   4.305   5.843   7.745  0.2318 -0.2924  0.0330
   33CHL1  H21C 2423   4.423   5.940   7.844  1.8686 -0.3394 -1.5319
   33CHL1   C22 2424   4.609   5.705   7.831 -0.0113  0.6292 -0.4616
   33CHL1  H22A 2425   4.651   5.617   7.777 -0.8780  1.7713 -3.2049
   33CHL1  H22B 2426   4.679   5.791   7.831  2.0023 -0.9406  0.0614
   33CHL1   C23 2427   4.575   5.670   7.975  0.5338 -0.3238  0.5074
   33CHL1  H23A 2428   4.524   5.760   8.015  0.1206 -0.3022 -0.0430
   33CHL1  H23B 2429   4.499   5.588   7.972  1.1301 -0.8959 -2.2004
   33CHL1   C24 2430   4.696   5.625   8.053  0.1437  0.0925  0.3488
   33CHL1  H24A 2431   4.729   5.525   8.017 -0.6959 -0.3671  0.8196
   33CHL1  H24B 2432   4.771   5.700   8.021  1.0170 -0.7875  0.3061
   33CHL1   C25 2433   4.696   5.644   8.206  0.1233  0.4358  0.3025
   33CHL1   H25 2434   4.783   5.588   8.245 -0.4197 -0.3074  0.4587
   33CHL1   C26 2435   4.703   5.796   8.235  0.1759 -0.3086 -0.0757
   33CHL1  H26A 2436   4.621   5.853   8.188  1.2422  2.4581  1.2304
   33CHL1  H26B 2437   4.705   5.816   8.344  1.4289 -1.5643  0.1678
   33CHL1  H26C 2438   4.800   5.837   8.200 -0.1846  0.3180 -0.3446
   33CHL1   C27 2439   4.584   5.590   8.298 -0.0583 -0.5683  0.0088
   33CHL1  H27A 2440   4.600   5.602   8.407  0.5504  1.0968 -0.2387
   33CHL1  H27B 2441   4.494   5.647   8.269  0.2679  0.4339  0.8937
   33CHL1  H27C 2442   4.565   5.483   8.278 -1.6740  0.1772 -3.0400
   34CHL1    C3 2443   5.390   5.717   7.115  0.2235 -0.2046 -0.0229
   34CHL1    H3 2444   5.480   5.725   7.179  0.7177  1.3262 -0.8496
   34CHL1    O3 2445   5.425   5.731   6.973  0.2444  0.3629 -0.7539
   34CHL1   H3' 2446   5.348   5.700   6.926 -0.9519  2.1337 -0.0452
   34CHL1    C4 2447   5.330   5.574   7.125  0.4663 -0.2092  0.0967
   34CHL1   H4A 2448   5.243   5.557   7.057  1.8274 -2.0152 -1.3272
   34CHL1   H4B 2449   5.408   5.499   7.098 -0.4420 -1.3832  0.6496
   34CHL1    C5 2450   5.290   5.546   7.273 -0.2004 -0.3981  0.3691
   34CHL1    C6 2451   5.336   5.436   7.331 -0.3832 -0.0507  0.3355
   34CHL1    H6 2452   5.400   5.369   7.271 -0.1198  2.0825 -1.8794
   34CHL1    C7 2453   5.317   5.403   7.476 -0.7259  0.0300  0.2384
   34CHL1   H7A 2454   5.276   5.300   7.478 -4.0420  1.1852 -0.9340
   34CHL1   H7B 2455   5.415   5.409   7.527 -1.3508  2.6700  1.2890
   34CHL1    C8 2456   5.230   5.505   7.552 -0.4142 -0.0656 -0.2543
   34CHL1    H8 2457   5.127   5.477   7.521 -0.4780  0.0053 -0.1094
   34CHL1   C14 2458   5.243   5.502   7.709  0.2107 -0.0632 -0.2818
   34CHL1   H14 2459   5.345   5.541   7.732 -0.8637  2.0072  1.3816
   34CHL1   C15 2460   5.242   5.363   7.777 -0.9759 -0.1199  0.3800
   34CHL1  H15A 2461   5.158   5.316   7.722 -0.5256 -0.5315  0.0339
   34CHL1  H15B 2462   5.335   5.302   7.771  0.6715  1.6602  4.1701
   34CHL1   C16 2463   5.201   5.392   7.925 -0.2501 -0.2377  0.1188
   34CHL1  H16A 2464   5.102   5.344   7.944 -1.1421  0.9338 -1.3115
   34CHL1  H16B 2465   5.275   5.344   7.992  1.2052 -1.0134 -1.9538
   34CHL1   C17 2466   5.192   5.547   7.937 -0.4186  0.0760 -0.4540
   34CHL1   H17 2467   5.295   5.586   7.950 -0.8606  0.6335  1.6295
   34CHL1   C13 2468   5.149   5.589   7.795  0.9067  0.4078 -0.6856
   34CHL1   C18 2469   4.997   5.556   7.765  0.3235 -1.2395 -0.8554
   34CHL1  H18A 2470   4.974   5.453   7.800 -1.1407 -0.0580  1.8943
   34CHL1  H18B 2471   4.941   5.622   7.834  2.3281 -2.8786  2.6215
   34CHL1  H18C 2472   4.956   5.571   7.663 -0.7989 -0.9842 -0.3735
   34CHL1   C12 2473   5.196   5.726   7.747 -0.6387  0.6342 -0.1624
   34CHL1  H12A 2474   5.127   5.796   7.798 -0.6612  0.9389 -0.6002
   34CHL1  H12B 2475   5.300   5.747   7.778 -0.9542  1.9094  0.0914
   34CHL1   C11 2476   5.163   5.750   7.599  0.2570 -0.3427  0.0465
   34CHL1  H11A 2477   5.054   5.743   7.575  0.2289 -0.3048  0.1612
   34CHL1  H11B 2478   5.192   5.854   7.573 -0.7271 -0.1946 -0.5105
   34CHL1    C9 2479   5.241   5.652   7.501  0.6424 -0.7708  0.5205
   34CHL1    H9 2480   5.347   5.682   7.520  1.2607 -2.3631 -0.1860
   34CHL1   C10 2481   5.218   5.656   7.346 -0.0835  0.2970  0.0311
   34CHL1   C19 2482   5.068   5.628   7.315 -0.2018  0.4692  0.0094
   34CHL1  H19A 2483   5.049   5.643   7.207  3.8879  0.8073 -0.8324
   34CHL1  H19B 2484   5.035   5.524   7.337  1.6354  0.1514  1.6067
   34CHL1  H19C 2485   5.012   5.707   7.371  0.0838  0.8142 -0.1929
   34CHL1    C1 2486   5.267   5.804   7.303 -0.3256 -0.1562  0.4885
   34CHL1   H1A 2487   5.190   5.877   7.337 -0.4683 -0.5509  1.0228
   34CHL1   H1B 2488   5.362   5.818   7.358 -0.7795  0.0066  1.2514
   34CHL1    C2 2489   5.281   5.816   7.153 -0.0565  0.1605  0.9498
   34CHL1   H2A 2490   5.316   5.919   7.133 -0.4981  0.6458  2.5427
   34CHL1   H2B 2491   5.188   5.794   7.096  0.8662 -1.1880 -0.1012
   34CHL1   C20 2492   5.111   5.601   8.056 -0.2226 -0.0855 -0.1931
   34CHL1   H20 2493   5.002   5.578   8.050 -0.8325  2.5778 -1.1114
   34CHL1   C21 2494   5.127   5.752   8.048 -0.2069  0.2258  0.4475
   34CHL1  H21A 2495   5.139   5.798   8.149  1.9978 -1.2660  0.9382
   34CHL1  H21B 2496   5.038   5.800   8.002  1.2926  2.8418  0.0791
   34CHL1  H21C 2497   5.222   5.771   7.994 -1.3485 -3.6846 -3.5600
   34CHL1   C22 2498   5.176   5.545   8.186  0.0641  0.4041  0.0913
   34CHL1  H22A 2499   5.164   5.435   8.185  2.0168  0.1507 -1.3273
   34CHL1  H22B 2500   5.285   5.563   8.192  0.4849 -2.1460  1.0252
   34CHL1   C23 2501   5.090   5.591   8.309  1.1216  0.1740 -0.7732
   34CHL1  H23A 2502   5.087   5.701   8.315  1.2783  0.1071  1.0788
   34CHL1  H23B 2503   4.987   5.551   8.301  0.2115  2.1864  0.1968
   34CHL1   C24 2504   5.153   5.544   8.435 -0.1930  0.2697  0.1526
   34CHL1  H24A 2505   5.195   5.442   8.427 -0.8707 -0.0186  0.2767
   34CHL1  H24B 2506   5.237   5.607   8.473 -1.4600  1.6974  0.6861
   34CHL1   C25 2507   5.059   5.541   8.566 -0.5199 -0.1674  0.6501
   34CHL1   H25 2508   4.995   5.450   8.555  2.5819 -2.3949 -0.5140
   34CHL1   C26 2509   5.142   5.526   8.693 -0.1712  0.2955 -0.0699
   34CHL1  H26A 2510   5.187   5.426   8.680  0.1472  0.4115  0.1375
   34CHL1  H26B 2511   5.212   5.609   8.714  0.3657  0.7383 -3.1893
   34CHL1  H26C 2512   5.069   5.530   8.777 -0.0043  2.6351  0.0512
   34CHL1   C27 2513   4.970   5.660   8.579  1.1858 -0.1287  0.1763
   34CHL1  H27A 2514   5.034   5.751   8.589  1.6508 -0.5201  0.8742
   34CHL1  H27B 2515   4.902   5.677   8.493 -0.3903 -1.1765  1.1835
   34CHL1  H27C 2516   4.900   5.654   8.664  0.5313  1.3886 -0.2147
   35CHL1    C3 2517   0.876   0.679   7.218 -0.1613 -0.1809  0.4897
   35CHL1    H3 2518   0.843   0.578   7.251 -1.8453  0.7653  1.8671
   35CHL1    O3 2519   0.847   0.701   7.083  0.1172 -0.4799 -0.3814
   35CHL1   H3' 2520   0.896   0.780   7.057  1.6598 -1.7248 -1.4401
   35CHL1    C4 2521   0.807   0.785   7.299 -0.0784 -0.0575 -0.3618
   35CHL1   H4A 2522   0.809   0.886   7.253  1.1989 -0.1469 -0.5270
   35CHL1   H4B 2523   0.700   0.753   7.299  0.4818 -2.0467 -0.3394
   35CHL1    C5 2524   0.865   0.802   7.442  0.7858 -0.2709 -0.4934
   35CHL1    C6 2525   0.780   0.804   7.546  0.3999 -0.1194  0.4747
   35CHL1    H6 2526   0.673   0.794   7.524 -0.0394  3.3672  0.4300
   35CHL1    C7 2527   0.818   0.838   7.683 -0.8501  0.0974 -0.0269
   35CHL1   H7A 2528   0.748   0.915   7.722 -1.9756  0.0674 -1.9138
   35CHL1   H7B 2529   0.795   0.749   7.746  1.1227 -0.4036  0.0568
   35CHL1    C8 2530   0.976   0.876   7.702  0.2709 -0.2234  0.0002
   35CHL1    H8 2531   0.988   0.981   7.669  0.8082 -0.2929 -0.0272
   35CHL1   C14 2532   1.025   0.861   7.851  0.0670  0.2947  0.4049
   35CHL1   H14 2533   1.006   0.753   7.870  0.4349  0.4289  1.5648
   35CHL1   C15 2534   0.934   0.917   7.962  0.0020  0.4862  0.3538
   35CHL1  H15A 2535   0.911   1.024   7.947 -0.8571  0.2192 -0.3175
   35CHL1  H15B 2536   0.843   0.854   7.956  0.5470 -0.2088 -0.9887
   35CHL1   C16 2537   1.022   0.890   8.084 -0.1545  0.0315 -0.3308
   35CHL1  H16A 2538   1.046   0.978   8.148 -0.6893 -0.5530  0.7074
   35CHL1  H16B 2539   0.971   0.816   8.150 -1.6137  0.1998 -1.2141
   35CHL1   C17 2540   1.162   0.838   8.035  0.5973  0.0258 -0.2397
   35CHL1   H17 2541   1.147   0.728   8.035 -0.9227  0.1800  1.6064
   35CHL1   C13 2542   1.168   0.883   7.887  0.3403  0.4068  0.4962
   35CHL1   C18 2543   1.207   1.028   7.874  0.4780  0.7895 -0.0660
   35CHL1  H18A 2544   1.168   1.082   7.785  0.7813 -0.2616 -0.8551
   35CHL1  H18B 2545   1.162   1.080   7.961  0.3376 -1.6028  1.3629
   35CHL1  H18C 2546   1.317   1.042   7.863  0.9032 -0.5953  2.0006
   35CHL1   C12 2547   1.249   0.804   7.778  0.9341  0.2220 -0.4777
   35CHL1  H12A 2548   1.358   0.819   7.794  1.2695 -0.4929 -1.9182
   35CHL1  H12B 2549   1.223   0.699   7.807  3.5170 -0.4811 -0.4623
   35CHL1   C11 2550   1.211   0.822   7.630 -0.2368 -0.0844 -0.4834
   35CHL1  H11A 2551   1.243   0.922   7.593 -2.0526  0.0808 -1.7716
   35CHL1  H11B 2552   1.275   0.748   7.577 -0.6556 -0.2750 -0.7225
   35CHL1    C9 2553   1.059   0.794   7.605 -0.0783 -0.8049 -0.0476
   35CHL1    H9 2554   1.046   0.691   7.644  1.6301 -0.4755  1.5656
   35CHL1   C10 2555   1.020   0.812   7.455 -0.1229  0.8506 -0.6537
   35CHL1   C19 2556   1.048   0.953   7.395 -0.4872  0.2106 -0.5894
   35CHL1  H19A 2557   1.000   1.038   7.448  0.1816  0.3121 -0.1299
   35CHL1  H19B 2558   1.156   0.975   7.386 -0.1088  0.1844  2.7345
   35CHL1  H19C 2559   1.016   0.947   7.289  2.4695 -2.5112 -1.5049
   35CHL1    C1 2560   1.072   0.691   7.378 -0.2479  0.0168  0.4116
   35CHL1   H1A 2561   1.181   0.701   7.360 -0.7585  0.9135 -2.7807
   35CHL1   H1B 2562   1.068   0.594   7.432  2.9602 -1.4070 -1.6319
   35CHL1    C2 2563   1.028   0.687   7.227  0.2675  0.3469  0.5231
   35CHL1   H2A 2564   1.078   0.610   7.165 -2.2522 -1.5921  0.7608
   35CHL1   H2B 2565   1.068   0.781   7.183 -1.0834  0.9586  0.5318
   35CHL1   C20 2566   1.282   0.875   8.127  0.0514  0.5172 -0.3299
   35CHL1   H20 2567   1.302   0.984   8.132  0.3108  0.6556 -2.9970
   35CHL1   C21 2568   1.412   0.809   8.074  0.0495 -0.2976 -0.5057
   35CHL1  H21A 2569   1.452   0.868   7.988  0.3307 -0.2112 -0.3179
   35CHL1  H21B 2570   1.397   0.706   8.035 -2.1664  0.8770 -3.0502
   35CHL1  H21C 2571   1.491   0.804   8.152 -0.7299 -1.8465  0.2103
   35CHL1   C22 2572   1.251   0.829   8.275  0.2403  0.7365 -0.2801
   35CHL1  H22A 2573   1.149   0.868   8.294  0.1030  1.4679 -2.2860
   35CHL1  H22B 2574   1.237   0.719   8.282  1.2648  0.7038  3.5057
   35CHL1   C23 2575   1.350   0.876   8.379  0.8474  0.7824 -0.2770
   35CHL1  H23A 2576   1.447   0.823   8.366  0.7205  0.3987  0.3295
   35CHL1  H23B 2577   1.370   0.985   8.376  1.5374  0.6944  0.6944
   35CHL1   C24 2578   1.296   0.839   8.519 -0.5975  0.2256  0.0484
   35CHL1  H24A 2579   1.203   0.899   8.531 -1.0119 -0.1330 -1.2587
   35CHL1  H24B 2580   1.267   0.732   8.531 -0.8511  0.4674  1.8907
   35CHL1   C25 2581   1.400   0.865   8.629  0.2771  0.4591  0.6980
   35CHL1   H25 2582   1.489   0.805   8.603 -0.4584 -0.2504 -0.2767
   35CHL1   C26 2583   1.439   1.015   8.646  0.8105  0.2314  0.3700
   35CHL1  H26A 2584   1.500   1.050   8.560 -0.7188  0.3594 -0.7215
   35CHL1  H26B 2585   1.355   1.086   8.662 -0.3473 -0.6826 -1.3539
   35CHL1  H26C 2586   1.508   1.012   8.733  0.8955 -1.2231  0.2751
   35CHL1   C27 2587   1.331   0.831   8.758 -0.4749  0.2931  0.1630
   35CHL1  H27A 2588   1.265   0.742   8.755  0.3346 -0.3015 -1.5928
   35CHL1  H27B 2589   1.262   0.915   8.779 -0.5939  0.8860 -2.3009
   35CHL1  H27C 2590   1.403   0.817   8.842  0.4625  1.5035 -0.4053
   36CHL1    C3 2591   2.325   4.830   7.103 -0.1140  0.7592  0.4963
   36CHL1    H3 2592   2.292   4.725   7.084  2.3317 -0.1546  0.9320
   36CHL1    O3 2593   2.314   4.908   6.986 -0.0756 -0.4555  0.2730
   36CHL1   H3' 2594   2.330   4.999   7.011 -1.3582  0.8551 -3.1153
   36CHL1    C4 2595   2.220   4.903   7.198  0.4541 -0.1058 -0.1499
   36CHL1   H4A 2596   2.245   5.011   7.196 -1.2285  0.3160 -0.5561
   36CHL1   H4B 2597   2.114   4.888   7.167 -0.0630 -0.6382  1.7430
   36CHL1    C5 2598   2.234   4.850   7.336 -0.6206 -0.0588  0.2014
   36CHL1    C6 2599   2.132   4.789   7.394 -0.2616  0.5431 -0.2361
   36CHL1    H6 2600   2.037   4.765   7.345 -1.0850 -1.7583  2.2490
   36CHL1    C7 2601   2.145   4.725   7.535 -0.5388 -0.5573  0.3924
   36CHL1   H7A 2602   2.060   4.736   7.606  0.1930  1.0218  1.0748
   36CHL1   H7B 2603   2.173   4.619   7.517  1.6548 -0.0317  0.4754
   36CHL1    C8 2604   2.267   4.788   7.616 -0.4143 -0.0218 -0.2929
   36CHL1    H8 2605   2.247   4.894   7.644 -0.9593 -0.5320  1.3464
   36CHL1   C14 2606   2.287   4.703   7.741 -0.1675 -1.4046 -0.1318
   36CHL1   H14 2607   2.302   4.598   7.708 -3.4659 -2.4764  1.2869
   36CHL1   C15 2608   2.174   4.693   7.851 -0.2725  0.2292  0.1402
   36CHL1  H15A 2609   2.136   4.793   7.882 -1.5396 -0.4231  0.7672
   36CHL1  H15B 2610   2.091   4.631   7.812 -0.8512  1.7467 -1.1717
   36CHL1   C16 2611   2.247   4.640   7.971  0.2817  1.0942  0.3080
   36CHL1  H16A 2612   2.220   4.705   8.058  0.5177 -0.0871  1.2867
   36CHL1  H16B 2613   2.209   4.538   7.991 -2.1986  1.9736  0.3701
   36CHL1   C17 2614   2.400   4.648   7.939  1.1057  0.4031 -0.5065
   36CHL1   H17 2615   2.429   4.549   7.899  0.0983 -0.6890  1.3576
   36CHL1   C13 2616   2.412   4.748   7.824 -0.0749 -0.0314  0.5939
   36CHL1   C18 2617   2.388   4.893   7.875  0.1066  0.4265 -0.4486
   36CHL1  H18A 2618   2.307   4.896   7.951 -0.7708  1.5796 -1.3973
   36CHL1  H18B 2619   2.477   4.928   7.930  1.3505 -1.0897 -1.4160
   36CHL1  H18C 2620   2.373   4.957   7.786 -2.7670 -0.8781 -1.0321
   36CHL1   C12 2621   2.546   4.742   7.737 -0.1305  0.3611  0.1340
   36CHL1  H12A 2622   2.641   4.779   7.782 -0.2134  2.9947 -1.6255
   36CHL1  H12B 2623   2.557   4.633   7.721  0.8373  0.6628 -1.4004
   36CHL1   C11 2624   2.526   4.819   7.605  0.3844  0.4953  0.0496
   36CHL1  H11A 2625   2.518   4.919   7.651  0.8211 -0.5832  2.6673
   36CHL1  H11B 2626   2.604   4.822   7.526  0.3602 -0.1025 -0.0037
   36CHL1    C9 2627   2.394   4.787   7.533  0.1066 -0.4614 -0.0559
   36CHL1    H9 2628   2.413   4.680   7.509 -0.8325 -0.2468 -1.9601
   36CHL1   C10 2629   2.384   4.858   7.396  0.9303  0.6976 -0.0715
   36CHL1   C19 2630   2.421   5.009   7.421  0.9408 -0.2383  0.1629
   36CHL1  H19A 2631   2.364   5.055   7.505  1.1009  2.3875 -1.1044
   36CHL1  H19B 2632   2.529   5.020   7.445  0.9738  0.3693 -0.2667
   36CHL1  H19C 2633   2.387   5.074   7.338 -0.4109  0.1731  1.0018
   36CHL1    C1 2634   2.479   4.783   7.294 -0.3269 -0.8612  0.2043
   36CHL1   H1A 2635   2.584   4.801   7.326  0.0981  1.3480 -2.1360
   36CHL1   H1B 2636   2.467   4.674   7.276  0.4988 -1.2563  1.8332
   36CHL1    C2 2637   2.471   4.839   7.153  0.1708 -0.3337  0.3567
   36CHL1   H2A 2638   2.534   4.794   7.074  2.9415  0.5933  1.9143
   36CHL1   H2B 2639   2.492   4.948   7.152  1.9319 -0.6328 -1.7945
   36CHL1   C20 2640   2.487   4.673   8.067 -0.4916  0.3808 -1.0372
   36CHL1   H20 2641   2.452   4.771   8.106  0.1346  0.2067 -0.0103
   36CHL1   C21 2642   2.639   4.690   8.036  0.0255  0.7383  0.6486
   36CHL1  H21A 2643   2.667   4.619   7.955  1.6788  0.7681  1.1619
   36CHL1  H21B 2644   2.699   4.661   8.125 -0.3288 -0.9934  0.3688
   36CHL1  H21C 2645   2.654   4.793   7.998  1.2159 -0.6914 -3.1944
   36CHL1   C22 2646   2.459   4.574   8.184 -0.1909 -0.9850  0.0495
   36CHL1  H22A 2647   2.359   4.526   8.184 -0.8058  0.1195  2.5997
   36CHL1  H22B 2648   2.529   4.492   8.159 -0.9627 -1.6045 -0.1007
   36CHL1   C23 2649   2.479   4.640   8.320  0.0599  0.4444 -0.1741
   36CHL1  H23A 2650   2.583   4.675   8.329 -0.0252  0.1328  3.6239
   36CHL1  H23B 2651   2.411   4.728   8.321 -1.0044 -0.3542  0.9488
   36CHL1   C24 2652   2.454   4.544   8.431  0.2829  0.5566  0.0797
   36CHL1  H24A 2653   2.394   4.453   8.407  0.3330  0.0254  1.8152
   36CHL1  H24B 2654   2.555   4.517   8.468  0.0391 -2.2516 -1.0185
   36CHL1   C25 2655   2.385   4.608   8.547 -0.3532 -0.1060 -0.3006
   36CHL1   H25 2656   2.280   4.629   8.519 -1.3720 -0.3364  2.9247
   36CHL1   C26 2657   2.383   4.510   8.667  0.3575 -0.4516 -0.3421
   36CHL1  H26A 2658   2.486   4.484   8.702  0.4616  1.6776  1.1550
   36CHL1  H26B 2659   2.331   4.559   8.753 -2.1384 -1.2676 -1.3119
   36CHL1  H26C 2660   2.334   4.418   8.629 -0.3964 -0.0673 -0.3121
   36CHL1   C27 2661   2.440   4.746   8.596  0.1469 -0.0062 -1.3253
   36CHL1  H27A 2662   2.551   4.742   8.602  0.2143  2.0604 -0.4747
   36CHL1  H27B 2663   2.401   4.825   8.529 -2.0106 -0.3348 -0.5451
   36CHL1  H27C 2664   2.409   4.772   8.700  1.7507  0.9460 -1.0576
   37CHL1    C3 2665   4.858   0.913   6.965  0.0463  0.5402 -0.3384
   37CHL1    H3 2666   4.790   0.826   6.964 -0.0263  0.5123  1.8893
   37CHL1    O3 2667   4.928   0.926   6.842  0.2705  0.4755  0.2307
   37CHL1   H3' 2668   4.959   0.835   6.835 -1.8316 -0.5816  2.8484
   37CHL1    C4 2669   4.785   1.044   7.002  0.3035  0.0547 -0.0457
   37CHL1   H4A 2670   4.864   1.121   6.991  0.9158 -0.4270  0.8392
   37CHL1   H4B 2671   4.706   1.056   6.924  1.7923 -2.3802 -2.0973
   37CHL1    C5 2672   4.726   1.045   7.145 -0.9338  0.0867 -0.0302
   37CHL1    C6 2673   4.602   1.074   7.173 -0.2999 -0.0251 -0.1391
   37CHL1    H6 2674   4.527   1.084   7.094  0.3052  0.0165 -0.7131
   37CHL1    C7 2675   4.553   1.092   7.312  0.4838  0.2792  0.1240
   37CHL1   H7A 2676   4.507   1.191   7.331  1.3454  0.6069  0.5827
   37CHL1   H7B 2677   4.478   1.013   7.329 -0.0814  0.5145 -1.1799
   37CHL1    C8 2678   4.658   1.083   7.426 -0.1945 -0.0921 -0.1278
   37CHL1    H8 2679   4.701   1.184   7.444  0.5351  0.1472 -2.7931
   37CHL1   C14 2680   4.596   1.030   7.561  0.0137  0.7601 -0.0076
   37CHL1   H14 2681   4.567   0.924   7.540  1.6556  0.3180 -0.2086
   37CHL1   C15 2682   4.467   1.108   7.602 -0.4559  0.7074 -0.3819
   37CHL1  H15A 2683   4.481   1.217   7.591  1.9065  0.6686  1.5633
   37CHL1  H15B 2684   4.371   1.067   7.564 -1.8039  0.3758  3.0108
   37CHL1   C16 2685   4.463   1.078   7.756 -0.5315 -0.0942 -0.4789
   37CHL1  H16A 2686   4.473   1.172   7.815  0.9094  0.6970 -1.8911
   37CHL1  H16B 2687   4.384   1.011   7.795 -2.8272  2.1631 -0.9842
   37CHL1   C17 2688   4.596   1.005   7.793  0.2391 -0.0665 -0.3741
   37CHL1   H17 2689   4.561   0.900   7.801  0.4553 -0.0548  0.9238
   37CHL1   C13 2690   4.687   1.031   7.681 -0.1914 -0.0252  0.8759
   37CHL1   C18 2691   4.759   1.165   7.702 -0.3857  0.2486 -0.7553
   37CHL1  H18A 2692   4.809   1.183   7.604  2.8952 -2.1596  0.3059
   37CHL1  H18B 2693   4.685   1.243   7.731  0.2735  1.2674 -1.7293
   37CHL1  H18C 2694   4.838   1.162   7.780  1.6365 -1.1907 -2.7540
   37CHL1   C12 2695   4.789   0.919   7.645 -0.3445  0.0701 -0.3083
   37CHL1  H12A 2696   4.869   0.898   7.719 -1.7782  0.0716  1.2817
   37CHL1  H12B 2697   4.734   0.823   7.648  0.5013 -0.4212  2.7637
   37CHL1   C11 2698   4.863   0.942   7.510 -0.4665  0.1357 -0.1043
   37CHL1  H11A 2699   4.935   1.026   7.521 -1.0586  0.9893 -2.2240
   37CHL1  H11B 2700   4.919   0.848   7.491 -0.5485 -0.1738  1.1435
   37CHL1    C9 2701   4.769   0.980   7.389 -0.1450 -0.0708 -0.3861
   37CHL1    H9 2702   4.711   0.887   7.374 -0.3808  0.1189 -0.6845
   37CHL1   C10 2703   4.834   1.009   7.252  0.8107 -0.0591 -0.3122
   37CHL1   C19 2704   4.934   1.123   7.274  0.0920 -0.1654  0.6247
   37CHL1  H19A 2705   4.993   1.148   7.183 -1.8416  1.7916 -0.1588
   37CHL1  H19B 2706   4.883   1.218   7.302 -0.4294  0.0738 -1.0389
   37CHL1  H19C 2707   5.017   1.089   7.340  0.3699 -1.0625 -0.1747
   37CHL1    C1 2708   4.911   0.875   7.212 -0.3253 -0.0927 -0.2964
   37CHL1   H1A 2709   4.990   0.843   7.283  0.1302 -0.6216 -1.0260
   37CHL1   H1B 2710   4.834   0.795   7.213 -0.9850  0.5357  0.7378
   37CHL1    C2 2711   4.969   0.881   7.073 -0.0602 -0.0801 -0.6737
   37CHL1   H2A 2712   5.014   0.781   7.052  1.4090  0.2843  0.5499
   37CHL1   H2B 2713   5.047   0.960   7.069  0.0661 -0.1066  0.6709
   37CHL1   C20 2714   4.651   1.035   7.948  0.0935  0.0861  0.3427
   37CHL1   H20 2715   4.665   1.144   7.964  0.2194 -0.2019  2.3732
   37CHL1   C21 2716   4.790   0.966   7.970 -0.0948 -0.1820 -0.1586
   37CHL1  H21A 2717   4.872   0.989   7.899 -0.2130  2.4643  0.4331
   37CHL1  H21B 2718   4.761   0.859   7.974 -0.7044 -0.0222 -0.2342
   37CHL1  H21C 2719   4.837   0.990   8.068  2.7477  3.1126 -2.0777
   37CHL1   C22 2720   4.550   0.987   8.055  0.0838  0.0005  0.5101
   37CHL1  H22A 2721   4.449   1.019   8.021 -1.0408 -1.9013  1.8929
   37CHL1  H22B 2722   4.549   0.876   8.056 -0.7485 -0.0366 -1.4175
   37CHL1   C23 2723   4.588   1.044   8.193  0.5393  0.6188  0.6203
   37CHL1  H23A 2724   4.676   0.998   8.243  1.6013  1.6387 -0.2565
   37CHL1  H23B 2725   4.610   1.151   8.175  0.6795  0.7740  1.6582
   37CHL1   C24 2726   4.463   1.036   8.279  0.4340  0.0609 -0.0524
   37CHL1  H24A 2727   4.392   1.106   8.231 -1.3049 -0.0692  2.1712
   37CHL1  H24B 2728   4.435   0.929   8.288  1.6101 -0.2150  0.5055
   37CHL1   C25 2729   4.499   1.085   8.415  0.3397 -0.0982 -0.4336
   37CHL1   H25 2730   4.566   1.169   8.389  0.1681 -0.7429 -3.2149
   37CHL1   C26 2731   4.378   1.147   8.482  0.4306 -0.3263 -0.4770
   37CHL1  H26A 2732   4.332   1.204   8.398 -0.0043 -1.0060 -0.7039
   37CHL1  H26B 2733   4.314   1.065   8.521 -0.3767  0.7778  0.5845
   37CHL1  H26C 2734   4.396   1.215   8.568  1.0488 -2.6261  1.2934
   37CHL1   C27 2735   4.590   0.998   8.501 -0.3435  0.7685 -0.9934
   37CHL1  H27A 2736   4.609   1.042   8.601 -0.1600 -1.1820 -0.1256
   37CHL1  H27B 2737   4.535   0.903   8.520  2.6298 -0.7073  0.9374
   37CHL1  H27C 2738   4.685   0.973   8.449  0.9982 -0.4025  1.8266
   38CHL1    C3 2739   3.051   1.765   6.788  0.3183 -0.0995  0.4639
   38CHL1    H3 2740   3.061   1.663   6.830 -0.7745  0.0359  1.0899
   38CHL1    O3 2741   3.044   1.752   6.652  0.1334 -0.6711  0.0493
   38CHL1   H3' 2742   3.041   1.838   6.609 -1.5900 -0.9784 -0.4914
   38CHL1    C4 2743   2.942   1.845   6.856  0.3713  0.6808  0.0147
   38CHL1   H4A 2744   2.945   1.950   6.819 -0.4398  0.3756 -0.9549
   38CHL1   H4B 2745   2.844   1.809   6.817 -1.4028  0.8981  3.8399
   38CHL1    C5 2746   2.958   1.845   7.006  0.1088  0.2516  0.4575
   38CHL1    C6 2747   2.861   1.801   7.091 -0.5574  0.1141  0.2434
   38CHL1    H6 2748   2.767   1.756   7.057  0.3158 -0.3095 -1.7232
   38CHL1    C7 2749   2.871   1.803   7.242 -0.2345  0.2350 -0.3038
   38CHL1   H7A 2750   2.775   1.843   7.282 -0.6446 -0.4434 -0.5830
   38CHL1   H7B 2751   2.875   1.699   7.281 -1.4979  0.8985  1.7447
   38CHL1    C8 2752   2.993   1.880   7.294  0.2361  0.0849 -0.4258
   38CHL1    H8 2753   2.965   1.987   7.297  0.8972  0.2550 -0.1893
   38CHL1   C14 2754   3.010   1.829   7.439 -1.0502  0.0718  0.3521
   38CHL1   H14 2755   3.044   1.723   7.438 -0.1504  0.3489  0.7157
   38CHL1   C15 2756   2.901   1.848   7.544 -0.7385 -0.8897  1.1930
   38CHL1  H15A 2757   2.836   1.936   7.522  0.2885 -0.3270  0.3205
   38CHL1  H15B 2758   2.839   1.756   7.533 -0.9039 -0.7253  0.6944
   38CHL1   C16 2759   2.974   1.847   7.675 -0.0841 -0.5653 -0.4055
   38CHL1  H16A 2760   2.949   1.937   7.737  0.7030 -0.7898  0.2503
   38CHL1  H16B 2761   2.947   1.767   7.747 -0.9884  2.7711  3.3795
   38CHL1   C17 2762   3.130   1.851   7.647  0.0679 -0.1628 -0.6172
   38CHL1   H17 2763   3.161   1.744   7.652  0.8527 -0.0131 -1.8572
   38CHL1   C13 2764   3.139   1.899   7.497 -0.7498  0.1633 -0.0845
   38CHL1   C18 2765   3.119   2.057   7.502  0.7695  0.0229 -0.3737
   38CHL1  H18A 2766   3.024   2.094   7.546  0.7385  0.5073 -0.8301
   38CHL1  H18B 2767   3.199   2.092   7.569 -0.7022  0.7900  1.0471
   38CHL1  H18C 2768   3.121   2.107   7.403  0.4506 -0.3949 -0.5966
   38CHL1   C12 2769   3.261   1.861   7.415 -0.0291  0.4873 -0.1422
   38CHL1  H12A 2770   3.342   1.924   7.458  0.0681 -0.4081  1.0254
   38CHL1  H12B 2771   3.278   1.754   7.438  0.3096  0.4412 -0.5971
   38CHL1   C11 2772   3.253   1.895   7.270 -0.1661 -0.0012  0.1093
   38CHL1  H11A 2773   3.260   2.003   7.246  1.8043 -0.1242 -0.0179
   38CHL1  H11B 2774   3.336   1.850   7.212 -0.0641 -0.2900  0.4766
   38CHL1    C9 2775   3.116   1.850   7.206 -0.5834 -0.8152  0.9867
   38CHL1    H9 2776   3.107   1.739   7.207 -3.0835 -0.6729  0.3439
   38CHL1   C10 2777   3.094   1.893   7.060  0.1383  0.3230  1.0252
   38CHL1   C19 2778   3.088   2.046   7.042  0.0435 -0.2271  0.0671
   38CHL1  H19A 2779   3.186   2.097   7.055 -0.3579 -0.0937  3.3985
   38CHL1  H19B 2780   3.060   2.071   6.938 -0.7534 -1.0158  0.0826
   38CHL1  H19C 2781   3.016   2.089   7.115 -0.5754  1.7587 -1.6451
   38CHL1    C1 2782   3.205   1.832   6.967  0.4461  0.4472 -0.0373
   38CHL1   H1A 2783   3.303   1.881   6.987  0.0147  1.3303 -0.0880
   38CHL1   H1B 2784   3.210   1.729   7.010  3.1251  0.5912  0.1852
   38CHL1    C2 2785   3.184   1.833   6.811  0.6005  0.4466 -0.4772
   38CHL1   H2A 2786   3.274   1.788   6.762  0.4553  0.7545 -1.0355
   38CHL1   H2B 2787   3.177   1.937   6.774  0.9304  0.3740 -0.7518
   38CHL1   C20 2788   3.210   1.924   7.758 -0.0694  0.1966 -0.6533
   38CHL1   H20 2789   3.157   2.022   7.761 -0.0043  0.2454  3.2570
   38CHL1   C21 2790   3.352   1.936   7.714 -0.4407 -0.1864 -0.5025
   38CHL1  H21A 2791   3.394   1.837   7.688 -1.3422 -0.6520 -0.2382
   38CHL1  H21B 2792   3.412   1.961   7.804 -1.1690 -1.9116  0.5303
   38CHL1  H21C 2793   3.367   2.008   7.631  1.9188  0.9373  0.7929
   38CHL1   C22 2794   3.186   1.862   7.901  0.2351  0.7136  0.4200
   38CHL1  H22A 2795   3.076   1.876   7.909  0.0768 -0.2212  0.0425
   38CHL1  H22B 2796   3.218   1.756   7.912  3.3331  1.5853  0.7074
   38CHL1   C23 2797   3.256   1.941   8.017  0.0969 -0.4325  0.4699
   38CHL1  H23A 2798   3.361   1.903   8.020  0.1209 -0.3025  2.0595
   38CHL1  H23B 2799   3.251   2.051   8.004  5.4218 -0.1437 -1.5301
   38CHL1   C24 2800   3.200   1.889   8.145 -0.2506  0.7843  0.6706
   38CHL1  H24A 2801   3.095   1.927   8.150  0.1239  1.9838 -0.0327
   38CHL1  H24B 2802   3.192   1.779   8.149 -1.2220  0.7762 -0.6070
   38CHL1   C25 2803   3.281   1.932   8.275 -0.0841  0.0137  0.4326
   38CHL1   H25 2804   3.310   2.039   8.273 -0.9237  0.2313 -1.5999
   38CHL1   C26 2805   3.199   1.893   8.405  0.4018 -0.0467  0.2740
   38CHL1  H26A 2806   3.116   1.965   8.419  1.7300  1.2787  1.6332
   38CHL1  H26B 2807   3.161   1.791   8.382 -0.2360  0.2713 -0.1239
   38CHL1  H26C 2808   3.267   1.887   8.492  1.4441  0.6158 -0.4759
   38CHL1   C27 2809   3.418   1.852   8.278  0.2948  0.0405 -0.5747
   38CHL1  H27A 2810   3.473   1.874   8.372 -0.1396 -2.1470  0.2610
   38CHL1  H27B 2811   3.396   1.744   8.265  1.5201 -0.7612  2.8766
   38CHL1  H27C 2812   3.483   1.874   8.191  0.9087 -0.2146 -0.1859
   39CHL1    C3 2813   1.809   1.527   6.846 -0.6528 -0.4905 -0.0863
   39CHL1    H3 2814   1.813   1.637   6.859  1.5934 -0.1928 -2.5028
   39CHL1    O3 2815   1.810   1.503   6.709  0.3721  0.3612  0.4955
   39CHL1   H3' 2816   1.782   1.412   6.701  1.9505 -0.0220 -1.1683
   39CHL1    C4 2817   1.942   1.474   6.901  0.5127  0.3782  0.1978
   39CHL1   H4A 2818   1.945   1.364   6.889  0.1359  0.4827 -0.9925
   39CHL1   H4B 2819   2.017   1.521   6.834  1.1908  0.7196  1.1658
   39CHL1    C5 2820   1.952   1.508   7.050 -0.4336 -0.1330  0.2107
   39CHL1    C6 2821   2.046   1.588   7.096 -0.5362 -0.6630 -0.1701
   39CHL1    H6 2822   2.117   1.627   7.022 -1.2408 -0.8192 -0.9341
   39CHL1    C7 2823   2.046   1.649   7.237  0.0618  0.5437  0.7211
   39CHL1   H7A 2824   2.147   1.646   7.283  0.5031 -4.6598  0.0944
   39CHL1   H7B 2825   1.992   1.745   7.247 -1.5205 -0.3172  0.6791
   39CHL1    C8 2826   1.956   1.563   7.334 -0.1846  0.3896 -0.4548
   39CHL1    H8 2827   2.007   1.466   7.352  0.1458  0.8944  1.5464
   39CHL1   C14 2828   1.941   1.637   7.461  0.1022  0.1419 -0.0141
   39CHL1   H14 2829   1.883   1.727   7.432  0.6238  0.0448 -1.4650
   39CHL1   C15 2830   2.069   1.689   7.532  0.1430 -0.2183 -0.2082
   39CHL1  H15A 2831   2.142   1.605   7.537  1.8240  1.1709 -0.3060
   39CHL1  H15B 2832   2.108   1.780   7.481  0.9896  0.0739  0.9367
   39CHL1   C16 2833   2.023   1.713   7.682 -0.4869 -0.3483 -0.1507
   39CHL1  H16A 2834   2.102   1.665   7.743  0.9238 -0.0748 -1.6929
   39CHL1  H16B 2835   2.025   1.821   7.709  0.9627 -0.5098  0.4583
   39CHL1   C17 2836   1.879   1.659   7.694 -0.1698  0.4520 -0.2960
   39CHL1   H17 2837   1.808   1.743   7.683  0.3102  0.8834 -0.1336
   39CHL1   C13 2838   1.857   1.568   7.568  0.4077  0.1730  0.2654
   39CHL1   C18 2839   1.920   1.432   7.600  0.7473 -0.2387 -0.4477
   39CHL1  H18A 2840   1.859   1.368   7.668  2.6592 -2.4210 -0.6572
   39CHL1  H18B 2841   1.925   1.377   7.503 -1.2270  0.2392 -0.8616
   39CHL1  H18C 2842   2.021   1.437   7.645 -0.2588  0.7057  1.8567
   39CHL1   C12 2843   1.712   1.551   7.513  0.3671  0.0286 -0.0139
   39CHL1  H12A 2844   1.648   1.492   7.582  0.8703 -0.7255 -0.1824
   39CHL1  H12B 2845   1.679   1.657   7.515  0.5640  0.0936  1.7983
   39CHL1   C11 2846   1.710   1.472   7.379 -0.7696  0.1686 -0.0697
   39CHL1  H11A 2847   1.744   1.371   7.409  2.8496  1.1959 -0.2261
   39CHL1  H11B 2848   1.607   1.480   7.338 -1.8731 -1.0488  2.2542
   39CHL1    C9 2849   1.823   1.537   7.275  0.4385  0.4204  0.2888
   39CHL1    H9 2850   1.790   1.639   7.248  1.1160  0.1356 -1.8252
   39CHL1   C10 2851   1.829   1.470   7.133  0.4556  0.5906 -1.1459
   39CHL1   C19 2852   1.835   1.312   7.151 -0.3417  0.2379  0.1175
   39CHL1  H19A 2853   1.744   1.284   7.209  1.2523 -0.3919  2.4462
   39CHL1  H19B 2854   1.849   1.267   7.050 -0.3411  2.9294 -1.1719
   39CHL1  H19C 2855   1.919   1.288   7.219  0.1397  2.7507  0.4917
   39CHL1    C1 2856   1.696   1.515   7.057  0.3340 -0.0497  0.4783
   39CHL1   H1A 2857   1.613   1.461   7.107 -1.0604 -0.5844 -2.1861
   39CHL1   H1B 2858   1.680   1.625   7.059  1.5753  0.1320  1.4026
   39CHL1    C2 2859   1.685   1.474   6.908  0.9362  0.0373 -0.7380
   39CHL1   H2A 2860   1.590   1.510   6.861  1.5814  1.7411 -0.8032
   39CHL1   H2B 2861   1.680   1.364   6.905  0.3744  0.0727 -2.7377
   39CHL1   C20 2862   1.853   1.602   7.836 -0.1686  0.3147  0.6186
   39CHL1   H20 2863   1.930   1.523   7.853 -0.9820 -0.5754  0.2766
   39CHL1   C21 2864   1.717   1.531   7.850  0.3138  0.2011 -0.1952
   39CHL1  H21A 2865   1.708   1.483   7.949  5.0464  0.4698  0.6067
   39CHL1  H21B 2866   1.707   1.457   7.768  1.8295 -1.0946  0.7556
   39CHL1  H21C 2867   1.648   1.615   7.826 -0.1234  0.1322  0.7683
   39CHL1   C22 2868   1.882   1.710   7.947 -0.1543  0.6234  0.1475
   39CHL1  H22A 2869   1.989   1.738   7.935  0.2572 -0.5311  0.9764
   39CHL1  H22B 2870   1.812   1.795   7.932 -1.7875 -0.0876  3.0604
   39CHL1   C23 2871   1.849   1.657   8.092 -0.1805  0.0611  0.2757
   39CHL1  H23A 2872   1.745   1.620   8.093 -0.3185  0.2519 -2.0214
   39CHL1  H23B 2873   1.917   1.573   8.122  0.2576  0.3551  0.1092
   39CHL1   C24 2874   1.849   1.770   8.196 -0.1265  0.4939 -0.4431
   39CHL1  H24A 2875   1.941   1.829   8.172  0.5803 -1.1118 -1.9225
   39CHL1  H24B 2876   1.757   1.830   8.176 -0.0612  0.4738 -0.8226
   39CHL1   C25 2877   1.850   1.727   8.344  0.4091 -0.2769  0.1169
   39CHL1   H25 2878   1.752   1.677   8.362  0.6285 -0.8971 -0.3647
   39CHL1   C26 2879   1.964   1.633   8.365  0.2732  0.5944 -0.0637
   39CHL1  H26A 2880   2.059   1.685   8.339 -0.0643  0.9491 -0.5892
   39CHL1  H26B 2881   1.977   1.592   8.468 -1.4292 -1.2787 -0.5513
   39CHL1  H26C 2882   1.951   1.543   8.302 -3.6266  0.3306  0.8571
   39CHL1   C27 2883   1.869   1.845   8.434 -0.4354 -0.6112  0.1590
   39CHL1  H27A 2884   1.871   1.813   8.540  0.8904  1.3622  0.7907
   39CHL1  H27B 2885   1.963   1.899   8.410 -0.9915  0.6787  0.7280
   39CHL1  H27C 2886   1.775   1.905   8.429 -0.4660 -0.7450 -1.3815
   40CHL1    C3 2887   3.665   5.851   6.974  0.0285 -0.0976  0.2784
   40CHL1    H3 2888   3.588   5.917   7.018  1.2216  1.4563  0.1126
   40CHL1    O3 2889   3.661   5.837   6.833 -0.8257  0.3670 -0.1090
   40CHL1   H3' 2890   3.750   5.820   6.801 -2.2193 -1.8136 -3.2756
   40CHL1    C4 2891   3.802   5.899   7.014  0.8464 -0.5544 -0.1278
   40CHL1   H4A 2892   3.888   5.836   6.985 -0.8268 -2.2277 -1.7218
   40CHL1   H4B 2893   3.817   6.000   6.971 -1.8630  0.8421  1.8460
   40CHL1    C5 2894   3.808   5.902   7.166 -0.4974 -0.2912 -0.2953
   40CHL1    C6 2895   3.847   6.013   7.234 -0.0914 -0.5297 -0.3429
   40CHL1    H6 2896   3.882   6.096   7.172  1.5595 -1.0259 -0.1282
   40CHL1    C7 2897   3.864   6.027   7.387  0.1658 -0.0908  0.4907
   40CHL1   H7A 2898   3.966   6.060   7.415  0.5615 -0.7365 -0.1432
   40CHL1   H7B 2899   3.794   6.103   7.428  0.2140 -2.0504  4.6156
   40CHL1    C8 2900   3.836   5.896   7.465 -0.1892 -0.0011  0.1014
   40CHL1    H8 2901   3.929   5.837   7.453  1.0771  2.0901 -0.9230
   40CHL1   C14 2902   3.810   5.912   7.612 -0.4090 -0.5975  0.3859
   40CHL1   H14 2903   3.725   5.983   7.619  0.7883  0.7839  1.5559
   40CHL1   C15 2904   3.908   5.998   7.681 -0.0959 -0.2743 -0.5397
   40CHL1  H15A 2905   4.010   5.966   7.651  1.0464  1.3949  1.2910
   40CHL1  H15B 2906   3.890   6.106   7.660  0.8771  0.0470  0.1750
   40CHL1   C16 2907   3.885   5.961   7.833 -0.4534  0.2209 -0.2617
   40CHL1  H16A 2908   3.977   5.919   7.878 -0.6024  2.3123  2.2074
   40CHL1  H16B 2909   3.858   6.055   7.887  0.0460 -0.8258  1.9284
   40CHL1   C17 2910   3.775   5.851   7.834 -0.2413 -0.3062 -0.3082
   40CHL1   H17 2911   3.677   5.900   7.851  0.4845  1.0565  0.1606
   40CHL1   C13 2912   3.793   5.789   7.694  0.3613  0.3113  0.3011
   40CHL1   C18 2913   3.920   5.700   7.686  0.4859 -0.2667 -0.0393
   40CHL1  H18A 2914   4.003   5.748   7.742 -1.0013  1.3677  0.8318
   40CHL1  H18B 2915   3.894   5.603   7.734 -1.0789  0.3526  0.4192
   40CHL1  H18C 2916   3.941   5.686   7.578  0.0244 -2.2555  0.0805
   40CHL1   C12 2917   3.669   5.719   7.630 -0.3044 -0.2664 -0.0990
   40CHL1  H12A 2918   3.660   5.624   7.686  2.7572 -0.7860 -0.2923
   40CHL1  H12B 2919   3.587   5.789   7.657  1.5478  1.7299  0.6536
   40CHL1   C11 2920   3.683   5.691   7.479 -0.3242  0.6438 -1.3598
   40CHL1  H11A 2921   3.750   5.602   7.475 -0.3052  0.6283 -0.7588
   40CHL1  H11B 2922   3.586   5.651   7.443 -0.5242 -1.1745  0.9647
   40CHL1    C9 2923   3.721   5.820   7.400  0.0971  0.2547 -0.0070
   40CHL1    H9 2924   3.632   5.886   7.391  1.4898  2.2758  0.4856
   40CHL1   C10 2925   3.753   5.776   7.253  0.3851  0.2056  0.5929
   40CHL1   C19 2926   3.873   5.676   7.243  0.8419  0.3803 -0.1477
   40CHL1  H19A 2927   3.830   5.577   7.270 -0.4994  0.2845 -2.4137
   40CHL1  H19B 2928   3.908   5.668   7.138  1.0950  1.9629 -0.1953
   40CHL1  H19C 2929   3.955   5.693   7.316  1.2590 -1.1114 -0.2282
   40CHL1    C1 2930   3.626   5.722   7.188 -0.1016 -0.1014  0.4872
   40CHL1   H1A 2931   3.587   5.627   7.231 -0.5208  0.0432  0.4261
   40CHL1   H1B 2932   3.543   5.792   7.210  1.7733  1.7808  2.0119
   40CHL1    C2 2933   3.641   5.718   7.033  0.2224 -0.2808 -0.2604
   40CHL1   H2A 2934   3.548   5.665   7.006 -0.6328  0.8079  0.4750
   40CHL1   H2B 2935   3.734   5.660   7.015 -0.3647 -1.7604  1.1570
   40CHL1   C20 2936   3.788   5.759   7.954  0.2174 -0.3335 -0.3789
   40CHL1   H20 2937   3.887   5.709   7.952 -1.2744 -3.5228  0.3208
   40CHL1   C21 2938   3.670   5.657   7.942 -0.8234  0.0469 -0.1823
   40CHL1  H21A 2939   3.586   5.711   7.892 -0.6314 -0.1600 -0.7440
   40CHL1  H21B 2940   3.632   5.617   8.038  0.9973  0.2526  0.6720
   40CHL1  H21C 2941   3.703   5.576   7.873  1.2242  1.2866 -0.7657
   40CHL1   C22 2942   3.769   5.833   8.091  0.0104 -0.1664 -0.5829
   40CHL1  H22A 2943   3.853   5.901   8.115 -0.1765 -0.4053  0.8815
   40CHL1  H22B 2944   3.665   5.874   8.086 -0.5123 -1.5412 -1.8162
   40CHL1   C23 2945   3.776   5.738   8.213 -0.2167 -0.0035 -0.4461
   40CHL1  H23A 2946   3.671   5.707   8.230 -0.1917 -0.3495 -0.9189
   40CHL1  H23B 2947   3.845   5.653   8.193 -0.1497  0.0479 -0.4341
   40CHL1   C24 2948   3.823   5.811   8.337 -0.5234  0.6091 -0.1369
   40CHL1  H24A 2949   3.923   5.854   8.318  0.6807 -2.7477 -2.2077
   40CHL1  H24B 2950   3.755   5.893   8.369 -0.8789 -0.5021  2.2154
   40CHL1   C25 2951   3.848   5.718   8.456 -0.0183 -0.3174  0.0323
   40CHL1   H25 2952   3.906   5.630   8.420 -1.5219 -2.7044  2.9324
   40CHL1   C26 2953   3.932   5.796   8.564 -0.3977  0.5437  0.6696
   40CHL1  H26A 2954   4.026   5.827   8.515 -1.2359  2.6564  0.2759
   40CHL1  H26B 2955   3.882   5.889   8.600  0.2190  1.2436 -0.2448
   40CHL1  H26C 2956   3.958   5.723   8.644 -0.6319 -1.8976 -1.3408
   40CHL1   C27 2957   3.723   5.659   8.523  0.5390 -0.1849  0.9130
   40CHL1  H27A 2958   3.652   5.738   8.552 -0.0337 -0.8886  1.4624
   40CHL1  H27B 2959   3.668   5.599   8.447  1.3270 -2.6189  2.1455
   40CHL1  H27C 2960   3.751   5.600   8.613 -0.0312 -0.3980  0.9521
   41CHL1    C3 2961   5.059   6.750   6.969 -0.8154 -0.0894 -0.7704
   41CHL1    H3 2962   5.132   6.832   6.986 -1.7102  0.4821  0.4859
   41CHL1    O3 2963   5.056   6.728   6.836  0.0512  0.2619  0.1483
   41CHL1   H3' 2964   5.045   6.633   6.832  1.3661  0.1093 -0.6520
   41CHL1    C4 2965   5.116   6.630   7.046  0.1727 -0.2660 -0.2742
   41CHL1   H4A 2966   5.062   6.538   7.016  0.9759 -1.3384  1.4125
   41CHL1   H4B 2967   5.221   6.609   7.017 -0.4918 -3.8723 -0.4768
   41CHL1    C5 2968   5.101   6.653   7.197  0.0578  0.3082 -0.2040
   41CHL1    C6 2969   5.207   6.648   7.281 -0.3007  0.3742 -0.3355
   41CHL1    H6 2970   5.305   6.611   7.249 -0.0062  0.5088  0.3844
   41CHL1    C7 2971   5.197   6.680   7.424  0.2457 -0.2281 -0.2408
   41CHL1   H7A 2972   5.263   6.612   7.482 -0.3137 -0.2501  0.3726
   41CHL1   H7B 2973   5.233   6.785   7.437 -0.9650  0.0680  0.9626
   41CHL1    C8 2974   5.056   6.678   7.492 -0.2728  0.5279 -0.3700
   41CHL1    H8 2975   5.031   6.570   7.498  0.2320  0.4475  0.4188
   41CHL1   C14 2976   5.052   6.733   7.631 -0.2758 -0.6829 -0.2188
   41CHL1   H14 2977   5.068   6.843   7.638 -1.4019 -0.5829  1.4952
   41CHL1   C15 2978   5.149   6.665   7.735 -0.2364 -0.1785 -0.2572
   41CHL1  H15A 2979   5.140   6.554   7.737  0.6165 -0.2715 -1.0595
   41CHL1  H15B 2980   5.255   6.692   7.749 -0.0653 -1.5684  1.5062
   41CHL1   C16 2981   5.086   6.705   7.868  0.1587  0.3858 -0.1699
   41CHL1  H16A 2982   5.092   6.617   7.936  0.9665 -1.2920 -2.3223
   41CHL1  H16B 2983   5.135   6.792   7.918  1.4718  1.0871 -2.5334
   41CHL1   C17 2984   4.946   6.762   7.833 -0.5621  0.0542 -0.3341
   41CHL1   H17 2985   4.963   6.871   7.823 -0.4678  0.1495  0.7394
   41CHL1   C13 2986   4.907   6.719   7.690 -0.8323  0.1708  0.2122
   41CHL1   C18 2987   4.863   6.572   7.698  0.6414  0.2229  0.3926
   41CHL1  H18A 2988   4.844   6.526   7.599 -0.6756  0.4789  0.5136
   41CHL1  H18B 2989   4.928   6.512   7.766 -0.1209 -0.4451  0.5406
   41CHL1  H18C 2990   4.763   6.563   7.745  0.9806 -0.1547  1.0544
   41CHL1   C12 2991   4.824   6.813   7.607 -0.8980 -0.0058  0.0181
   41CHL1  H12A 2992   4.719   6.815   7.644  0.0930 -1.0962  3.2950
   41CHL1  H12B 2993   4.854   6.919   7.619  0.6163 -0.2012 -1.6760
   41CHL1   C11 2994   4.825   6.766   7.456 -0.1777 -0.5145  0.1953
   41CHL1  H11A 2995   4.754   6.682   7.442 -1.1077  0.1645  0.6205
   41CHL1  H11B 2996   4.774   6.856   7.414  0.9137  0.4120  0.7803
   41CHL1    C9 2997   4.964   6.749   7.398 -0.4407 -0.0075 -0.9487
   41CHL1    H9 2998   5.005   6.852   7.408  1.8207 -0.9687  0.2671
   41CHL1   C10 2999   4.966   6.696   7.253  0.2405 -0.1739 -0.0899
   41CHL1   C19 3000   4.876   6.569   7.236 -0.1755  0.3227  0.5071
   41CHL1  H19A 3001   4.870   6.525   7.134 -1.2804  0.6715  0.4110
   41CHL1  H19B 3002   4.908   6.484   7.300 -3.1380 -0.6379  0.8718
   41CHL1  H19C 3003   4.769   6.587   7.259 -0.0878  1.3468  0.1371
   41CHL1    C1 3004   4.905   6.809   7.161 -0.3702  0.5130 -0.4151
   41CHL1   H1A 3005   4.800   6.819   7.194 -0.7037 -1.9509 -0.4937
   41CHL1   H1B 3006   4.961   6.903   7.182 -1.3615  1.2008 -0.8011
   41CHL1    C2 3007   4.909   6.783   7.008  0.1386  0.7078  0.5922
   41CHL1   H2A 3008   4.868   6.865   6.946  0.1317 -1.2585 -2.2353
   41CHL1   H2B 3009   4.847   6.691   6.995  1.5162 -0.8197  3.6674
   41CHL1   C20 3010   4.837   6.733   7.939  0.8055  0.0983 -0.1516
   41CHL1   H20 3011   4.810   6.626   7.931  0.6625 -0.0043  1.3944
   41CHL1   C21 3012   4.707   6.805   7.905  0.0647 -0.0706  0.3412
   41CHL1  H21A 3013   4.650   6.751   7.827  0.9966  3.1743 -2.8236
   41CHL1  H21B 3014   4.725   6.909   7.872 -0.4846  0.4304  1.5210
   41CHL1  H21C 3015   4.649   6.814   8.000  1.2872 -1.4761  1.2627
   41CHL1   C22 3016   4.870   6.756   8.088 -0.8402 -0.6014  0.3545
   41CHL1  H22A 3017   4.971   6.713   8.109  0.1982  0.3212 -2.2852
   41CHL1  H22B 3018   4.890   6.864   8.104  2.2347 -0.8599 -0.9096
   41CHL1   C23 3019   4.765   6.697   8.185 -0.0552 -0.6079 -0.0810
   41CHL1  H23A 3020   4.667   6.749   8.186  1.5009  2.5744  1.1324
   41CHL1  H23B 3021   4.750   6.589   8.164 -3.0756 -0.7006  1.9434
   41CHL1   C24 3022   4.821   6.715   8.319  0.1087  0.0724 -0.4266
   41CHL1  H24A 3023   4.932   6.706   8.314  0.3210  0.5632  2.1120
   41CHL1  H24B 3024   4.797   6.819   8.351 -1.9886 -0.7434  0.8062
   41CHL1   C25 3025   4.770   6.624   8.426  0.3377  0.1896  0.0809
   41CHL1   H25 3026   4.799   6.660   8.527 -3.0209 -1.7992  1.9424
   41CHL1   C26 3027   4.614   6.618   8.417 -0.9233  0.2303 -0.4058
   41CHL1  H26A 3028   4.572   6.553   8.497 -0.3181 -0.9910 -1.0675
   41CHL1  H26B 3029   4.566   6.718   8.422  1.8146  1.6083  1.2014
   41CHL1  H26C 3030   4.582   6.575   8.320  0.8011 -1.2675 -0.3664
   41CHL1   C27 3031   4.820   6.477   8.415 -0.0743 -0.4399  0.0269
   41CHL1  H27A 3032   4.926   6.484   8.381 -0.7561 -0.8937 -2.4232
   41CHL1  H27B 3033   4.787   6.419   8.504 -1.5329  0.0038 -0.2044
   41CHL1  H27C 3034   4.768   6.434   8.326 -0.4325  3.8088 -2.0398
   42CHL1    C3 3035   6.095   3.956   6.977  0.0886 -0.3720  0.2866
   42CHL1    H3 3036   6.087   3.845   6.967 -0.1966 -0.4723  1.4345
   42CHL1    O3 3037   6.139   4.016   6.857 -0.3548 -0.1674 -0.4453
   42CHL1   H3' 3038   6.169   4.102   6.888 -0.3220 -0.9550  1.8346
   42CHL1    C4 3039   5.950   4.007   7.020 -0.1127 -0.3833  0.5528
   42CHL1   H4A 3040   5.943   4.116   6.998 -1.0429 -0.6709 -0.7371
   42CHL1   H4B 3041   5.877   3.953   6.956 -1.5299  0.1376  1.6683
   42CHL1    C5 3042   5.918   3.978   7.164 -0.1020 -0.1923 -0.0236
   42CHL1    C6 3043   5.805   3.913   7.191  0.1688  0.1704 -0.4217
   42CHL1    H6 3044   5.737   3.876   7.112 -1.7924  1.4453  0.5787
   42CHL1    C7 3045   5.760   3.867   7.327  0.2789  0.4933  0.4337
   42CHL1   H7A 3046   5.651   3.879   7.343  0.0771 -0.3515 -0.2885
   42CHL1   H7B 3047   5.785   3.764   7.358  0.0392  0.1778 -0.4081
   42CHL1    C8 3048   5.838   3.951   7.434  0.0020 -0.1199 -0.0111
   42CHL1    H8 3049   5.798   4.054   7.430  0.9491  0.3456  1.4351
   42CHL1   C14 3050   5.816   3.893   7.574  0.6601  0.0785  0.2335
   42CHL1   H14 3051   5.872   3.797   7.581 -0.5792 -0.5385  3.1114
   42CHL1   C15 3052   5.670   3.871   7.616 -0.1314 -0.0644  0.0069
   42CHL1  H15A 3053   5.598   3.954   7.603  1.1465  0.9198 -1.1293
   42CHL1  H15B 3054   5.622   3.798   7.547 -0.2234  0.6986 -0.7529
   42CHL1   C16 3055   5.696   3.824   7.756  0.0701  0.2507 -0.1005
   42CHL1  H16A 3056   5.629   3.876   7.828  0.7330  0.0015  0.7167
   42CHL1  H16B 3057   5.690   3.713   7.766  0.3768  0.3686  2.0102
   42CHL1   C17 3058   5.844   3.861   7.801 -0.1433 -0.3597 -0.2197
   42CHL1   H17 3059   5.908   3.771   7.785  1.5649  0.2607  2.4091
   42CHL1   C13 3060   5.885   3.959   7.692 -0.4023 -0.1259 -1.0957
   42CHL1   C18 3061   5.820   4.101   7.716 -0.2973 -0.3842  0.7135
   42CHL1  H18A 3062   5.829   4.161   7.624  0.1620 -1.0437  0.3185
   42CHL1  H18B 3063   5.713   4.101   7.747 -0.6240 -0.1604 -0.3621
   42CHL1  H18C 3064   5.877   4.158   7.793  0.4911 -0.0927 -0.0762
   42CHL1   C12 3065   6.032   3.965   7.658  0.3101 -0.2789  0.3535
   42CHL1  H12A 3066   6.095   4.031   7.722  0.8351  0.5892 -1.0149
   42CHL1  H12B 3067   6.081   3.866   7.650 -0.5591 -0.6327 -0.8609
   42CHL1   C11 3068   6.054   4.036   7.524  0.8260 -0.2600 -0.2951
   42CHL1  H11A 3069   6.013   4.139   7.529 -1.3403 -1.0976  0.7775
   42CHL1  H11B 3070   6.164   4.046   7.522  0.6440  4.7039  0.5378
   42CHL1    C9 3071   5.991   3.960   7.409 -0.7034  0.0130 -0.6510
   42CHL1    H9 3072   6.033   3.858   7.416 -0.7069  0.1131  1.4791
   42CHL1   C10 3073   6.024   4.018   7.269 -0.4230  0.3101  0.0553
   42CHL1   C19 3074   6.016   4.176   7.278 -0.4446 -0.3007 -0.3561
   42CHL1  H19A 3075   5.920   4.205   7.325  0.7064  0.3066  1.7492
   42CHL1  H19B 3076   6.106   4.214   7.330 -0.9130  0.8574 -0.3815
   42CHL1  H19C 3077   6.024   4.228   7.180  1.3311  0.1147 -0.0216
   42CHL1    C1 3078   6.164   3.962   7.231 -0.1936 -0.5150  0.1612
   42CHL1   H1A 3079   6.242   3.999   7.301  1.3217 -1.6208 -0.8787
   42CHL1   H1B 3080   6.156   3.851   7.237 -1.6085 -0.3473  2.9175
   42CHL1    C2 3081   6.197   3.994   7.081  0.0014 -0.9919 -0.0158
   42CHL1   H2A 3082   6.300   3.962   7.057  0.4204  0.8431 -0.7841
   42CHL1   H2B 3083   6.211   4.104   7.080 -0.5182 -0.8975  1.1101
   42CHL1   C20 3084   5.864   3.900   7.951 -0.0136  0.1772  0.2359
   42CHL1   H20 3085   5.804   3.990   7.979  0.1934  0.0555  1.0998
   42CHL1   C21 3086   6.008   3.928   7.982 -0.4217 -0.0786 -0.3069
   42CHL1  H21A 3087   6.024   3.936   8.092 -0.3473  0.5908 -0.3607
   42CHL1  H21B 3088   6.032   4.031   7.947 -1.6694 -0.1633 -1.4884
   42CHL1  H21C 3089   6.078   3.850   7.946  0.9633  1.0373 -0.1065
   42CHL1   C22 3090   5.829   3.777   8.044 -0.7106 -0.1994  0.4276
   42CHL1  H22A 3091   5.740   3.726   8.002  1.3157 -1.8731 -2.1162
   42CHL1  H22B 3092   5.913   3.704   8.042 -1.7479 -1.5347  2.3526
   42CHL1   C23 3093   5.808   3.814   8.192  0.1713 -0.1791  0.1032
   42CHL1  H23A 3094   5.897   3.873   8.223  1.0062 -1.7216  0.7268
   42CHL1  H23B 3095   5.725   3.885   8.210  0.9567  0.6413  0.5846
   42CHL1   C24 3096   5.788   3.701   8.294 -0.2061 -0.2241  0.4282
   42CHL1  H24A 3097   5.692   3.649   8.274 -0.9752  1.0682  0.6322
   42CHL1  H24B 3098   5.871   3.636   8.258 -1.2066 -0.9121 -0.7084
   42CHL1   C25 3099   5.792   3.745   8.441 -0.0232 -0.3856 -0.0410
   42CHL1   H25 3100   5.883   3.804   8.465 -0.9689  1.3451 -0.5656
   42CHL1   C26 3101   5.671   3.838   8.452  0.0591  0.0901 -0.4412
   42CHL1  H26A 3102   5.703   3.938   8.413  0.2292 -0.4548 -1.7480
   42CHL1  H26B 3103   5.584   3.795   8.398  0.7462 -0.3830 -1.1968
   42CHL1  H26C 3104   5.638   3.842   8.558 -0.1570 -2.6722 -0.3474
   42CHL1   C27 3105   5.784   3.613   8.524 -0.0631 -0.6028  0.6127
   42CHL1  H27A 3106   5.688   3.556   8.515 -0.4241  0.1704 -0.6576
   42CHL1  H27B 3107   5.784   3.644   8.631 -1.0928 -0.6665  0.6490
   42CHL1  H27C 3108   5.871   3.547   8.502 -0.0403 -1.0729  2.0243
   43CHL1    C3 3109   5.390   1.390   6.934 -0.5945  0.0803  0.4526
   43CHL1    H3 3110   5.348   1.287   6.944 -0.2079  0.0110  1.4581
   43CHL1    O3 3111   5.398   1.426   6.796  0.1130 -0.1746 -0.3928
   43CHL1   H3' 3112   5.462   1.366   6.759  1.5482 -0.1891  1.9134
   43CHL1    C4 3113   5.312   1.490   7.017  0.0491 -0.0831 -0.4709
   43CHL1   H4A 3114   5.368   1.584   7.001  0.3142 -0.2691 -0.6314
   43CHL1   H4B 3115   5.212   1.520   6.979 -1.5675  0.6905  3.7718
   43CHL1    C5 3116   5.308   1.450   7.161 -0.3307  0.4624 -0.3610
   43CHL1    C6 3117   5.188   1.444   7.219  0.7875 -0.2189 -0.1992
   43CHL1    H6 3118   5.099   1.472   7.162  0.4350  1.5823  1.1380
   43CHL1    C7 3119   5.157   1.399   7.360  0.5582  0.5719  0.4219
   43CHL1   H7A 3120   5.083   1.460   7.417 -0.5217 -0.0987 -0.2333
   43CHL1   H7B 3121   5.121   1.294   7.360  2.0632  0.0018  2.3513
   43CHL1    C8 3122   5.289   1.390   7.444 -0.0309  0.1488 -0.0913
   43CHL1    H8 3123   5.321   1.494   7.469 -2.0144  0.5061  1.1337
   43CHL1   C14 3124   5.268   1.309   7.575 -0.3231  0.0116  0.0390
   43CHL1   H14 3125   5.233   1.207   7.550  3.1879 -2.0103  2.4648
   43CHL1   C15 3126   5.150   1.348   7.673  0.1394  0.0942 -0.3950
   43CHL1  H15A 3127   5.145   1.459   7.678 -1.6643  0.0683 -0.7427
   43CHL1  H15B 3128   5.050   1.310   7.642  0.4382 -0.9426 -0.1204
   43CHL1   C16 3129   5.180   1.271   7.803 -0.2741 -0.1716 -0.1767
   43CHL1  H16A 3130   5.162   1.330   7.896 -2.6297  0.6126 -1.0396
   43CHL1  H16B 3131   5.118   1.181   7.822 -0.7189  0.4484  1.4905
   43CHL1   C17 3132   5.332   1.228   7.796  0.4365  0.1310 -0.1434
   43CHL1   H17 3133   5.331   1.121   7.766 -0.8770  0.4564 -1.3797
   43CHL1   C13 3134   5.385   1.299   7.665 -0.7936  0.1661 -0.2227
   43CHL1   C18 3135   5.439   1.436   7.711  0.5848  0.3192  0.0153
   43CHL1  H18A 3136   5.443   1.501   7.621 -2.0285 -0.1307 -0.4904
   43CHL1  H18B 3137   5.371   1.498   7.773 -0.9711  2.2723 -3.3270
   43CHL1  H18C 3138   5.541   1.423   7.754  0.2489 -1.7160  0.2912
   43CHL1   C12 3139   5.500   1.222   7.587 -1.1894 -0.3824 -0.0710
   43CHL1  H12A 3140   5.595   1.215   7.644  0.5337 -0.1216 -2.7445
   43CHL1  H12B 3141   5.461   1.121   7.559  2.0889 -1.4765 -1.0845
   43CHL1   C11 3142   5.521   1.301   7.455 -0.6636  0.0173 -0.4908
   43CHL1  H11A 3143   5.552   1.406   7.477 -1.1617  0.1422 -0.3763
   43CHL1  H11B 3144   5.606   1.247   7.407 -0.0246 -0.2574  0.8824
   43CHL1    C9 3145   5.403   1.325   7.358  1.3081 -0.3837 -0.0655
   43CHL1    H9 3146   5.358   1.226   7.337 -1.5821  1.0408 -1.1344
   43CHL1   C10 3147   5.441   1.403   7.233  0.0922  0.3649  0.5026
   43CHL1   C19 3148   5.521   1.532   7.270 -0.0677 -0.3038 -0.1960
   43CHL1  H19A 3149   5.522   1.599   7.181  2.0658 -1.0952 -0.8356
   43CHL1  H19B 3150   5.484   1.578   7.364  0.3320 -2.2570  0.9733
   43CHL1  H19C 3151   5.630   1.511   7.266 -0.3261 -1.7224 -0.4012
   43CHL1    C1 3152   5.527   1.314   7.145  0.0158  0.6002  0.0016
   43CHL1   H1A 3153   5.627   1.309   7.193  1.3598  1.2309 -2.5388
   43CHL1   H1B 3154   5.490   1.210   7.145  0.3835  0.4394 -1.8319
   43CHL1    C2 3155   5.525   1.359   6.993 -0.9781  0.0141 -0.7648
   43CHL1   H2A 3156   5.580   1.279   6.939  1.7579  2.2887 -1.5306
   43CHL1   H2B 3157   5.599   1.441   6.982  0.3094 -1.1921 -1.4803
   43CHL1   C20 3158   5.402   1.244   7.931  0.3373 -0.2718 -0.3379
   43CHL1   H20 3159   5.400   1.352   7.957 -1.3300 -0.4408  0.3619
   43CHL1   C21 3160   5.547   1.190   7.925  0.1929 -0.6100 -0.0696
   43CHL1  H21A 3161   5.605   1.245   7.848  2.2125 -0.1609  1.6820
   43CHL1  H21B 3162   5.547   1.081   7.902  0.4374 -1.1597  2.2815
   43CHL1  H21C 3163   5.614   1.213   8.011  2.1348  1.2030 -1.9286
   43CHL1   C22 3164   5.336   1.171   8.053  0.4002 -0.1255 -0.6734
   43CHL1  H22A 3165   5.228   1.191   8.043  0.2936 -0.5289 -0.3423
   43CHL1  H22B 3166   5.348   1.062   8.037 -1.6865 -1.1708  3.3548
   43CHL1   C23 3167   5.369   1.212   8.194 -0.4543 -0.4440  0.0298
   43CHL1  H23A 3168   5.480   1.207   8.206 -0.2872 -0.4339 -1.3538
   43CHL1  H23B 3169   5.353   1.320   8.211  1.9285  0.2128 -1.3789
   43CHL1   C24 3170   5.296   1.125   8.300 -0.1586  0.2104 -0.1659
   43CHL1  H24A 3171   5.187   1.138   8.288 -0.6104  2.0695  4.1873
   43CHL1  H24B 3172   5.319   1.016   8.296  0.6766  0.3122  1.1174
   43CHL1   C25 3173   5.325   1.160   8.449 -0.1759  0.8108  0.2929
   43CHL1   H25 3174   5.269   1.096   8.521 -1.4677  1.6939  0.1104
   43CHL1   C26 3175   5.476   1.147   8.483 -0.7692  0.0063 -0.2621
   43CHL1  H26A 3176   5.545   1.202   8.415 -0.1319 -0.8820 -0.3519
   43CHL1  H26B 3177   5.506   1.181   8.584  1.9347  0.8864 -1.2822
   43CHL1  H26C 3178   5.504   1.039   8.479 -2.2626 -0.4450  0.7076
   43CHL1   C27 3179   5.284   1.304   8.478 -0.2154 -0.1600 -0.2343
   43CHL1  H27A 3180   5.337   1.372   8.409 -0.8487 -1.4419 -2.0611
   43CHL1  H27B 3181   5.175   1.323   8.472 -0.1648  1.3880  2.1358
   43CHL1  H27C 3182   5.312   1.331   8.582  0.0316 -0.9600 -0.0809
   44CHL1    C3 3183   6.362   6.220   6.666 -0.1763 -0.6862  0.3162
   44CHL1    H3 3184   6.463   6.242   6.707  0.0593  0.1896 -0.6670
   44CHL1    O3 3185   6.358   6.266   6.536 -0.4826 -0.1445 -0.5469
   44CHL1   H3' 3186   6.385   6.358   6.533 -0.6435  0.0622  1.9572
   44CHL1    C4 3187   6.335   6.064   6.671  0.9601 -0.1667  0.7204
   44CHL1   H4A 3188   6.230   6.058   6.635  1.2196 -0.3709 -0.0292
   44CHL1   H4B 3189   6.406   6.017   6.599  1.2293  1.8593 -0.4224
   44CHL1    C5 3190   6.336   6.017   6.817  0.4199  0.1953  0.6721
   44CHL1    C6 3191   6.430   5.932   6.856 -0.2328 -0.2401 -0.7489
   44CHL1    H6 3192   6.496   5.885   6.783 -1.8394  0.1160 -2.5128
   44CHL1    C7 3193   6.430   5.879   6.997 -0.1670 -0.6389 -0.1137
   44CHL1   H7A 3194   6.458   5.772   7.000  0.3432 -0.5015  0.3884
   44CHL1   H7B 3195   6.512   5.928   7.055  1.1082 -1.1092 -1.4614
   44CHL1    C8 3196   6.302   5.905   7.077 -0.0841 -0.3988  0.0032
   44CHL1    H8 3197   6.226   5.837   7.034 -2.1858  1.5025  0.5001
   44CHL1   C14 3198   6.326   5.869   7.221  0.6906  0.2791  0.4118
   44CHL1   H14 3199   6.411   5.930   7.259  1.9284 -1.6640  0.8693
   44CHL1   C15 3200   6.360   5.726   7.255 -0.3795  0.3241 -0.3758
   44CHL1  H15A 3201   6.295   5.648   7.210  1.4762 -2.2135  1.1050
   44CHL1  H15B 3202   6.459   5.693   7.216  0.6266  3.1509 -0.4594
   44CHL1   C16 3203   6.344   5.721   7.408 -0.0547  0.2075 -0.2736
   44CHL1  H16A 3204   6.298   5.624   7.434  0.6754  0.0042  0.2911
   44CHL1  H16B 3205   6.443   5.730   7.458  0.6484 -2.6684 -1.0110
   44CHL1   C17 3206   6.252   5.841   7.448 -0.0432 -0.7620  0.0633
   44CHL1   H17 3207   6.340   5.904   7.474 -0.0562 -0.4358 -0.6764
   44CHL1   C13 3208   6.209   5.902   7.310 -0.1066 -0.1423  0.1236
   44CHL1   C18 3209   6.082   5.831   7.270  0.8341 -0.2910  0.2214
   44CHL1  H18A 3210   5.998   5.861   7.337 -0.4934 -2.0519 -0.5600
   44CHL1  H18B 3211   6.054   5.847   7.163  1.5872  0.1354  0.0806
   44CHL1  H18C 3212   6.092   5.721   7.273 -0.1313 -0.3715  1.3936
   44CHL1   C12 3213   6.195   6.054   7.306  0.4186 -0.6526  0.2854
   44CHL1  H12A 3214   6.121   6.089   7.382  0.2361 -0.7726  0.1655
   44CHL1  H12B 3215   6.291   6.109   7.313 -0.5433  1.5083 -1.9657
   44CHL1   C11 3216   6.154   6.093   7.162  0.3512 -0.8994 -0.4942
   44CHL1  H11A 3217   6.048   6.067   7.142  0.0860  0.7529 -1.3986
   44CHL1  H11B 3218   6.162   6.204   7.172 -0.9797 -0.9467  1.7455
   44CHL1    C9 3219   6.259   6.049   7.059 -0.6141  0.7510 -1.1969
   44CHL1    H9 3220   6.355   6.101   7.077 -0.7660  1.0570 -1.2818
   44CHL1   C10 3221   6.236   6.088   6.911  0.2312 -0.1658 -0.3481
   44CHL1   C19 3222   6.085   6.054   6.886  0.1785 -0.2096  0.2861
   44CHL1  H19A 3223   6.020   6.113   6.953  0.7358  0.3957  0.3049
   44CHL1  H19B 3224   6.067   6.096   6.785  0.8983 -1.5843 -0.4524
   44CHL1  H19C 3225   6.054   5.947   6.877  0.2804 -0.2112 -0.0998
   44CHL1    C1 3226   6.256   6.240   6.890 -0.4986  0.2705 -1.0099
   44CHL1   H1A 3227   6.178   6.288   6.953  0.2556  2.3377 -1.5504
   44CHL1   H1B 3228   6.352   6.269   6.938 -2.3881 -0.4235  3.6485
   44CHL1    C2 3229   6.258   6.293   6.750 -0.3276  0.1859  0.8015
   44CHL1   H2A 3230   6.294   6.398   6.747 -1.5004  0.5964 -0.2543
   44CHL1   H2B 3231   6.158   6.293   6.701  1.0872 -1.5341 -2.4273
   44CHL1   C20 3232   6.161   5.810   7.563  0.5941 -0.5565 -0.0255
   44CHL1   H20 3233   6.078   5.744   7.529  0.3711 -1.5485  2.2948
   44CHL1   C21 3234   6.091   5.937   7.617 -0.7383 -0.0956  0.2482
   44CHL1  H21A 3235   6.172   6.007   7.650 -0.9728 -1.0056  2.9658
   44CHL1  H21B 3236   6.036   5.916   7.711 -0.7396 -0.1711  0.2301
   44CHL1  H21C 3237   6.029   5.984   7.538 -0.6697 -2.9544 -1.6383
   44CHL1   C22 3238   6.227   5.726   7.670 -0.5602 -0.4118  0.0128
   44CHL1  H22A 3239   6.288   5.639   7.639  0.7664  0.0773  1.1711
   44CHL1  H22B 3240   6.297   5.793   7.724  0.2914  0.8194 -2.4815
   44CHL1   C23 3241   6.126   5.674   7.772  0.1253 -0.4537  0.0579
   44CHL1  H23A 3242   6.074   5.764   7.810 -2.3867 -1.0257 -1.8032
   44CHL1  H23B 3243   6.042   5.607   7.745 -1.3214  0.0357  2.9839
   44CHL1   C24 3244   6.192   5.589   7.883  0.2038 -0.1679 -0.2557
   44CHL1  H24A 3245   6.244   5.503   7.835  1.4517  0.8869 -0.8881
   44CHL1  H24B 3246   6.270   5.659   7.921 -0.4824 -1.0633  3.0432
   44CHL1   C25 3247   6.118   5.552   8.011  0.4391  0.0808 -0.3424
   44CHL1   H25 3248   6.055   5.465   7.983 -0.1276 -0.7942  3.1861
   44CHL1   C26 3249   6.221   5.495   8.109 -0.4994  0.7178  1.2186
   44CHL1  H26A 3250   6.284   5.411   8.074  1.4935  2.0922  1.3564
   44CHL1  H26B 3251   6.290   5.579   8.131 -0.0415  0.4936  0.6421
   44CHL1  H26C 3252   6.164   5.466   8.200 -2.0296 -2.0377 -0.4778
   44CHL1   C27 3253   6.012   5.655   8.082 -0.4421  0.0367 -0.3503
   44CHL1  H27A 3254   5.936   5.594   8.135  0.4404  0.9286  2.0731
   44CHL1  H27B 3255   6.066   5.723   8.151 -0.0154 -0.6588  0.0153
   44CHL1  H27C 3256   5.952   5.705   8.003 -1.2767 -0.8788 -0.3167
   45CHL1    C3 3257   0.332   4.160   6.763  0.5713 -0.6268 -0.2208
   45CHL1    H3 3258   0.242   4.105   6.799  1.5474 -1.3059  1.3095
   45CHL1    O3 3259   0.369   4.136   6.632  0.0152  0.3876  0.0918
   45CHL1   H3' 3260   0.285   4.127   6.586 -0.5324 -0.9904  1.2917
   45CHL1    C4 3261   0.306   4.309   6.791 -0.2299 -1.2049  0.3762
   45CHL1   H4A 3262   0.399   4.365   6.764 -0.6234 -1.4390 -1.5987
   45CHL1   H4B 3263   0.229   4.341   6.717  0.7422 -1.0885 -0.6193
   45CHL1    C5 3264   0.274   4.337   6.931  0.3267  0.6984 -0.2864
   45CHL1    C6 3265   0.162   4.402   6.962 -0.4954 -0.3654 -0.0565
   45CHL1    H6 3266   0.089   4.433   6.886  0.2365 -1.7322 -1.3617
   45CHL1    C7 3267   0.123   4.448   7.102  0.4873  0.2100 -0.0747
   45CHL1   H7A 3268   0.079   4.549   7.114  0.2900  0.1648 -0.4106
   45CHL1   H7B 3269   0.050   4.366   7.123  0.6108 -0.6721 -2.6911
   45CHL1    C8 3270   0.243   4.437   7.204 -0.7153  0.1642 -0.8228
   45CHL1    H8 3271   0.310   4.520   7.172  1.9943 -2.3832 -2.2360
   45CHL1   C14 3272   0.192   4.441   7.348 -0.1183 -0.4025  0.3074
   45CHL1   H14 3273   0.138   4.344   7.354 -1.3276  0.2362  0.0397
   45CHL1   C15 3274   0.089   4.537   7.399  0.0729 -0.0079  0.0968
   45CHL1  H15A 3275   0.125   4.638   7.373 -0.2206 -0.2882 -1.4833
   45CHL1  H15B 3276  -0.011   4.513   7.357  0.3376 -0.3051 -0.3736
   45CHL1   C16 3277   0.085   4.508   7.551  0.4589 -0.5943  0.0966
   45CHL1  H16A 3278   0.103   4.605   7.603  1.2199 -0.7474  0.1281
   45CHL1  H16B 3279  -0.011   4.458   7.574  0.0276 -0.1494 -0.6597
   45CHL1   C17 3280   0.212   4.427   7.579 -0.1933 -0.2577 -1.0484
   45CHL1   H17 3281   0.167   4.326   7.591 -1.7348  0.6781  2.4585
   45CHL1   C13 3282   0.296   4.443   7.455  0.1699  0.2934 -0.0132
   45CHL1   C18 3283   0.379   4.571   7.449 -0.4852 -0.6582 -0.5053
   45CHL1  H18A 3284   0.429   4.583   7.351  0.5802  0.2655  0.1288
   45CHL1  H18B 3285   0.307   4.653   7.466 -1.5331 -1.7164  0.3858
   45CHL1  H18C 3286   0.459   4.572   7.526 -2.1913  1.1898  1.3805
   45CHL1   C12 3287   0.384   4.318   7.434 -0.1136  0.0747  0.0880
   45CHL1  H12A 3288   0.467   4.317   7.508 -1.4290  0.9276  1.6278
   45CHL1  H12B 3289   0.318   4.232   7.457 -1.5872  0.8267 -1.1401
   45CHL1   C11 3290   0.432   4.303   7.286 -0.1226  0.7130 -0.2074
   45CHL1  H11A 3291   0.513   4.378   7.271  0.0775  0.1186 -2.5355
   45CHL1  H11B 3292   0.488   4.208   7.273  1.8158  1.9662 -1.5567
   45CHL1    C9 3293   0.320   4.306   7.185 -0.7542 -0.8322 -0.2295
   45CHL1    H9 3294   0.252   4.221   7.207 -0.8667 -0.2042  2.1911
   45CHL1   C10 3295   0.376   4.292   7.041 -0.5526  0.4200 -0.3388
   45CHL1   C19 3296   0.506   4.373   7.024 -0.1170 -0.3606  0.4004
   45CHL1  H19A 3297   0.483   4.469   7.075  3.2066  0.2652  0.9176
   45CHL1  H19B 3298   0.595   4.324   7.066  0.9663  0.0666 -1.2782
   45CHL1  H19C 3299   0.534   4.407   6.922  2.0682  0.6982  1.2952
   45CHL1    C1 3300   0.411   4.146   7.010  0.5849  1.1335 -0.1727
   45CHL1   H1A 3301   0.489   4.103   7.077 -0.6368  0.9052  1.1404
   45CHL1   H1B 3302   0.323   4.086   7.042  1.2698 -1.4535 -2.7178
   45CHL1    C2 3303   0.441   4.110   6.862 -0.5986  0.0116 -0.1633
   45CHL1   H2A 3304   0.441   4.000   6.852  2.1716  0.1696 -3.9225
   45CHL1   H2B 3305   0.536   4.150   6.821  0.1778 -1.6949 -0.0963
   45CHL1   C20 3306   0.277   4.449   7.723 -1.2275 -0.1293  0.4292
   45CHL1   H20 3307   0.321   4.551   7.723 -0.5130 -0.4351  0.7179
   45CHL1   C21 3308   0.389   4.351   7.760  0.7219 -0.0016  0.1662
   45CHL1  H21A 3309   0.432   4.386   7.856 -0.3876  0.8327  0.3753
   45CHL1  H21B 3310   0.468   4.355   7.682 -2.0622  0.2483 -2.8541
   45CHL1  H21C 3311   0.337   4.253   7.759 -0.0809  0.3955 -1.7713
   45CHL1   C22 3312   0.173   4.436   7.839 -0.1757 -0.4584  0.0161
   45CHL1  H22A 3313   0.080   4.490   7.811 -0.1811 -2.1805 -4.0465
   45CHL1  H22B 3314   0.151   4.327   7.832  2.0460 -0.8939 -0.9466
   45CHL1   C23 3315   0.221   4.481   7.977  0.4350  0.0623  0.9261
   45CHL1  H23A 3316   0.260   4.404   8.046 -0.4503 -2.3791 -1.1678
   45CHL1  H23B 3317   0.307   4.550   7.965  0.7270 -0.1250  1.8698
   45CHL1   C24 3318   0.105   4.552   8.049 -0.4467 -0.2727  0.2102
   45CHL1  H24A 3319   0.072   4.644   7.997  0.0846  0.9831  1.9922
   45CHL1  H24B 3320   0.024   4.477   8.049 -1.1822  0.4995 -0.5842
   45CHL1   C25 3321   0.136   4.599   8.193  0.1903  0.3461  0.3936
   45CHL1   H25 3322   0.140   4.506   8.254 -0.0945 -0.2972 -0.5416
   45CHL1   C26 3323   0.268   4.673   8.197  0.2952  0.2694  0.2826
   45CHL1  H26A 3324   0.352   4.607   8.164  0.4763  1.4620 -1.8252
   45CHL1  H26B 3325   0.255   4.772   8.149 -1.3849  0.0027  0.1456
   45CHL1  H26C 3326   0.292   4.710   8.299 -0.0749 -0.1272  0.5144
   45CHL1   C27 3327   0.024   4.681   8.259  0.2726 -0.1628 -0.3516
   45CHL1  H27A 3328   0.018   4.777   8.204  0.5493 -0.9791 -1.8697
   45CHL1  H27B 3329  -0.075   4.630   8.250 -1.2600  1.7537  3.5836
   45CHL1  H27C 3330   0.036   4.704   8.366  2.2631  1.2512 -0.8174
   46CHL1    C3 3331   0.322   6.354   7.049  0.6483  0.3503 -1.1560
   46CHL1    H3 3332   0.221   6.382   7.085  1.6099  1.2592  0.9984
   46CHL1    O3 3333   0.324   6.350   6.906 -0.0383  0.1254  0.0163
   46CHL1   H3' 3334   0.351   6.261   6.883 -1.0340 -1.2747  3.5328
   46CHL1    C4 3335   0.422   6.463   7.103 -0.4448 -0.6463 -0.1095
   46CHL1   H4A 3336   0.524   6.459   7.059  0.4508  2.0568  1.4623
   46CHL1   H4B 3337   0.387   6.558   7.056 -0.9160 -0.9213 -0.3195
   46CHL1    C5 3338   0.425   6.462   7.250  0.1102 -0.1677 -0.1576
   46CHL1    C6 3339   0.389   6.576   7.317 -0.0229 -0.4161  0.4987
   46CHL1    H6 3340   0.363   6.670   7.266  0.0035 -0.5649  0.2076
   46CHL1    C7 3341   0.409   6.598   7.460  0.3320 -0.1824  0.0376
   46CHL1   H7A 3342   0.475   6.686   7.476  0.8301 -0.1776 -1.8124
   46CHL1   H7B 3343   0.312   6.618   7.511  0.3126 -0.9805  0.3275
   46CHL1    C8 3344   0.483   6.487   7.524  0.4860 -0.2283 -0.2009
   46CHL1    H8 3345   0.589   6.508   7.498 -0.1160  1.9115 -1.1532
   46CHL1   C14 3346   0.456   6.506   7.664 -0.1653  0.1546 -0.4549
   46CHL1   H14 3347   0.351   6.486   7.694  0.7108 -2.0865  1.4400
   46CHL1   C15 3348   0.486   6.645   7.737  0.1062  0.1110 -0.1115
   46CHL1  H15A 3349   0.579   6.690   7.696 -1.0865  1.5869 -1.2910
   46CHL1  H15B 3350   0.408   6.723   7.726 -1.6685 -1.2752  1.9329
   46CHL1   C16 3351   0.491   6.606   7.886 -0.5198  1.0006 -0.5421
   46CHL1  H16A 3352   0.588   6.638   7.929  0.2119 -0.9922 -0.5839
   46CHL1  H16B 3353   0.402   6.644   7.940  0.2720  2.0954  0.0353
   46CHL1   C17 3354   0.492   6.452   7.890 -0.3143  0.1919 -0.2216
   46CHL1   H17 3355   0.388   6.419   7.906 -0.6615  0.4816 -1.7174
   46CHL1   C13 3356   0.527   6.401   7.755 -0.1695 -0.8028  0.6883
   46CHL1   C18 3357   0.682   6.415   7.740 -0.7432  0.4503  0.0745
   46CHL1  H18A 3358   0.711   6.402   7.633 -1.3398 -0.0953 -0.0277
   46CHL1  H18B 3359   0.716   6.515   7.773 -1.8087  1.0348 -0.5497
   46CHL1  H18C 3360   0.744   6.340   7.793  1.2033 -0.8775 -3.6758
   46CHL1   C12 3361   0.492   6.255   7.716 -0.3508 -0.5861 -0.0742
   46CHL1  H12A 3362   0.552   6.173   7.761  0.1263 -0.4209 -0.4073
   46CHL1  H12B 3363   0.385   6.244   7.743 -0.7599  1.2903 -0.8172
   46CHL1   C11 3364   0.500   6.233   7.564  0.7316 -0.1605  0.3607
   46CHL1  H11A 3365   0.607   6.218   7.538  0.0168 -0.3636 -2.9532
   46CHL1  H11B 3366   0.457   6.139   7.524  2.0319 -0.2018 -1.0388
   46CHL1    C9 3367   0.435   6.347   7.480  0.2248 -0.7713 -0.2120
   46CHL1    H9 3368   0.326   6.343   7.502  0.1708 -0.5049 -0.4264
   46CHL1   C10 3369   0.454   6.329   7.322 -0.1180 -0.1967  0.2640
   46CHL1   C19 3370   0.599   6.308   7.291 -0.0190 -0.6381  0.6270
   46CHL1  H19A 3371   0.620   6.303   7.181  0.0850  1.3472  0.5266
   46CHL1  H19B 3372   0.669   6.381   7.337  2.0666 -0.5828 -2.3113
   46CHL1  H19C 3373   0.632   6.215   7.342  1.7222  1.2267  3.1561
   46CHL1    C1 3374   0.363   6.216   7.262  0.1846 -0.0115  0.1585
   46CHL1   H1A 3375   0.392   6.117   7.304  0.8256  0.0723 -0.0824
   46CHL1   H1B 3376   0.258   6.233   7.293  0.2632  0.7226  0.0543
   46CHL1    C2 3377   0.355   6.215   7.109 -0.2197 -0.3704 -0.0200
   46CHL1   H2A 3378   0.278   6.138   7.084 -0.6571  0.2335 -0.5737
   46CHL1   H2B 3379   0.447   6.182   7.057  0.9852 -1.4163  2.6063
   46CHL1   C20 3380   0.573   6.392   8.016  0.0226 -0.5095 -0.3459
   46CHL1   H20 3381   0.604   6.288   7.990 -1.6524 -1.2044  0.3164
   46CHL1   C21 3382   0.479   6.372   8.142  0.2177 -0.7777 -0.9147
   46CHL1  H21A 3383   0.523   6.330   8.235 -1.0028  2.3909  1.2587
   46CHL1  H21B 3384   0.387   6.313   8.122  0.1294 -1.1359  0.4142
   46CHL1  H21C 3385   0.435   6.468   8.177  2.2186 -0.0001 -0.3622
   46CHL1   C22 3386   0.694   6.476   8.070 -0.7228  1.3703 -0.0968
   46CHL1  H22A 3387   0.751   6.519   7.985  0.3875 -0.2839 -0.2258
   46CHL1  H22B 3388   0.662   6.559   8.137 -2.6716 -0.4959  1.4498
   46CHL1   C23 3389   0.800   6.382   8.145 -0.7763  0.4164 -0.5888
   46CHL1  H23A 3390   0.772   6.363   8.251  0.7008  1.5864  0.0400
   46CHL1  H23B 3391   0.789   6.292   8.081  1.4370 -0.0502 -0.3980
   46CHL1   C24 3392   0.948   6.436   8.136  0.3233  0.4371  0.3793
   46CHL1  H24A 3393   1.025   6.358   8.151  0.0496  0.2640  0.9152
   46CHL1  H24B 3394   0.958   6.482   8.035  0.2528 -0.2944  0.0337
   46CHL1   C25 3395   0.971   6.550   8.229 -0.6243  0.4292 -0.0390
   46CHL1   H25 3396   0.890   6.625   8.220 -0.7542  0.2300 -0.5254
   46CHL1   C26 3397   0.958   6.515   8.379  0.9693 -0.0506 -0.4276
   46CHL1  H26A 3398   0.998   6.416   8.408 -1.2866 -0.7987  0.3289
   46CHL1  H26B 3399   1.000   6.590   8.450 -1.3974 -0.6922  1.7722
   46CHL1  H26C 3400   0.850   6.505   8.398  0.5514 -0.5957 -2.7428
   46CHL1   C27 3401   1.105   6.618   8.195 -0.5325 -0.5025 -0.5538
   46CHL1  H27A 3402   1.191   6.557   8.230  0.4389  0.3041 -1.4540
   46CHL1  H27B 3403   1.109   6.637   8.086  0.8655  2.8189 -0.0548
   46CHL1  H27C 3404   1.116   6.717   8.245  0.3985 -0.7077 -0.3360
   47CHL1    C3 3405   6.047   6.657   6.746  0.1194 -0.3262 -0.0688
   47CHL1    H3 3406   6.080   6.554   6.718 -0.0486 -0.5769  0.6444
   47CHL1    O3 3407   6.010   6.719   6.624  0.6073 -0.3203 -0.4188
   47CHL1   H3' 3408   5.971   6.800   6.657  0.3684 -0.6605  0.1652
   47CHL1    C4 3409   5.927   6.645   6.842 -0.6579  0.2395  0.0775
   47CHL1   H4A 3410   5.901   6.752   6.853  0.2137  0.5077 -0.3350
   47CHL1   H4B 3411   5.850   6.584   6.790 -0.8402  0.2114  0.3839
   47CHL1    C5 3412   5.972   6.594   6.982 -0.2724  1.2034  0.0171
   47CHL1    C6 3413   5.894   6.498   7.039 -0.0320 -0.5246  1.0263
   47CHL1    H6 3414   5.809   6.455   6.984  2.1254 -1.5776 -1.7626
   47CHL1    C7 3415   5.916   6.440   7.173 -0.0889 -0.0175 -0.0008
   47CHL1   H7A 3416   5.816   6.433   7.222 -1.1526  1.8412 -1.7482
   47CHL1   H7B 3417   5.948   6.333   7.167  0.1690  0.0788 -0.3835
   47CHL1    C8 3418   6.008   6.528   7.262  0.7917  0.6397  0.5496
   47CHL1    H8 3419   5.948   6.616   7.293  1.0484  0.6238  1.0882
   47CHL1   C14 3420   6.054   6.447   7.384 -0.0757  0.2088  0.3972
   47CHL1   H14 3421   6.130   6.374   7.348 -0.1603 -0.8591  2.3002
   47CHL1   C15 3422   5.958   6.367   7.477  0.6075  0.0172 -0.2871
   47CHL1  H15A 3423   5.853   6.402   7.489  0.3884 -1.2409  1.9734
   47CHL1  H15B 3424   5.937   6.265   7.436  0.9786  0.6311 -2.0761
   47CHL1   C16 3425   6.026   6.367   7.614 -0.1726  0.5282 -0.2725
   47CHL1  H16A 3426   5.970   6.428   7.688  0.0599 -0.4392  0.7265
   47CHL1  H16B 3427   6.030   6.260   7.643  2.5524  0.0189 -2.1583
   47CHL1   C17 3428   6.169   6.433   7.598  0.3409  0.4300 -1.1123
   47CHL1   H17 3429   6.232   6.345   7.570 -0.3862 -0.0249 -1.3694
   47CHL1   C13 3430   6.145   6.533   7.475 -0.1819 -0.0077  0.7977
   47CHL1   C18 3431   6.059   6.652   7.528  0.4184 -0.0671 -1.0816
   47CHL1  H18A 3432   6.033   6.731   7.454 -0.1153 -0.8034 -1.6974
   47CHL1  H18B 3433   5.964   6.620   7.575  1.1665 -2.0899 -0.8471
   47CHL1  H18C 3434   6.128   6.697   7.602 -1.4730  0.6327  0.3376
   47CHL1   C12 3435   6.276   6.570   7.397  0.5035 -0.1792  0.3934
   47CHL1  H12A 3436   6.337   6.642   7.456 -1.1267  1.1548  0.5612
   47CHL1  H12B 3437   6.338   6.482   7.371 -0.7883 -0.5264 -1.7417
   47CHL1   C11 3438   6.240   6.634   7.259 -0.0900 -0.1075  0.3580
   47CHL1  H11A 3439   6.208   6.736   7.289 -0.3629  0.1363 -0.7173
   47CHL1  H11B 3440   6.323   6.660   7.189 -0.6287 -0.8922 -0.6051
   47CHL1    C9 3441   6.126   6.568   7.179  0.5043 -0.6597  0.8047
   47CHL1    H9 3442   6.165   6.471   7.143  2.0370  1.0753 -2.7118
   47CHL1   C10 3443   6.089   6.656   7.052 -0.3996  0.0268 -0.6162
   47CHL1   C19 3444   6.047   6.798   7.096 -0.1890  0.2541  0.0512
   47CHL1  H19A 3445   5.975   6.788   7.180 -0.3109  1.8431  0.1799
   47CHL1  H19B 3446   6.139   6.855   7.122 -0.1372  0.3384 -0.3064
   47CHL1  H19C 3447   6.004   6.858   7.012 -1.2952  0.1762  0.5356
   47CHL1    C1 3448   6.203   6.661   6.944  0.2933 -0.3592  0.6218
   47CHL1   H1A 3449   6.283   6.724   6.988  0.5625 -0.7286  0.6567
   47CHL1   H1B 3450   6.241   6.559   6.923 -1.4943 -0.8522 -0.4805
   47CHL1    C2 3451   6.175   6.727   6.807 -0.4793 -0.0979 -0.5333
   47CHL1   H2A 3452   6.258   6.714   6.734  1.2755  1.4046  1.0673
   47CHL1   H2B 3453   6.153   6.836   6.807 -1.0445 -0.2056 -1.2825
   47CHL1   C20 3454   6.229   6.484   7.735 -0.1204  0.4717  0.4202
   47CHL1   H20 3455   6.165   6.559   7.786 -1.6479 -1.7634  1.9484
   47CHL1   C21 3456   6.363   6.554   7.713 -0.0776  0.0168  0.2882
   47CHL1  H21A 3457   6.407   6.585   7.810  1.3423 -0.1418 -0.2862
   47CHL1  H21B 3458   6.355   6.644   7.648 -0.8449 -2.0475 -2.7017
   47CHL1  H21C 3459   6.430   6.490   7.652 -0.7644 -0.3531 -0.0922
   47CHL1   C22 3460   6.254   6.369   7.837  0.5401 -0.4767  0.9128
   47CHL1  H22A 3461   6.342   6.309   7.805  1.8189  1.5860  0.3985
   47CHL1  H22B 3462   6.289   6.431   7.922  0.5674 -1.4063  1.5904
   47CHL1   C23 3463   6.128   6.298   7.900 -0.2508  0.0730  0.3119
   47CHL1  H23A 3464   6.045   6.371   7.885  0.3862  1.2216  2.1450
   47CHL1  H23B 3465   6.093   6.214   7.835  0.3767 -0.5166  0.7261
   47CHL1   C24 3466   6.149   6.243   8.047 -0.4911 -0.5824  0.5577
   47CHL1  H24A 3467   6.225   6.163   8.050 -1.3180 -1.3728  0.9300
   47CHL1  H24B 3468   6.192   6.330   8.102  0.5327 -0.2627 -0.7030
   47CHL1   C25 3469   6.022   6.188   8.105 -0.0063 -0.1497 -1.0674
   47CHL1   H25 3470   5.953   6.276   8.107  0.4004  0.1903 -1.6450
   47CHL1   C26 3471   5.955   6.073   8.035  0.2955 -0.2481  0.3194
   47CHL1  H26A 3472   6.016   5.980   8.038 -2.4675 -2.5906 -4.1119
   47CHL1  H26B 3473   5.858   6.043   8.078  0.1116  0.2055  0.2291
   47CHL1  H26C 3474   5.924   6.094   7.930  0.6315  0.1204  0.2905
   47CHL1   C27 3475   6.048   6.152   8.249  0.0062 -0.3174 -0.0723
   47CHL1  H27A 3476   5.956   6.138   8.309 -0.9325  0.6068 -1.2639
   47CHL1  H27B 3477   6.099   6.054   8.236  3.2701  1.4135 -1.7872
   47CHL1  H27C 3478   6.117   6.221   8.302  2.6247 -2.8388  0.0828
   48CHL1    C3 3479   3.415   1.656   6.441  0.9408  0.1294  0.3769
   48CHL1    H3 3480   3.333   1.724   6.472  0.1588 -0.9508  0.6921
   48CHL1    O3 3481   3.414   1.658   6.299  0.5091 -0.1650 -0.4169
   48CHL1   H3' 3482   3.462   1.578   6.279 -0.0876 -0.3090 -1.3148
   48CHL1    C4 3483   3.552   1.710   6.492 -0.1264 -0.6708 -0.0580
   48CHL1   H4A 3484   3.632   1.652   6.441 -1.3419 -1.1381 -1.4778
   48CHL1   H4B 3485   3.572   1.813   6.457  1.4550 -1.0686 -0.4190
   48CHL1    C5 3486   3.571   1.691   6.645 -0.3573 -0.4020  0.2346
   48CHL1    C6 3487   3.605   1.801   6.720 -0.3370 -0.1962 -0.8251
   48CHL1    H6 3488   3.617   1.900   6.673 -2.7996  0.9486  0.7601
   48CHL1    C7 3489   3.622   1.797   6.871 -0.0549  0.6210 -0.0288
   48CHL1   H7A 3490   3.722   1.837   6.896  0.1697  0.7531 -1.0986
   48CHL1   H7B 3491   3.548   1.861   6.924  0.6876  2.0453 -0.6724
   48CHL1    C8 3492   3.613   1.650   6.923  0.0247 -0.8331  0.2602
   48CHL1    H8 3493   3.708   1.598   6.899 -0.2283 -0.8034 -0.9075
   48CHL1   C14 3494   3.583   1.647   7.074  0.1155  1.0838  0.5359
   48CHL1   H14 3495   3.486   1.700   7.073 -0.1686  0.5587 -0.4040
   48CHL1   C15 3496   3.671   1.735   7.159 -0.3123  0.1422 -0.8445
   48CHL1  H15A 3497   3.770   1.714   7.112 -1.3369 -2.0423 -2.1980
   48CHL1  H15B 3498   3.633   1.838   7.149 -2.7265 -0.7406 -1.4650
   48CHL1   C16 3499   3.653   1.671   7.291 -0.0087  0.2267 -0.1418
   48CHL1  H16A 3500   3.750   1.626   7.320 -0.2613  0.1177  0.5428
   48CHL1  H16B 3501   3.621   1.744   7.368  0.1130  0.0147  0.1100
   48CHL1   C17 3502   3.543   1.567   7.289 -0.1977 -0.6688 -0.3334
   48CHL1   H17 3503   3.452   1.630   7.293 -0.6997 -1.1092 -2.7953
   48CHL1   C13 3504   3.555   1.514   7.140 -0.5504  0.4795 -0.6181
   48CHL1   C18 3505   3.673   1.415   7.120  0.7132  0.7102  0.0912
   48CHL1  H18A 3506   3.699   1.412   7.012  0.6439  1.9879  0.0195
   48CHL1  H18B 3507   3.759   1.456   7.177 -0.2936  1.5456  1.0663
   48CHL1  H18C 3508   3.647   1.315   7.160  0.0043  0.3781 -1.1453
   48CHL1   C12 3509   3.438   1.450   7.068  0.1633 -0.1372 -0.3524
   48CHL1  H12A 3510   3.422   1.346   7.102  1.3313  0.4946  2.4163
   48CHL1  H12B 3511   3.346   1.511   7.078  0.0101  0.0780 -2.6267
   48CHL1   C11 3512   3.460   1.432   6.920 -0.0548 -0.0188 -0.1851
   48CHL1  H11A 3513   3.527   1.349   6.890  1.4833  1.2771 -0.4939
   48CHL1  H11B 3514   3.363   1.407   6.872  0.2683  0.4982 -1.1304
   48CHL1    C9 3515   3.502   1.573   6.853 -0.0095  0.2925 -0.4398
   48CHL1    H9 3516   3.416   1.642   6.867  0.5589  0.6640  1.5994
   48CHL1   C10 3517   3.526   1.564   6.702 -0.8237 -0.1951  0.2880
   48CHL1   C19 3518   3.637   1.455   6.685 -0.8711 -0.4201 -0.2744
   48CHL1  H19A 3519   3.731   1.488   6.734  0.3350 -2.0993 -1.3667
   48CHL1  H19B 3520   3.614   1.350   6.711  0.0290 -0.5273  0.1374
   48CHL1  H19C 3521   3.656   1.445   6.576  0.8346 -0.0181 -0.0534
   48CHL1    C1 3522   3.401   1.515   6.639  0.2227  0.3713 -0.6139
   48CHL1   H1A 3523   3.381   1.409   6.666 -0.9872  0.4684 -1.0864
   48CHL1   H1B 3524   3.327   1.586   6.680  1.5986  2.3567 -1.4175
   48CHL1    C2 3525   3.391   1.518   6.490 -0.1517 -0.8699  0.1053
   48CHL1   H2A 3526   3.292   1.477   6.463 -0.8302  0.9591 -0.2975
   48CHL1   H2B 3527   3.475   1.459   6.446 -0.1104  0.0641 -1.0987
   48CHL1   C20 3528   3.545   1.470   7.410  0.7057  0.2104 -0.1371
   48CHL1   H20 3529   3.652   1.439   7.411  0.9938  1.1573  1.1253
   48CHL1   C21 3530   3.450   1.344   7.389 -0.0047 -0.3473 -0.0167
   48CHL1  H21A 3531   3.442   1.267   7.469  0.0761 -1.1197 -0.7418
   48CHL1  H21B 3532   3.481   1.292   7.296 -2.1543 -0.7656 -0.5370
   48CHL1  H21C 3533   3.343   1.373   7.376  0.0042 -0.1353  0.3571
   48CHL1   C22 3534   3.508   1.540   7.542  0.2497  0.2632 -0.3231
   48CHL1  H22A 3535   3.576   1.625   7.566 -2.9439  2.0424  3.6960
   48CHL1  H22B 3536   3.409   1.589   7.534 -0.4306 -0.0545  3.8114
   48CHL1   C23 3537   3.493   1.460   7.672 -0.1666 -0.1708  0.1059
   48CHL1  H23A 3538   3.392   1.415   7.674  0.0966 -0.7631  1.5158
   48CHL1  H23B 3539   3.575   1.385   7.676  2.5074  2.4157 -1.8582
   48CHL1   C24 3540   3.483   1.554   7.798 -0.2236 -0.2776 -0.3633
   48CHL1  H24A 3541   3.587   1.591   7.809 -0.4188  0.3716 -0.6591
   48CHL1  H24B 3542   3.416   1.641   7.783  0.9675  1.3963  2.8570
   48CHL1   C25 3543   3.458   1.473   7.934  0.4139  0.1489  0.1428
   48CHL1   H25 3544   3.365   1.414   7.926  0.6515 -0.1044 -1.0497
   48CHL1   C26 3545   3.574   1.371   7.945  0.4873 -0.9688 -1.3637
   48CHL1  H26A 3546   3.588   1.346   8.052  1.7991  1.4432 -0.9151
   48CHL1  H26B 3547   3.563   1.289   7.871 -3.0758 -1.3462 -0.5945
   48CHL1  H26C 3548   3.669   1.420   7.915 -0.6245  1.1620 -1.5601
   48CHL1   C27 3549   3.430   1.561   8.055  0.0093 -0.3284 -0.1616
   48CHL1  H27A 3550   3.432   1.498   8.146 -0.9942  1.2678  1.0136
   48CHL1  H27B 3551   3.507   1.641   8.059 -0.1813  0.0290 -2.4275
   48CHL1  H27C 3552   3.330   1.606   8.039  0.0718  0.4530  1.4741
   49CHL1    C3 3553   2.968   3.984   6.731 -0.2530 -0.8856  0.1545
   49CHL1    H3 3554   2.879   3.921   6.751 -1.0270  0.4366  1.0693
   49CHL1    O3 3555   2.985   4.032   6.599  0.3862  0.4164  0.2116
   49CHL1   H3' 3556   2.897   4.053   6.566 -1.5075 -0.2553  4.2777
   49CHL1    C4 3557   2.954   4.105   6.826 -0.0268 -0.4247 -0.4463
   49CHL1   H4A 3558   3.041   4.171   6.804  0.0141  0.0715  1.0673
   49CHL1   H4B 3559   2.856   4.151   6.800 -0.1852 -0.5077 -0.0124
   49CHL1    C5 3560   2.957   4.076   6.975  0.8512 -0.2181 -0.1430
   49CHL1    C6 3561   2.852   4.114   7.055 -0.1783  0.8543  0.0932
   49CHL1    H6 3562   2.774   4.180   7.014  0.1864 -0.1231 -2.3487
   49CHL1    C7 3563   2.850   4.074   7.203 -0.9246  0.3529  0.7049
   49CHL1   H7A 3564   2.839   4.167   7.264  0.6799 -0.6372  2.6309
   49CHL1   H7B 3565   2.765   4.006   7.223  0.8037 -2.0638  0.3035
   49CHL1    C8 3566   2.986   4.014   7.249  0.2084 -0.4342  0.4085
   49CHL1    H8 3567   3.053   4.102   7.254  0.4779 -0.6064 -0.0912
   49CHL1   C14 3568   2.964   3.952   7.388 -0.0397  0.2015 -0.4077
   49CHL1   H14 3569   2.894   3.868   7.372  0.1234  0.0959 -0.5726
   49CHL1   C15 3570   2.891   4.042   7.485 -0.6673  0.2885 -0.2483
   49CHL1  H15A 3571   2.949   4.137   7.482 -0.8903  0.4256 -0.2342
   49CHL1  H15B 3572   2.784   4.057   7.462 -0.7226 -1.7647 -1.6018
   49CHL1   C16 3573   2.933   3.970   7.620  0.5274 -0.1351 -0.2346
   49CHL1  H16A 3574   2.972   4.050   7.686 -2.0084  1.6921 -0.8341
   49CHL1  H16B 3575   2.842   3.930   7.668  0.4815 -0.2044 -0.3762
   49CHL1   C17 3576   3.038   3.856   7.580  0.8655 -0.2812 -0.0288
   49CHL1   H17 3577   2.977   3.767   7.555  2.2025 -0.8343 -1.4666
   49CHL1   C13 3578   3.095   3.903   7.447 -0.2500  0.9309 -0.3320
   49CHL1   C18 3579   3.201   4.017   7.466  0.6504  0.6384 -1.3745
   49CHL1  H18A 3580   3.162   4.094   7.536 -3.0799 -0.1764 -2.3094
   49CHL1  H18B 3581   3.287   3.967   7.515 -0.8359 -0.1127  0.5540
   49CHL1  H18C 3582   3.248   4.066   7.377  1.6148  0.7617 -0.8154
   49CHL1   C12 3583   3.147   3.781   7.360  0.1972 -0.3766 -0.3338
   49CHL1  H12A 3584   3.246   3.739   7.392 -0.6002 -1.4676  0.8119
   49CHL1  H12B 3585   3.079   3.693   7.363 -1.1215  0.5704  3.0990
   49CHL1   C11 3586   3.169   3.841   7.216 -0.1036  0.1466  0.1504
   49CHL1  H11A 3587   3.252   3.913   7.233 -1.7632  1.7405  2.1638
   49CHL1  H11B 3588   3.201   3.767   7.140  2.0290  2.6878 -1.6058
   49CHL1    C9 3589   3.044   3.912   7.155 -0.4325 -0.6133 -0.2471
   49CHL1    H9 3590   2.967   3.833   7.138 -1.4040  0.2487  0.0783
   49CHL1   C10 3591   3.065   3.972   7.017  0.1265  0.1230  0.3570
   49CHL1   C19 3592   3.199   4.052   7.020 -0.0626 -0.0518  0.4218
   49CHL1  H19A 3593   3.210   4.097   6.919 -0.5274  1.0790  0.8591
   49CHL1  H19B 3594   3.191   4.142   7.085  0.1285  2.6762 -3.0547
   49CHL1  H19C 3595   3.287   3.991   7.049 -0.3606 -1.2864 -1.1021
   49CHL1    C1 3596   3.071   3.847   6.917 -0.1550 -0.1925 -0.8825
   49CHL1   H1A 3597   3.157   3.784   6.948 -0.0496 -1.0463 -2.7333
   49CHL1   H1B 3598   2.984   3.778   6.922 -0.0303 -0.7081 -3.8702
   49CHL1    C2 3599   3.087   3.895   6.772  0.1224  0.2215 -0.3609
   49CHL1   H2A 3600   3.076   3.809   6.703 -2.9668  0.5359 -0.4066
   49CHL1   H2B 3601   3.186   3.942   6.756 -0.1260  1.2059  0.8487
   49CHL1   C20 3602   3.135   3.824   7.690 -1.0961  0.3033  0.2538
   49CHL1   H20 3603   3.185   3.923   7.703 -0.8662  0.3739 -1.0680
   49CHL1   C21 3604   3.240   3.720   7.653 -0.2602 -0.5662 -0.2910
   49CHL1  H21A 3605   3.187   3.635   7.605 -2.2086 -0.4473  1.5446
   49CHL1  H21B 3606   3.304   3.694   7.741  2.0160  2.3052 -0.9455
   49CHL1  H21C 3607   3.313   3.764   7.581 -0.1227  1.1481  0.8285
   49CHL1   C22 3608   3.073   3.798   7.830 -0.4896  0.1393  0.7871
   49CHL1  H22A 3609   3.007   3.887   7.842 -2.6242 -1.5867  2.8806
   49CHL1  H22B 3610   3.017   3.702   7.830  3.0426 -2.1088  1.8024
   49CHL1   C23 3611   3.165   3.804   7.959 -0.1927 -0.2288  0.0857
   49CHL1  H23A 3612   3.245   3.727   7.953  0.4941  0.3562  1.3998
   49CHL1  H23B 3613   3.212   3.904   7.948 -0.1864 -0.1793  0.5692
   49CHL1   C24 3614   3.078   3.809   8.080  0.1534 -0.3492 -0.2401
   49CHL1  H24A 3615   3.009   3.891   8.052 -0.8446 -1.0307  0.1783
   49CHL1  H24B 3616   3.018   3.716   8.087 -0.1053 -0.3143 -1.6919
   49CHL1   C25 3617   3.146   3.835   8.214  0.0138 -0.1625  0.4757
   49CHL1   H25 3618   3.197   3.934   8.214 -1.3500  0.6942 -3.2118
   49CHL1   C26 3619   3.047   3.831   8.332  0.5605  0.3874  0.2282
   49CHL1  H26A 3620   3.109   3.806   8.421  0.6047 -1.5700 -0.3019
   49CHL1  H26B 3621   2.986   3.924   8.333 -0.9593 -0.5765  1.5642
   49CHL1  H26C 3622   2.984   3.742   8.313  2.0242 -0.7048  0.3608
   49CHL1   C27 3623   3.250   3.725   8.243 -0.1926 -0.5633  0.1358
   49CHL1  H27A 3624   3.334   3.746   8.173  0.6433  0.5814  1.4142
   49CHL1  H27B 3625   3.277   3.736   8.351  0.5249 -2.0269  0.1307
   49CHL1  H27C 3626   3.197   3.628   8.230 -1.6442  0.5237 -2.8146
   50CHL1    C3 3627   2.802   5.088   6.849 -0.5746  0.0562  0.6490
   50CHL1    H3 3628   2.898   5.041   6.818 -1.6622 -1.6274 -0.3152
   50CHL1    O3 3629   2.743   5.102   6.720  0.2122 -0.4103  0.3369
   50CHL1   H3' 3630   2.745   5.198   6.715 -0.2207 -0.3010  1.7750
   50CHL1    C4 3631   2.731   4.988   6.936  0.2819  0.2676 -0.1444
   50CHL1   H4A 3632   2.626   5.018   6.957  0.3534 -1.0320  2.3866
   50CHL1   H4B 3633   2.728   4.889   6.885  0.3211 -0.5381  1.3862
   50CHL1    C5 3634   2.799   4.979   7.072  0.1855  0.2660 -0.3993
   50CHL1    C6 3635   2.838   4.863   7.125 -0.6757 -0.2145  0.7826
   50CHL1    H6 3636   2.830   4.771   7.064  0.9547  0.8522 -1.1569
   50CHL1    C7 3637   2.906   4.844   7.257  0.2870 -0.1826 -0.3417
   50CHL1   H7A 3638   2.875   4.752   7.312 -1.5582  0.7147  0.2093
   50CHL1   H7B 3639   3.015   4.835   7.238  0.2068 -3.1383  0.0694
   50CHL1    C8 3640   2.883   4.966   7.352  0.2889  0.4515 -0.2182
   50CHL1    H8 3641   2.779   4.962   7.390  0.3057 -0.8039 -0.2498
   50CHL1   C14 3642   2.978   4.953   7.466  0.4821 -0.4081 -0.0803
   50CHL1   H14 3643   3.081   4.970   7.427 -0.2789  1.6652 -1.3050
   50CHL1   C15 3644   2.970   4.824   7.548 -0.5344 -0.0293  0.4827
   50CHL1  H15A 3645   2.862   4.804   7.564 -0.5452 -1.9281 -1.4699
   50CHL1  H15B 3646   3.012   4.730   7.504  1.8067  0.2074  2.0012
   50CHL1   C16 3647   3.031   4.856   7.681 -0.4934 -0.1019 -0.6536
   50CHL1  H16A 3648   2.967   4.822   7.765  0.1191 -1.5890 -0.7692
   50CHL1  H16B 3649   3.133   4.813   7.690 -0.1281  0.9548  0.5835
   50CHL1   C17 3650   3.054   5.010   7.686 -0.4520 -0.1466  0.1768
   50CHL1   H17 3651   3.151   5.036   7.639 -0.3877  0.5433  0.6824
   50CHL1   C13 3652   2.951   5.058   7.571 -0.1935  0.3927  0.0236
   50CHL1   C18 3653   2.808   5.071   7.635  0.5002  0.2426 -0.4981
   50CHL1  H18A 3654   2.733   5.114   7.566  0.5126 -0.2423 -0.8219
   50CHL1  H18B 3655   2.775   4.975   7.678  0.2780  0.4376 -0.2338
   50CHL1  H18C 3656   2.807   5.144   7.719 -1.6113 -0.4688  0.1552
   50CHL1   C12 3657   2.989   5.188   7.505 -0.1501 -0.3823 -0.1752
   50CHL1  H12A 3658   2.982   5.271   7.578 -0.0746  0.8461 -1.5121
   50CHL1  H12B 3659   3.093   5.183   7.468  0.3123 -1.7578  1.1939
   50CHL1   C11 3660   2.902   5.219   7.383 -0.1490  0.2255 -0.2249
   50CHL1  H11A 3661   2.800   5.239   7.420  1.0256  2.1897  2.2184
   50CHL1  H11B 3662   2.935   5.311   7.331 -0.5283  0.4669 -0.0330
   50CHL1    C9 3663   2.906   5.097   7.280  0.1867 -0.3076 -0.1332
   50CHL1    H9 3664   3.011   5.094   7.245 -0.1660 -2.0083 -1.1449
   50CHL1   C10 3665   2.821   5.108   7.153 -0.6992 -0.1377 -0.3286
   50CHL1   C19 3666   2.685   5.168   7.185  0.3574  0.2008 -0.0843
   50CHL1  H19A 3667   2.688   5.273   7.222 -0.5627 -0.4342  1.9208
   50CHL1  H19B 3668   2.616   5.174   7.098  1.1244 -0.4544 -0.7563
   50CHL1  H19C 3669   2.638   5.109   7.266 -0.3212  2.2872  1.1351
   50CHL1    C1 3670   2.904   5.205   7.056  0.0423 -0.3984  0.0306
   50CHL1   H1A 3671   2.901   5.305   7.105 -0.6260  0.6240 -1.9839
   50CHL1   H1B 3672   3.005   5.164   7.039  0.1066 -0.2622  0.0845
   50CHL1    C2 3673   2.837   5.225   6.918 -0.3165  0.5126 -0.4005
   50CHL1   H2A 3674   2.904   5.281   6.850  0.4788  0.8177  0.6036
   50CHL1   H2B 3675   2.745   5.283   6.941  0.7445  2.4771 -0.9563
   50CHL1   C20 3676   3.056   5.083   7.822  0.5927  0.4715  0.5392
   50CHL1   H20 3677   3.031   5.189   7.800  0.5136  0.4008  0.2801
   50CHL1   C21 3678   3.199   5.103   7.872 -0.1287 -0.3672  0.2249
   50CHL1  H21A 3679   3.216   5.189   7.939  2.0087 -0.5324 -0.0320
   50CHL1  H21B 3680   3.258   5.113   7.778 -0.7260  0.5832 -0.0622
   50CHL1  H21C 3681   3.226   5.012   7.930  0.9211  1.4263  2.7242
   50CHL1   C22 3682   2.967   5.016   7.930 -0.0101 -0.2200  0.4013
   50CHL1  H22A 3683   2.865   4.997   7.891  0.1963 -1.6508  0.5243
   50CHL1  H22B 3684   3.007   4.919   7.966 -1.8056 -0.1860  2.7537
   50CHL1   C23 3685   2.933   5.101   8.052  0.7970  0.2990  0.8332
   50CHL1  H23A 3686   3.028   5.133   8.099  1.5535  1.6697 -1.4722
   50CHL1  H23B 3687   2.891   5.199   8.020  0.5331 -0.3845 -1.0271
   50CHL1   C24 3688   2.858   5.022   8.159 -0.3700 -0.8407 -0.3096
   50CHL1  H24A 3689   2.764   4.986   8.111 -0.9691  1.1901 -0.7243
   50CHL1  H24B 3690   2.909   4.929   8.193  0.0658 -0.7155 -0.6198
   50CHL1   C25 3691   2.832   5.092   8.284  0.5574  0.3728 -0.9884
   50CHL1   H25 3692   2.796   5.193   8.255  0.2166  0.8402  0.9166
   50CHL1   C26 3693   2.711   5.034   8.362  0.5366 -0.3600  0.1556
   50CHL1  H26A 3694   2.727   4.924   8.366  0.0060 -0.5484 -1.8190
   50CHL1  H26B 3695   2.682   5.064   8.465  2.7919 -0.5932  0.9118
   50CHL1  H26C 3696   2.623   5.055   8.298 -0.8994 -4.0279  0.7044
   50CHL1   C27 3697   2.955   5.115   8.374  0.4019 -0.3878 -0.5762
   50CHL1  H27A 3698   2.988   5.013   8.402  0.8942 -0.5961 -1.8494
   50CHL1  H27B 3699   3.034   5.171   8.319 -0.0634  0.0497 -0.8043
   50CHL1  H27C 3700   2.929   5.182   8.459  0.3420  1.2375 -1.8330
   51CHL1    C3 3701   2.471   4.508   6.898 -0.5070  0.4865  0.0098
   51CHL1    H3 3702   2.448   4.612   6.930  0.6712  0.6745  0.2886
   51CHL1    O3 3703   2.503   4.500   6.755  0.1167 -0.3636  0.0001
   51CHL1   H3' 3704   2.593   4.531   6.745  0.0648  0.9228  2.5786
   51CHL1    C4 3705   2.595   4.462   6.979  0.8179 -0.9288 -0.1988
   51CHL1   H4A 3706   2.631   4.370   6.929  0.0710 -1.8000  0.8050
   51CHL1   H4B 3707   2.680   4.533   6.966  1.2310 -1.3822  0.0292
   51CHL1    C5 3708   2.580   4.432   7.130 -0.3145 -0.6827  0.2324
   51CHL1    C6 3709   2.675   4.459   7.224 -0.0494 -0.1873  0.8421
   51CHL1    H6 3710   2.765   4.511   7.188  0.2166 -0.6105  0.8969
   51CHL1    C7 3711   2.660   4.435   7.365  0.2530 -0.3016 -0.9312
   51CHL1   H7A 3712   2.755   4.397   7.408 -0.8436 -0.5444  1.4345
   51CHL1   H7B 3713   2.620   4.520   7.424 -1.3717  0.6740 -3.2799
   51CHL1    C8 3714   2.550   4.330   7.403 -0.6011  0.0762  0.0360
   51CHL1    H8 3715   2.598   4.233   7.377  1.4812  1.4081 -1.3930
   51CHL1   C14 3716   2.525   4.328   7.556  0.5085 -0.0725 -0.6716
   51CHL1   H14 3717   2.490   4.431   7.577 -0.1059 -0.1942 -1.0779
   51CHL1   C15 3718   2.646   4.313   7.648 -0.5953  0.0411 -0.8834
   51CHL1  H15A 3719   2.723   4.240   7.614  0.6878  1.3418 -0.8679
   51CHL1  H15B 3720   2.700   4.410   7.644 -0.7320  0.0811 -2.1084
   51CHL1   C16 3721   2.577   4.285   7.779 -0.1612  0.1947  0.0339
   51CHL1  H16A 3722   2.604   4.185   7.821 -1.5046  0.0521  0.5896
   51CHL1  H16B 3723   2.613   4.357   7.855  1.7845 -0.5027 -0.1571
   51CHL1   C17 3724   2.423   4.268   7.751 -0.1599  0.1034  0.1060
   51CHL1   H17 3725   2.375   4.367   7.768 -0.5030  0.5709 -2.9986
   51CHL1   C13 3726   2.416   4.235   7.604 -0.2168  0.4458 -0.7006
   51CHL1   C18 3727   2.458   4.091   7.570  0.2448  0.1365 -0.1562
   51CHL1  H18A 3728   2.559   4.077   7.615  0.0843  1.6351  0.7271
   51CHL1  H18B 3729   2.387   4.021   7.620  2.2919 -1.2492  0.9829
   51CHL1  H18C 3730   2.459   4.064   7.462  1.9663  1.2575 -0.4527
   51CHL1   C12 3731   2.284   4.278   7.527 -0.2384 -0.2280  0.3312
   51CHL1  H12A 3732   2.198   4.213   7.554 -0.2079  0.5977  2.6474
   51CHL1  H12B 3733   2.274   4.387   7.550  2.1316  0.4745 -1.5472
   51CHL1   C11 3734   2.308   4.267   7.372  0.8115  0.5947  0.2615
   51CHL1  H11A 3735   2.329   4.160   7.353 -0.5641  0.3033  0.2363
   51CHL1  H11B 3736   2.216   4.296   7.317  1.9601 -0.9363 -2.7113
   51CHL1    C9 3737   2.426   4.354   7.319 -0.3872  0.2197 -0.6119
   51CHL1    H9 3738   2.386   4.454   7.346 -0.7474 -0.2039  0.4967
   51CHL1   C10 3739   2.458   4.346   7.164  0.3109  0.8481  0.0979
   51CHL1   C19 3740   2.487   4.194   7.124 -0.6015  0.5761 -0.1368
   51CHL1  H19A 3741   2.516   4.164   7.021  1.9675  1.2032  0.3333
   51CHL1  H19B 3742   2.554   4.142   7.195  1.1873  3.0565  0.1445
   51CHL1  H19C 3743   2.393   4.146   7.157 -2.4829  3.2400 -1.1686
   51CHL1    C1 3744   2.336   4.387   7.085  0.0711 -0.4064  0.2927
   51CHL1   H1A 3745   2.262   4.307   7.107  0.3780 -0.7743  0.0049
   51CHL1   H1B 3746   2.307   4.483   7.132  2.8534  1.4691 -1.4836
   51CHL1    C2 3747   2.355   4.408   6.933 -0.2293  0.3589 -0.3723
   51CHL1   H2A 3748   2.259   4.448   6.893 -0.7037 -0.6130 -0.2299
   51CHL1   H2B 3749   2.374   4.306   6.892 -1.1006 -0.4346  1.1207
   51CHL1   C20 3750   2.353   4.174   7.859  0.2762 -0.1360 -0.1966
   51CHL1   H20 3751   2.424   4.089   7.871 -0.0891 -0.3297  0.7276
   51CHL1   C21 3752   2.213   4.128   7.816 -0.4867 -0.3834 -0.3390
   51CHL1  H21A 3753   2.171   4.068   7.899 -0.6060  1.8267  1.3138
   51CHL1  H21B 3754   2.217   4.071   7.721  2.2360  0.6287 -0.9364
   51CHL1  H21C 3755   2.161   4.225   7.799  0.2531 -0.2350 -1.9820
   51CHL1   C22 3756   2.353   4.247   7.994 -0.2761 -0.3968 -0.0438
   51CHL1  H22A 3757   2.448   4.303   7.998  0.3745 -1.3943 -0.9768
   51CHL1  H22B 3758   2.280   4.330   7.985 -2.5823 -1.9061  2.9417
   51CHL1   C23 3759   2.334   4.157   8.113 -0.2323 -1.1599  0.0649
   51CHL1  H23A 3760   2.227   4.129   8.121 -0.2254 -0.9972  0.8247
   51CHL1  H23B 3761   2.392   4.063   8.104 -1.8379 -2.1288 -0.4939
   51CHL1   C24 3762   2.379   4.237   8.237 -0.6367  0.5483 -0.2497
   51CHL1  H24A 3763   2.477   4.289   8.238  0.0489 -0.7224  0.0736
   51CHL1  H24B 3764   2.294   4.309   8.245 -0.0291  1.1831  0.7350
   51CHL1   C25 3765   2.393   4.137   8.359  0.5831  0.7842 -0.5137
   51CHL1   H25 3766   2.418   4.197   8.449 -1.2106 -0.7892  1.1233
   51CHL1   C26 3767   2.265   4.059   8.402 -0.4458  0.6588 -0.0582
   51CHL1  H26A 3768   2.294   3.993   8.486  1.6388  0.6800 -0.7113
   51CHL1  H26B 3769   2.177   4.124   8.423 -3.1087 -3.0024  1.1223
   51CHL1  H26C 3770   2.233   3.991   8.320  0.0712 -1.7004  1.6200
   51CHL1   C27 3771   2.510   4.041   8.332 -0.2777 -0.3043 -0.2599
   51CHL1  H27A 3772   2.590   4.101   8.284  0.6619 -1.4307 -0.1453
   51CHL1  H27B 3773   2.543   3.993   8.427 -3.2350 -1.3208  0.3465
   51CHL1  H27C 3774   2.471   3.961   8.265 -0.7389  0.7792 -1.3284
   52CHL1    C3 3775   5.340   4.461   6.985  0.3131  0.8512 -0.0058
   52CHL1    H3 3776   5.231   4.460   7.005  0.5270 -1.9205  1.5267
   52CHL1    O3 3777   5.384   4.499   6.853  0.2402  0.0801  0.4030
   52CHL1   H3' 3778   5.409   4.592   6.861 -1.2421  0.6516 -1.1592
   52CHL1    C4 3779   5.406   4.563   7.084  0.9366  0.0293 -0.4645
   52CHL1   H4A 3780   5.516   4.556   7.074  0.6839 -2.2929 -2.9214
   52CHL1   H4B 3781   5.388   4.667   7.048  2.6615 -0.7405 -3.9990
   52CHL1    C5 3782   5.356   4.539   7.227  0.2397 -0.3341 -0.1743
   52CHL1    C6 3783   5.288   4.624   7.310  0.2189  0.1160 -0.4975
   52CHL1    H6 3784   5.268   4.726   7.275  1.7767  1.4190  2.0541
   52CHL1    C7 3785   5.261   4.605   7.456  0.3339 -0.0716  0.2126
   52CHL1   H7A 3786   5.273   4.702   7.510  0.1395 -0.9546  1.9068
   52CHL1   H7B 3787   5.157   4.577   7.483  1.0986 -3.5397 -0.0128
   52CHL1    C8 3788   5.357   4.496   7.515 -0.5192  0.1471  0.5305
   52CHL1    H8 3789   5.458   4.543   7.513  0.8047 -2.5582 -0.0535
   52CHL1   C14 3790   5.317   4.461   7.652  0.7078 -0.1300  0.2304
   52CHL1   H14 3791   5.217   4.414   7.640 -0.1332  2.1933 -4.3519
   52CHL1   C15 3792   5.306   4.579   7.756  0.1950  0.3472  0.1865
   52CHL1  H15A 3793   5.404   4.631   7.759  0.4388 -0.0604 -0.3733
   52CHL1  H15B 3794   5.215   4.636   7.726 -1.7531 -2.3561  0.5338
   52CHL1   C16 3795   5.293   4.503   7.893  0.0493 -0.4150 -0.1342
   52CHL1  H16A 3796   5.373   4.534   7.964  0.9373  2.3572 -2.2189
   52CHL1  H16B 3797   5.191   4.514   7.936  0.0145 -1.6726  0.1394
   52CHL1   C17 3798   5.339   4.351   7.866  0.3116 -1.0773 -0.7203
   52CHL1   H17 3799   5.237   4.316   7.839 -0.1037 -0.2992 -0.2095
   52CHL1   C13 3800   5.398   4.356   7.723  0.2595 -0.4934  0.2544
   52CHL1   C18 3801   5.548   4.398   7.743  0.5534 -0.1631  0.2389
   52CHL1  H18A 3802   5.620   4.313   7.752  1.6236  0.5797 -0.9859
   52CHL1  H18B 3803   5.583   4.431   7.643  0.9305  1.4087  0.8618
   52CHL1  H18C 3804   5.568   4.486   7.807 -1.2330  0.8855 -0.5850
   52CHL1   C12 3805   5.388   4.222   7.642 -0.0286 -0.4415 -0.5046
   52CHL1  H12A 3806   5.443   4.138   7.690 -0.9174 -0.7597 -0.0158
   52CHL1  H12B 3807   5.279   4.200   7.651  0.0148 -0.8986 -1.0550
   52CHL1   C11 3808   5.435   4.251   7.501  0.2931  0.0709 -0.6773
   52CHL1  H11A 3809   5.543   4.277   7.500 -0.1800  2.3496 -2.7748
   52CHL1  H11B 3810   5.424   4.161   7.436 -0.1923 -1.4552  1.3958
   52CHL1    C9 3811   5.359   4.370   7.424 -0.0047  0.3458 -0.7023
   52CHL1    H9 3812   5.256   4.329   7.411 -0.0520 -0.1887  1.1159
   52CHL1   C10 3813   5.408   4.400   7.280 -0.3086 -0.0994 -0.5921
   52CHL1   C19 3814   5.560   4.396   7.271 -0.5998 -0.0803  0.1808
   52CHL1  H19A 3815   5.602   4.294   7.285 -0.1270 -0.0899 -1.1500
   52CHL1  H19B 3816   5.602   4.416   7.170 -1.8397 -0.3085 -0.3876
   52CHL1  H19C 3817   5.614   4.466   7.339 -1.2675  0.0270  0.6086
   52CHL1    C1 3818   5.353   4.296   7.174  0.3012  0.1185 -0.5375
   52CHL1   H1A 3819   5.389   4.194   7.201  1.1839  0.7981  1.0155
   52CHL1   H1B 3820   5.244   4.303   7.189  0.5755  0.8004  1.4493
   52CHL1    C2 3821   5.391   4.322   7.029 -0.7711  1.0654 -0.3111
   52CHL1   H2A 3822   5.357   4.242   6.959 -0.3931 -1.0089  1.7612
   52CHL1   H2B 3823   5.500   4.319   7.007 -0.3148  1.6694  1.7072
   52CHL1   C20 3824   5.393   4.275   7.985  0.2853  0.5083 -0.0460
   52CHL1   H20 3825   5.456   4.356   8.025  0.2641  0.8633 -0.7166
   52CHL1   C21 3826   5.472   4.145   7.948  0.6747 -0.1126  0.0543
   52CHL1  H21A 3827   5.505   4.090   8.038  1.2132  0.1927  0.0462
   52CHL1  H21B 3828   5.551   4.180   7.878  0.3630  0.9887  0.2267
   52CHL1  H21C 3829   5.412   4.067   7.896  2.4490 -1.2642 -0.3467
   52CHL1   C22 3830   5.281   4.234   8.086  0.3235 -0.6980  0.3320
   52CHL1  H22A 3831   5.203   4.312   8.088 -0.0470 -1.0677  2.2280
   52CHL1  H22B 3832   5.223   4.143   8.058 -1.6390  0.4814  0.3855
   52CHL1   C23 3833   5.336   4.211   8.222 -0.2073  0.0300 -0.3718
   52CHL1  H23A 3834   5.394   4.117   8.235 -2.7474 -1.6998 -0.9200
   52CHL1  H23B 3835   5.397   4.299   8.254 -1.5524  0.0688  2.3128
   52CHL1   C24 3836   5.230   4.188   8.340 -0.4129 -0.0006 -0.1779
   52CHL1  H24A 3837   5.175   4.096   8.310  2.4652 -2.3943  1.3488
   52CHL1  H24B 3838   5.279   4.163   8.437 -0.4793  2.3347  0.5296
   52CHL1   C25 3839   5.133   4.312   8.367  0.1665  0.2782  0.0136
   52CHL1   H25 3840   5.072   4.331   8.277  0.8984  0.6058 -0.4278
   52CHL1   C26 3841   5.035   4.276   8.483  0.0494  0.2266  0.1784
   52CHL1  H26A 3842   4.962   4.198   8.452 -0.6716  1.4081 -1.2127
   52CHL1  H26B 3843   5.100   4.245   8.567 -0.2761 -0.6647  0.1159
   52CHL1  H26C 3844   4.969   4.359   8.517  0.3432 -0.2329  1.9927
   52CHL1   C27 3845   5.204   4.445   8.408 -0.3341 -0.2829 -0.7212
   52CHL1  H27A 3846   5.244   4.505   8.324  1.1423  0.0800  0.2048
   52CHL1  H27B 3847   5.142   4.518   8.464  2.1853  0.6580  1.0247
   52CHL1  H27C 3848   5.293   4.429   8.473 -0.1772  0.5066 -0.7314
   53CHL1    C3 3849   0.157   1.616   6.908 -0.3930 -0.2089  0.5927
   53CHL1    H3 3850   0.219   1.704   6.884  0.5114 -1.2592 -1.2115
   53CHL1    O3 3851   0.113   1.562   6.782  0.0921  0.0565 -0.3368
   53CHL1   H3' 3852   0.028   1.522   6.801 -0.1958  1.2206  1.0208
   53CHL1    C4 3853   0.232   1.505   6.983  0.2677  0.0853  0.0541
   53CHL1   H4A 3854   0.168   1.414   6.993  0.4241 -0.0203  0.1096
   53CHL1   H4B 3855   0.323   1.477   6.926  1.3033  0.8001  1.3040
   53CHL1    C5 3856   0.277   1.552   7.122  0.3310 -0.1516 -0.1607
   53CHL1    C6 3857   0.408   1.535   7.156 -0.1769  0.5199  0.1803
   53CHL1    H6 3858   0.475   1.482   7.086 -1.9539 -0.6078 -0.7504
   53CHL1    C7 3859   0.454   1.567   7.301  0.2815  0.3143  0.0093
   53CHL1   H7A 3860   0.510   1.481   7.341  2.5851  2.3677  1.4658
   53CHL1   H7B 3861   0.542   1.634   7.291 -0.9900  2.1271  0.4222
   53CHL1    C8 3862   0.352   1.615   7.408  0.2569  0.3714  0.0962
   53CHL1    H8 3863   0.316   1.520   7.454  0.3381 -0.2047 -0.9882
   53CHL1   C14 3864   0.405   1.686   7.531 -0.2544 -0.8623 -0.5528
   53CHL1   H14 3865   0.461   1.773   7.490 -0.2435  0.0286  1.2442
   53CHL1   C15 3866   0.510   1.616   7.615 -0.4133  0.3936  0.2271
   53CHL1  H15A 3867   0.484   1.508   7.622 -0.6718  0.3429 -1.1801
   53CHL1  H15B 3868   0.607   1.632   7.563 -0.9277 -0.2832 -0.9769
   53CHL1   C16 3869   0.514   1.690   7.745 -0.8796 -0.1902  0.3299
   53CHL1  H16A 3870   0.498   1.614   7.824  4.4539 -1.5274  0.5531
   53CHL1  H16B 3871   0.618   1.728   7.754 -1.4243  1.0934  1.4805
   53CHL1   C17 3872   0.404   1.793   7.734  0.0614  0.3102  0.1773
   53CHL1   H17 3873   0.448   1.879   7.680  0.7098 -0.0037  0.1908
   53CHL1   C13 3874   0.306   1.739   7.632 -0.3716 -0.2369 -0.3436
   53CHL1   C18 3875   0.226   1.617   7.697  0.2711  0.7950 -0.1122
   53CHL1  H18A 3876   0.168   1.557   7.623 -1.4864 -0.0613  1.8456
   53CHL1  H18B 3877   0.295   1.545   7.746 -1.8557 -0.0419  1.8136
   53CHL1  H18C 3878   0.148   1.652   7.768 -2.5756  0.3998 -2.8054
   53CHL1   C12 3879   0.219   1.840   7.557 -0.0530 -0.5104  0.5691
   53CHL1  H12A 3880   0.145   1.887   7.624  0.6385  0.3408  0.7453
   53CHL1  H12B 3881   0.279   1.921   7.511  2.4171 -3.0028 -0.9528
   53CHL1   C11 3882   0.150   1.772   7.431 -0.6143  0.3027 -0.9130
   53CHL1  H11A 3883   0.078   1.696   7.468 -0.8291  0.5125 -0.8927
   53CHL1  H11B 3884   0.091   1.838   7.363  0.1105  2.1819  0.2118
   53CHL1    C9 3885   0.242   1.693   7.336  0.0463 -0.5775  0.2838
   53CHL1    H9 3886   0.299   1.778   7.292 -2.6065  1.8514  1.2559
   53CHL1   C10 3887   0.177   1.621   7.212 -0.2505  0.4926 -0.3750
   53CHL1   C19 3888   0.089   1.507   7.279  0.0940  0.1090 -0.4097
   53CHL1  H19A 3889   0.035   1.451   7.199  1.3847 -0.7849 -0.6903
   53CHL1  H19B 3890   0.145   1.445   7.352  0.7078  1.8594  0.6659
   53CHL1  H19C 3891   0.004   1.542   7.340 -1.4213 -1.8755 -1.2721
   53CHL1    C1 3892   0.097   1.725   7.123 -0.4180 -0.6434  0.5058
   53CHL1   H1A 3893   0.007   1.742   7.186  0.8911  0.8764  2.0737
   53CHL1   H1B 3894   0.163   1.814   7.117  0.3909 -1.2346  0.4574
   53CHL1    C2 3895   0.040   1.663   6.996 -0.1415 -0.2917 -0.0035
   53CHL1   H2A 3896  -0.019   1.729   6.929  0.7028 -0.1651 -0.6275
   53CHL1   H2B 3897  -0.017   1.571   7.022 -0.6132  0.4939  1.8962
   53CHL1   C20 3898   0.361   1.841   7.871 -0.1575  1.3117 -0.3306
   53CHL1   H20 3899   0.308   1.760   7.926  0.8722  1.6033  1.1440
   53CHL1   C21 3900   0.260   1.959   7.854  0.4010  0.6862  0.7625
   53CHL1  H21A 3901   0.165   1.901   7.863  0.9339 -0.1383  1.1906
   53CHL1  H21B 3902   0.274   2.009   7.756 -2.3955  0.0356 -0.0560
   53CHL1  H21C 3903   0.278   2.032   7.936  2.8871  1.1690 -0.1254
   53CHL1   C22 3904   0.474   1.882   7.968 -0.1857  0.1012  0.6613
   53CHL1  H22A 3905   0.557   1.809   7.967 -0.6602 -0.4630 -0.8188
   53CHL1  H22B 3906   0.502   1.978   7.920  1.3926 -0.3628  0.6055
   53CHL1   C23 3907   0.416   1.889   8.108  0.3737  0.6427  0.1792
   53CHL1  H23A 3908   0.330   1.958   8.111 -1.0222 -1.0373  0.2790
   53CHL1  H23B 3909   0.382   1.786   8.132  0.4841  0.4057 -0.6686
   53CHL1   C24 3910   0.518   1.942   8.210 -0.3163  0.0881 -0.0672
   53CHL1  H24A 3911   0.597   1.864   8.224 -1.0397 -0.8650 -1.1253
   53CHL1  H24B 3912   0.566   2.035   8.172 -0.0359 -0.2523 -0.5597
   53CHL1   C25 3913   0.459   1.959   8.353  0.4084 -0.8602 -1.1036
   53CHL1   H25 3914   0.375   1.888   8.370 -1.4245  1.5522  0.5958
   53CHL1   C26 3915   0.554   1.947   8.472 -0.2314  0.3623  0.4036
   53CHL1  H26A 3916   0.513   1.967   8.573  0.3174 -2.1895  1.2007
   53CHL1  H26B 3917   0.586   1.843   8.495 -0.1483  0.4855  0.8636
   53CHL1  H26C 3918   0.648   2.007   8.463  1.7180 -2.6865 -1.6364
   53CHL1   C27 3919   0.390   2.101   8.352  0.2143  0.7458  0.2638
   53CHL1  H27A 3920   0.314   2.087   8.272  0.2169 -1.4324  0.5602
   53CHL1  H27B 3921   0.346   2.125   8.451 -1.2803  5.5423 -1.2934
   53CHL1  H27C 3922   0.469   2.167   8.312 -0.2412 -0.1928 -2.4273
   54CHL1    C3 3923   1.110   2.552   6.887 -0.1881 -0.5834 -0.4335
   54CHL1    H3 3924   1.024   2.523   6.951  0.1279  1.3538  0.9741
   54CHL1    O3 3925   1.078   2.512   6.753 -0.1038 -0.5271  0.0885
   54CHL1   H3' 3926   1.152   2.546   6.701  0.3386 -2.8520 -0.9507
   54CHL1    C4 3927   1.090   2.702   6.885 -0.1414  0.0668 -0.6264
   54CHL1   H4A 3928   1.157   2.743   6.806  1.7217  1.4620  1.5609
   54CHL1   H4B 3929   0.988   2.726   6.848 -0.1215  0.1037 -0.6574
   54CHL1    C5 3930   1.120   2.762   7.020 -0.2107 -0.9805 -0.2356
   54CHL1    C6 3931   1.022   2.839   7.086  0.5384  0.7264  0.1896
   54CHL1    H6 3932   0.921   2.851   7.044  0.7858 -2.5986 -1.6715
   54CHL1    C7 3933   1.040   2.904   7.221 -0.0612 -0.5000 -0.0470
   54CHL1   H7A 3934   1.011   3.011   7.224  2.3727  0.2677 -0.9424
   54CHL1   H7B 3935   0.981   2.842   7.291 -0.5831 -0.5625 -0.5323
   54CHL1    C8 3936   1.192   2.899   7.264  0.1563  0.7874 -0.1390
   54CHL1    H8 3937   1.241   2.982   7.208 -0.0735  3.0784  2.7803
   54CHL1   C14 3938   1.211   2.928   7.410  0.4658  0.1579 -0.2310
   54CHL1   H14 3939   1.168   2.850   7.477  1.1245  1.7706  2.2312
   54CHL1   C15 3940   1.155   3.060   7.458 -0.1689 -0.4723  0.3417
   54CHL1  H15A 3941   1.187   3.144   7.392 -1.0972 -1.8696 -2.0148
   54CHL1  H15B 3942   1.044   3.058   7.457 -0.1610 -1.7486 -0.2202
   54CHL1   C16 3943   1.211   3.081   7.599  0.4426 -0.0632  0.2435
   54CHL1  H16A 3944   1.265   3.177   7.588 -1.7107  0.9615 -2.4029
   54CHL1  H16B 3945   1.133   3.072   7.677  0.4045 -3.7221 -0.0583
   54CHL1   C17 3946   1.324   2.971   7.611 -0.1630 -0.3744  0.6256
   54CHL1   H17 3947   1.273   2.889   7.666 -0.2911  0.3726  1.6460
   54CHL1   C13 3948   1.353   2.925   7.466  0.2535 -1.4838  0.6334
   54CHL1   C18 3949   1.432   3.031   7.384  0.1058 -0.3788 -0.1704
   54CHL1  H18A 3950   1.391   3.133   7.397 -0.5027 -0.3957 -1.7798
   54CHL1  H18B 3951   1.536   3.044   7.420  0.2936  1.0118 -1.1623
   54CHL1  H18C 3952   1.438   3.002   7.277 -1.9465 -0.0025 -0.4345
   54CHL1   C12 3953   1.406   2.781   7.444 -0.0453  0.3743 -0.3311
   54CHL1  H12A 3954   1.512   2.781   7.475 -0.0540  4.4592  0.1436
   54CHL1  H12B 3955   1.354   2.708   7.511 -0.6482  0.1212 -1.0511
   54CHL1   C11 3956   1.391   2.730   7.298  0.5230 -0.7015 -1.0624
   54CHL1  H11A 3957   1.478   2.776   7.248  4.4868 -3.3372  2.7355
   54CHL1  H11B 3958   1.416   2.622   7.298  0.3757 -0.7387 -0.5171
   54CHL1    C9 3959   1.248   2.766   7.229  0.1802 -0.1402 -0.9025
   54CHL1    H9 3960   1.179   2.691   7.274 -0.0411  2.1664  3.0456
   54CHL1   C10 3961   1.250   2.734   7.080  0.8574 -0.2217 -0.7201
   54CHL1   C19 3962   1.365   2.818   7.015  0.0483 -0.2096 -0.0116
   54CHL1  H19A 3963   1.366   2.925   7.047  1.2813  1.0778 -3.8305
   54CHL1  H19B 3964   1.460   2.763   7.031  1.4131  2.0396 -0.0003
   54CHL1  H19C 3965   1.351   2.827   6.905  1.6559  1.8355 -0.1087
   54CHL1    C1 3966   1.284   2.587   7.062 -0.1722  0.3505 -0.7703
   54CHL1   H1A 3967   1.389   2.562   7.092 -0.6537 -0.2768  0.4769
   54CHL1   H1B 3968   1.237   2.524   7.141  1.4393 -0.8029 -0.6702
   54CHL1    C2 3969   1.249   2.512   6.927  0.3931  0.3120  0.5068
   54CHL1   H2A 3970   1.256   2.401   6.935  0.3171  0.2590 -0.1378
   54CHL1   H2B 3971   1.320   2.550   6.850 -2.5739  1.7913 -1.6781
   54CHL1   C20 3972   1.442   3.023   7.691  0.3841  0.4515 -0.2134
   54CHL1   H20 3973   1.494   3.105   7.637  0.1692 -0.2594 -1.5557
   54CHL1   C21 3974   1.542   2.906   7.707  0.7690 -0.0780  0.0270
   54CHL1  H21A 3975   1.604   2.926   7.797  1.2715 -0.9970 -0.1028
   54CHL1  H21B 3976   1.602   2.879   7.618  0.3931 -0.0477 -0.2355
   54CHL1  H21C 3977   1.499   2.809   7.738 -1.6464  1.4407  1.8642
   54CHL1   C22 3978   1.401   3.084   7.826 -0.1968  0.3607  0.0603
   54CHL1  H22A 3979   1.489   3.125   7.880 -0.1743  0.4092 -0.0136
   54CHL1  H22B 3980   1.341   3.174   7.803 -1.9958 -0.5659  0.8912
   54CHL1   C23 3981   1.322   2.989   7.909 -0.6886  0.0025  0.2883
   54CHL1  H23A 3982   1.231   2.954   7.855 -1.0474  0.0550  0.8451
   54CHL1  H23B 3983   1.384   2.900   7.934  0.1581  0.9658  1.7247
   54CHL1   C24 3984   1.292   3.069   8.032  0.1739  0.6359  0.3310
   54CHL1  H24A 3985   1.264   3.174   8.008 -0.3159  0.0147 -2.2064
   54CHL1  H24B 3986   1.208   3.017   8.082 -0.5770 -0.1214 -1.5968
   54CHL1   C25 3987   1.412   3.088   8.130 -0.3529  0.2571  0.2147
   54CHL1   H25 3988   1.487   3.150   8.076 -0.9498  2.1247  1.4065
   54CHL1   C26 3989   1.376   3.166   8.257  0.1815  0.0139  0.4824
   54CHL1  H26A 3990   1.449   3.138   8.336  0.3079  0.1337  0.4095
   54CHL1  H26B 3991   1.371   3.275   8.233  1.9349 -0.0913 -0.5276
   54CHL1  H26C 3992   1.281   3.125   8.298  0.9668 -3.0308 -0.4858
   54CHL1   C27 3993   1.473   2.958   8.172  0.3871  0.2907  0.2605
   54CHL1  H27A 3994   1.563   2.967   8.236  0.3794  0.1690  0.2899
   54CHL1  H27B 3995   1.400   2.902   8.233 -0.7276  1.8095  0.3665
   54CHL1  H27C 3996   1.503   2.898   8.083 -0.1031  1.5670 -0.8057
   55CHL1    C3 3997   0.096   3.655   6.896  0.0662  0.2481  0.2378
   55CHL1    H3 3998  -0.013   3.641   6.882 -0.0286  1.8807 -0.9172
   55CHL1    O3 3999   0.138   3.631   6.767 -0.0831 -0.4795  0.1004
   55CHL1   H3' 4000   0.137   3.535   6.757  0.0179 -0.6249  1.3724
   55CHL1    C4 4001   0.131   3.804   6.939  0.3518 -0.7721 -0.1735
   55CHL1   H4A 4002   0.238   3.820   6.913  0.7637 -1.0076  1.2676
   55CHL1   H4B 4003   0.077   3.874   6.871  1.5995  0.8918  0.4651
   55CHL1    C5 4004   0.101   3.838   7.090 -0.2857 -0.0819  0.0169
   55CHL1    C6 4005   0.022   3.938   7.132 -0.2106  0.2007 -0.5661
   55CHL1    H6 4006  -0.024   4.007   7.060  0.7161  0.6559 -0.7433
   55CHL1    C7 4007  -0.000   3.970   7.278  0.4531  0.4292  0.6565
   55CHL1   H7A 4008   0.023   4.077   7.296  1.1782  0.4099 -0.1218
   55CHL1   H7B 4009  -0.106   3.951   7.306 -0.3920  4.9848  1.2979
   55CHL1    C8 4010   0.106   3.901   7.361 -0.0474 -0.3792 -0.7470
   55CHL1    H8 4011   0.205   3.952   7.353  0.2336 -0.7059  0.4619
   55CHL1   C14 4012   0.061   3.919   7.509 -0.4131 -0.2050  0.4724
   55CHL1   H14 4013  -0.030   3.857   7.511 -1.9385  1.8078 -1.4539
   55CHL1   C15 4014   0.022   4.066   7.554 -0.0304  0.3148 -0.2316
   55CHL1  H15A 4015   0.094   4.135   7.506  1.8424 -0.9978  0.5372
   55CHL1  H15B 4016  -0.078   4.097   7.519 -0.5093 -0.2497  0.6108
   55CHL1   C16 4017   0.028   4.051   7.709  0.0097 -0.3447  0.1050
   55CHL1  H16A 4018   0.096   4.128   7.753  2.1619 -2.0710 -0.0080
   55CHL1  H16B 4019  -0.072   4.059   7.756  0.3461  0.5317  0.7076
   55CHL1   C17 4020   0.076   3.903   7.740  0.5622 -0.6004  0.6531
   55CHL1   H17 4021  -0.016   3.842   7.749  0.0015  0.3363  1.5240
   55CHL1   C13 4022   0.148   3.859   7.610  0.5290  0.3871 -0.3753
   55CHL1   C18 4023   0.290   3.911   7.618  0.2948  0.1448  0.2018
   55CHL1  H18A 4024   0.340   3.909   7.518 -0.9091  1.4778 -0.4654
   55CHL1  H18B 4025   0.296   4.020   7.638 -3.7406  0.1800  2.2297
   55CHL1  H18C 4026   0.353   3.857   7.691  0.7325 -0.0134 -0.2830
   55CHL1   C12 4027   0.146   3.705   7.581 -0.2304  0.6096 -0.7600
   55CHL1  H12A 4028   0.218   3.668   7.657 -1.9932 -2.6036 -0.4810
   55CHL1  H12B 4029   0.045   3.661   7.595 -0.0319  0.6116  0.8534
   55CHL1   C11 4030   0.199   3.678   7.439 -0.2961 -0.3700  0.1555
   55CHL1  H11A 4031   0.306   3.709   7.436 -0.4387  0.0884 -0.7800
   55CHL1  H11B 4032   0.187   3.570   7.418 -0.8984 -0.2700 -0.0150
   55CHL1    C9 4033   0.114   3.751   7.328  0.3761  0.3665 -0.1959
   55CHL1    H9 4034   0.008   3.719   7.337  0.2863  0.8977  0.7536
   55CHL1   C10 4035   0.160   3.727   7.182  0.7768 -0.0725  0.4031
   55CHL1   C19 4036   0.313   3.745   7.178 -0.2623  0.1367 -0.0123
   55CHL1  H19A 4037   0.358   3.835   7.226  0.2033 -0.0795 -0.0417
   55CHL1  H19B 4038   0.354   3.659   7.235  0.2802  0.3835 -0.0266
   55CHL1  H19C 4039   0.355   3.734   7.076  1.4825  1.5322  0.4998
   55CHL1    C1 4040   0.115   3.589   7.128 -0.0007  0.2441 -0.0406
   55CHL1   H1A 4041   0.147   3.509   7.198  4.8739  2.3528  0.5634
   55CHL1   H1B 4042   0.004   3.583   7.130 -0.2795  3.1975 -1.3485
   55CHL1    C2 4043   0.158   3.552   6.986 -0.2020  0.7958 -0.7080
   55CHL1   H2A 4044   0.117   3.452   6.964  0.7868  0.5385 -1.4643
   55CHL1   H2B 4045   0.269   3.542   6.986 -0.1569  0.5697  1.8468
   55CHL1   C20 4046   0.145   3.889   7.877 -0.4543 -0.7388 -0.0228
   55CHL1   H20 4047   0.234   3.955   7.888  1.1401 -2.9342  0.9914
   55CHL1   C21 4048   0.191   3.745   7.893  0.6125 -0.0668  0.0955
   55CHL1  H21A 4049   0.285   3.734   7.835 -0.0579 -1.0621 -0.8332
   55CHL1  H21B 4050   0.103   3.688   7.854  0.6173  0.9394 -1.4950
   55CHL1  H21C 4051   0.200   3.720   8.001  0.1096 -1.2765 -0.1352
   55CHL1   C22 4052   0.043   3.918   7.995  0.2488  0.9996 -0.1941
   55CHL1  H22A 4053  -0.060   3.921   7.954  1.2073  1.4729 -2.7206
   55CHL1  H22B 4054   0.062   3.832   8.064  0.9394  1.1648 -0.1683
   55CHL1   C23 4055   0.066   4.041   8.075 -0.5224  0.8233  0.1136
   55CHL1  H23A 4056   0.172   4.046   8.106 -0.1641  1.3005 -1.1327
   55CHL1  H23B 4057   0.030   4.123   8.009  0.3498 -0.3654 -1.9611
   55CHL1   C24 4058  -0.006   4.031   8.211  0.4408 -0.9657  0.7899
   55CHL1  H24A 4059  -0.114   4.009   8.195  0.9224 -3.6472  0.6202
   55CHL1  H24B 4060   0.026   3.938   8.263 -2.4368 -1.6627  1.4908
   55CHL1   C25 4061   0.021   4.155   8.298 -1.0596  0.8100 -0.1444
   55CHL1   H25 4062   0.131   4.169   8.304 -0.9950 -0.0979  1.8028
   55CHL1   C26 4063  -0.044   4.291   8.250  0.4456 -0.0569  0.0933
   55CHL1  H26A 4064  -0.019   4.366   8.329  0.8120 -0.4764  0.3829
   55CHL1  H26B 4065  -0.006   4.317   8.149  0.3302 -1.6269 -0.3840
   55CHL1  H26C 4066  -0.155   4.294   8.250  0.4549  1.9597  0.6870
   55CHL1   C27 4067  -0.026   4.135   8.447 -0.3325  0.2733  0.9200
   55CHL1  H27A 4068   0.036   4.213   8.496 -1.1786  1.2713  0.4526
   55CHL1  H27B 4069  -0.136   4.148   8.456 -0.0635  2.8677  1.0917
   55CHL1  H27C 4070   0.001   4.031   8.475 -0.7842 -0.0332  0.2513
   56CHL1    C3 4071   5.768   2.552   6.925 -0.6474  0.1591 -0.0845
   56CHL1    H3 4072   5.748   2.658   6.953  1.5176 -0.0642  2.6895
   56CHL1    O3 4073   5.764   2.544   6.783  0.8140  0.3996  0.0437
   56CHL1   H3' 4074   5.669   2.546   6.771  0.4469 -0.9178  2.1775
   56CHL1    C4 4075   5.900   2.510   6.982 -0.3832  0.2673  0.5183
   56CHL1   H4A 4076   5.921   2.415   6.929 -0.9784  0.4608 -0.0740
   56CHL1   H4B 4077   5.970   2.590   6.949 -0.8881 -0.5542 -2.8905
   56CHL1    C5 4078   5.896   2.498   7.132  0.4955  0.8448 -0.1597
   56CHL1    C6 4079   5.991   2.551   7.215  0.1736  0.6318  0.0011
   56CHL1    H6 4080   6.074   2.602   7.164  0.3474 -0.3883 -0.7631
   56CHL1    C7 4081   5.989   2.551   7.366  0.9079  0.1059  1.3130
   56CHL1   H7A 4082   6.083   2.518   7.415  0.3784 -2.1088  0.9216
   56CHL1   H7B 4083   5.962   2.652   7.404  0.0185 -0.3942  2.0283
   56CHL1    C8 4084   5.898   2.438   7.417  1.1117  0.5207 -0.6798
   56CHL1    H8 4085   5.955   2.343   7.405  0.3087  0.1533 -1.7718
   56CHL1   C14 4086   5.871   2.446   7.561  0.6002 -0.9100 -0.1365
   56CHL1   H14 4087   5.819   2.543   7.576  1.5459 -0.4118 -0.0223
   56CHL1   C15 4088   5.989   2.471   7.656  0.2625 -0.4978  0.0307
   56CHL1  H15A 4089   6.079   2.408   7.641  0.0101 -0.7401 -0.5041
   56CHL1  H15B 4090   6.027   2.575   7.654 -1.5198  0.2406  1.2714
   56CHL1   C16 4091   5.942   2.435   7.794  0.4023  0.2087 -0.3779
   56CHL1  H16A 4092   6.008   2.361   7.844 -0.0218  0.7491  1.0307
   56CHL1  H16B 4093   5.930   2.527   7.856  0.1430 -0.7128  0.9759
   56CHL1   C17 4094   5.800   2.384   7.777  0.3434  0.3301  0.8459
   56CHL1   H17 4095   5.732   2.471   7.783  0.8025  0.7967 -0.3181
   56CHL1   C13 4096   5.783   2.343   7.625 -0.3847  0.4854  0.0798
   56CHL1   C18 4097   5.852   2.207   7.596 -0.2233 -0.4557 -0.5407
   56CHL1  H18A 4098   5.857   2.188   7.487  0.4407 -0.9381 -0.4336
   56CHL1  H18B 4099   5.959   2.216   7.624 -0.0670  0.7463 -1.4444
   56CHL1  H18C 4100   5.796   2.129   7.653 -0.2474 -1.5194 -1.9697
   56CHL1   C12 4101   5.639   2.362   7.552 -0.5074  0.3942 -0.4270
   56CHL1  H12A 4102   5.565   2.290   7.594  0.5320 -1.6324 -1.8939
   56CHL1  H12B 4103   5.603   2.461   7.586 -1.5911 -0.8506  2.3565
   56CHL1   C11 4104   5.654   2.336   7.404 -0.3495 -0.2577 -0.0651
   56CHL1  H11A 4105   5.692   2.233   7.387  0.2522  0.0693 -0.7819
   56CHL1  H11B 4106   5.556   2.351   7.355 -0.0927 -1.1300 -0.8682
   56CHL1    C9 4107   5.759   2.430   7.342 -0.3002 -0.6951  0.6511
   56CHL1    H9 4108   5.718   2.533   7.345 -2.0550 -1.3761  2.8542
   56CHL1   C10 4109   5.777   2.411   7.186 -0.7461  0.3036 -0.0340
   56CHL1   C19 4110   5.819   2.267   7.162 -0.0897  1.1090  0.4339
   56CHL1  H19A 4111   5.743   2.187   7.178  0.8682  0.3696  1.4915
   56CHL1  H19B 4112   5.850   2.249   7.057 -1.2771  3.2966 -0.3369
   56CHL1  H19C 4113   5.900   2.238   7.233 -1.3904 -0.5195  1.3086
   56CHL1    C1 4114   5.653   2.462   7.119  0.3854  0.2362 -0.6163
   56CHL1   H1A 4115   5.579   2.384   7.147 -0.2682  1.1862  0.4127
   56CHL1   H1B 4116   5.619   2.557   7.166 -0.3486 -1.0186  1.5358
   56CHL1    C2 4117   5.660   2.457   6.965  0.2086  0.2506 -0.9003
   56CHL1   H2A 4118   5.561   2.489   6.925 -0.9883 -0.2945  1.3999
   56CHL1   H2B 4119   5.678   2.355   6.927 -1.9555 -0.7370  0.4848
   56CHL1   C20 4120   5.768   2.277   7.879 -0.0611  0.4020  0.2480
   56CHL1   H20 4121   5.836   2.190   7.870 -2.3094 -1.3342 -0.8222
   56CHL1   C21 4122   5.624   2.215   7.847  0.2107  0.0530 -0.6876
   56CHL1  H21A 4123   5.554   2.302   7.846  0.4286  0.2878  1.0198
   56CHL1  H21B 4124   5.589   2.142   7.923  2.2516  0.5300  0.7966
   56CHL1  H21C 4125   5.623   2.154   7.754 -0.2375  0.1171 -0.7255
   56CHL1   C22 4126   5.780   2.313   8.028 -0.0049 -0.1363  0.2517
   56CHL1  H22A 4127   5.880   2.344   8.065 -0.7572 -0.5411  2.7832
   56CHL1  H22B 4128   5.711   2.400   8.041  0.6382  0.6150 -1.0999
   56CHL1   C23 4129   5.725   2.217   8.138  0.3549  0.3242  0.1149
   56CHL1  H23A 4130   5.732   2.272   8.234  0.0339  1.4836 -0.4947
   56CHL1  H23B 4131   5.621   2.180   8.140 -0.0288  1.1333 -1.9793
   56CHL1   C24 4132   5.804   2.083   8.147 -0.5165  0.6351  0.2927
   56CHL1  H24A 4133   5.730   1.999   8.146  2.2210 -1.9708 -0.8518
   56CHL1  H24B 4134   5.869   2.069   8.058 -0.5057 -2.3002  0.6639
   56CHL1   C25 4135   5.889   2.057   8.272 -0.5210 -0.4967 -0.1852
   56CHL1   H25 4136   5.831   2.104   8.355 -1.0210 -1.0247 -0.2297
   56CHL1   C26 4137   5.903   1.911   8.305  0.1379 -0.7412 -0.5148
   56CHL1  H26A 4138   5.807   1.856   8.312  0.1048 -0.7815 -1.2156
   56CHL1  H26B 4139   5.957   1.892   8.401  0.0518 -0.8781 -0.4927
   56CHL1  H26C 4140   5.966   1.860   8.228  0.4917  0.2283 -0.8799
   56CHL1   C27 4141   6.027   2.133   8.277  0.1861  0.2296 -0.0684
   56CHL1  H27A 4142   6.092   2.076   8.347 -0.9435 -1.7546 -0.5500
   56CHL1  H27B 4143   6.080   2.129   8.179 -2.3756  0.6120 -1.5608
   56CHL1  H27C 4144   6.012   2.239   8.307  2.2760  0.6823 -0.4359
   57SAPC     N 4145   5.459   5.677  10.849 -0.5422  0.5521 -0.4131
   57SAPC   C12 4146   5.312   5.697  10.835  0.4247 -1.0586  0.1930
   57SAPC  H12A 4147   5.279   5.709  10.732 -1.1615 -0.7890  0.7043
   57SAPC  H12B 4148   5.272   5.780  10.891 -0.7348 -1.2550 -0.3147
   57SAPC   C13 4149   5.535   5.792  10.799  0.5229 -0.0718 -0.0079
   57SAPC  H13A 4150   5.508   5.887  10.843 -0.3224 -0.0934 -0.4588
   57SAPC  H13B 4151   5.638   5.763  10.814  0.3768 -0.4214  0.3581
   57SAPC  H13C 4152   5.517   5.798  10.693 -0.6466  1.8969  0.2573
   57SAPC   C14 4153   5.504   5.666  10.989  0.2286  0.0273 -0.5573
   57SAPC  H14A 4154   5.463   5.587  11.050  1.0326  0.8429  1.0944
   57SAPC  H14B 4155   5.611   5.658  10.999  0.3147  0.9390 -0.6072
   57SAPC  H14C 4156   5.488   5.760  11.040  0.6838 -0.3789  0.3547
   57SAPC   C15 4157   5.497   5.557  10.771  0.4194 -0.6308 -0.5243
   57SAPC  H15A 4158   5.462   5.573  10.670  0.8820  3.9020 -0.1809
   57SAPC  H15B 4159   5.599   5.528  10.790  0.4792  0.0894  0.3307
   57SAPC  H15C 4160   5.433   5.479  10.810 -0.0610 -0.4101 -0.8643
   57SAPC   C11 4161   5.221   5.591  10.900 -0.6771 -0.0476  0.0573
   57SAPC  H11A 4162   5.123   5.642  10.906 -0.5254  0.2588 -0.0617
   57SAPC  H11B 4163   5.251   5.578  11.007  1.5503  1.1150 -0.3541
   57SAPC     P 4164   5.102   5.454  10.711 -0.0656  0.2841 -0.6142
   57SAPC   O13 4165   5.137   5.325  10.645  0.3770 -1.1234  0.5241
   57SAPC   O14 4166   4.968   5.468  10.761 -0.0772 -0.0472 -0.1673
   57SAPC   O12 4167   5.199   5.472  10.829 -0.1233  0.0525 -0.3964
   57SAPC   O11 4168   5.134   5.583  10.624 -0.0165 -0.0728  0.3171
   57SAPC    C1 4169   5.038   5.684  10.620  0.0045  0.3920 -0.0786
   57SAPC    HA 4170   4.980   5.698  10.714  0.1127  0.5837 -0.0398
   57SAPC    HB 4171   5.087   5.784  10.613 -0.0053  0.3461 -0.9006
   57SAPC    C2 4172   4.949   5.675  10.491  0.1965 -0.5945  0.1860
   57SAPC    HS 4173   4.876   5.593  10.507 -1.8103  1.3619  1.9220
   57SAPC   O21 4174   5.032   5.669  10.377  0.0998 -0.4641  0.4485
   57SAPC   C21 4175   5.006   5.581  10.278  0.2096 -0.4857 -1.0069
   57SAPC   O22 4176   4.899   5.526  10.269  0.1419 -0.0189 -0.1421
   57SAPC   C22 4177   5.125   5.569  10.174  0.3265 -0.0068 -0.5294
   57SAPC   H2R 4178   5.198   5.651  10.187  1.6439 -1.3751  1.1648
   57SAPC   H2S 4179   5.181   5.473  10.186 -1.8558 -1.5578 -1.9144
   57SAPC    C3 4180   4.849   5.794  10.478  0.5242 -0.6943  0.6883
   57SAPC    HX 4181   4.916   5.882  10.487  0.5094 -0.3037 -2.1112
   57SAPC    HY 4182   4.770   5.794  10.555 -2.2654  0.8289 -1.9343
   57SAPC   O31 4183   4.784   5.812  10.350 -0.1846  0.2796 -0.0204
   57SAPC   C31 4184   4.668   5.737  10.336 -1.0848  0.1058  0.3194
   57SAPC   O32 4185   4.623   5.673  10.422 -0.3186  0.3893 -0.2439
   57SAPC   C32 4186   4.615   5.762  10.191  0.3189  0.5350  0.6993
   57SAPC   H2X 4187   4.689   5.727  10.115  1.1450  3.0113  0.2935
   57SAPC   H2Y 4188   4.604   5.872  10.182  1.0618  0.5487 -0.3017
   57SAPC   C23 4189   5.081   5.571  10.024  0.5484 -0.2834  0.2820
   57SAPC   H3R 4190   5.039   5.673  10.019 -0.6994 -0.8166 -1.1558
   57SAPC   H3S 4191   5.003   5.496   9.996  0.8355 -0.3543 -0.3610
   57SAPC   C24 4192   5.191   5.566   9.920 -0.0091  0.1966 -0.0739
   57SAPC   H4R 4193   5.280   5.613   9.966 -0.8817  1.5363  0.3311
   57SAPC   H4S 4194   5.179   5.619   9.824  0.3483 -1.7608 -1.2562
   57SAPC   C25 4195   5.221   5.418   9.889  0.0871 -0.5358 -0.3201
   57SAPC   H5R 4196   5.238   5.364   9.983  1.1803 -2.4287 -1.5297
   57SAPC   C26 4197   5.234   5.355   9.773 -0.1346  0.1824  0.1382
   57SAPC   H6R 4198   5.238   5.246   9.778  1.4958  0.2426  4.7731
   57SAPC   C27 4199   5.222   5.423   9.639  0.0741 -0.6153  0.2530
   57SAPC   H7R 4200   5.323   5.447   9.599  0.1757 -1.4067  0.0019
   57SAPC   H7S 4201   5.161   5.516   9.644 -2.1002 -2.0172  1.4024
   57SAPC   C28 4202   5.162   5.325   9.532  0.1506  0.2720 -0.0847
   57SAPC   H8R 4203   5.113   5.236   9.573  1.1254  0.8022  2.4223
   57SAPC   C29 4204   5.171   5.333   9.395 -0.4618 -0.6229  0.0321
   57SAPC   H9R 4205   5.134   5.250   9.334  0.6909 -0.9165 -0.3019
   57SAPC  C210 4206   5.252   5.434   9.325 -0.2566  0.1116  0.5563
   57SAPC  H10R 4207   5.314   5.378   9.251 -1.4027  2.0398 -2.0499
   57SAPC  H10S 4208   5.325   5.496   9.382 -0.2246  0.4903  0.1147
   57SAPC  C211 4209   5.168   5.519   9.238 -0.1190 -0.8664  0.2140
   57SAPC  H11R 4210   5.083   5.562   9.292 -0.0444 -1.5695  0.9102
   57SAPC  C212 4211   5.185   5.555   9.106  0.0769 -0.5596 -0.1267
   57SAPC  H12R 4212   5.110   5.616   9.054  2.1942  1.4168 -1.0400
   57SAPC  C213 4213   5.302   5.512   9.011 -0.6808  0.4757 -0.3350
   57SAPC  H13R 4214   5.270   5.499   8.905  0.6454  2.8299 -1.1234
   57SAPC  H13S 4215   5.341   5.417   9.053 -2.3841  1.5324  4.2188
   57SAPC  C214 4216   5.412   5.622   9.025  0.4656  0.2773 -0.3704
   57SAPC  H14R 4217   5.386   5.709   9.086  0.7610  0.2633 -0.2223
   57SAPC  C215 4218   5.532   5.613   8.960 -0.6303 -0.7844  0.1140
   57SAPC  H15R 4219   5.605   5.693   8.977  0.5463 -1.8698  0.2934
   57SAPC  C216 4220   5.589   5.503   8.872  0.0662  0.1151 -0.1485
   57SAPC  H16R 4221   5.515   5.421   8.862 -2.5036  2.0166  1.7179
   57SAPC  H16S 4222   5.679   5.456   8.917 -0.0740  0.1901  0.2148
   57SAPC  C217 4223   5.605   5.563   8.733 -0.3372 -0.9824 -0.5408
   57SAPC  H17R 4224   5.506   5.596   8.695 -0.2746  1.0584  0.8789
   57SAPC  H17S 4225   5.635   5.484   8.661 -0.3357 -1.4209 -0.0552
   57SAPC  C218 4226   5.712   5.677   8.723  0.4433 -0.1422 -0.1110
   57SAPC  H18R 4227   5.800   5.660   8.789  1.2679  0.2133 -1.0944
   57SAPC  H18S 4228   5.661   5.762   8.773 -0.0116 -0.2021 -0.4668
   57SAPC  C219 4229   5.746   5.699   8.575  0.4625  0.0451  0.4208
   57SAPC  H19R 4230   5.652   5.720   8.521  0.4830 -0.2127  0.2857
   57SAPC  H19S 4231   5.772   5.597   8.539 -0.8788  0.4563 -1.8849
   57SAPC  C220 4232   5.853   5.804   8.552 -0.1413 -0.2580  0.2248
   57SAPC  H20R 4233   5.940   5.771   8.612 -1.9058 -2.2411  1.8698
   57SAPC  H20S 4234   5.820   5.900   8.595 -0.5575  0.0849 -0.8203
   57SAPC  H20T 4235   5.871   5.831   8.445 -0.8024 -0.2069  0.1226
   57SAPC   C33 4236   4.487   5.678  10.169 -0.4917 -0.0721  0.1593
   57SAPC   H3X 4237   4.414   5.702  10.249  1.0449 -3.2698  2.7610
   57SAPC   H3Y 4238   4.511   5.570  10.177 -1.1821 -0.4955 -2.4707
   57SAPC   C34 4239   4.439   5.712  10.033 -0.1146 -0.3112 -0.0238
   57SAPC   H4X 4240   4.429   5.821  10.018  0.7796 -0.0955  0.7858
   57SAPC   H4Y 4241   4.336   5.672  10.027 -1.3021  2.4569  0.6703
   57SAPC   C35 4242   4.519   5.653   9.913 -0.2388 -0.2621 -0.1575
   57SAPC   H5X 4243   4.524   5.542   9.923 -0.8106 -0.2882 -0.1296
   57SAPC   H5Y 4244   4.621   5.696   9.915 -0.5143  0.4101  1.6895
   57SAPC   C36 4245   4.459   5.686   9.780 -0.2853  0.1199  0.5865
   57SAPC   H6X 4246   4.351   5.713   9.778  0.0520  1.5167 -0.0561
   57SAPC   H6Y 4247   4.474   5.601   9.709  2.3355  1.5186 -0.6891
   57SAPC   C37 4248   4.537   5.800   9.704 -0.5039  0.3425 -0.9052
   57SAPC   H7X 4249   4.646   5.778   9.711 -0.5803  0.0067 -0.7779
   57SAPC   H7Y 4250   4.514   5.896   9.756  1.3138  1.3494 -1.8552
   57SAPC   C38 4251   4.497   5.801   9.560 -0.4190 -0.6649  0.1753
   57SAPC   H8X 4252   4.389   5.818   9.539  0.7196  4.6380 -3.2245
   57SAPC   H8Y 4253   4.516   5.701   9.515  1.4333 -0.3075  0.0914
   57SAPC   C39 4254   4.585   5.904   9.492  0.1187  0.3914  0.7353
   57SAPC   H9X 4255   4.686   5.861   9.476  1.8048  3.7918  1.2774
   57SAPC   H9Y 4256   4.598   5.995   9.555 -4.1341  0.7226  1.4262
   57SAPC  C310 4257   4.526   5.944   9.359 -0.7079  0.4562  0.5090
   57SAPC  H10X 4258   4.422   5.975   9.383 -0.8571  0.9644 -0.6894
   57SAPC  H10Y 4259   4.525   5.851   9.298 -1.7588  0.0831  1.0792
   57SAPC  C311 4260   4.599   6.055   9.281 -0.1233  0.1270 -0.5088
   57SAPC  H11X 4261   4.701   6.014   9.263 -0.6683 -1.4834 -0.0857
   57SAPC  H11Y 4262   4.623   6.153   9.329  1.9284  0.0400 -1.2260
   57SAPC  C312 4263   4.565   6.081   9.137  0.2744  0.7003 -0.0812
   57SAPC  H12X 4264   4.632   6.163   9.104  1.2574  0.2740  0.8217
   57SAPC  H12Y 4265   4.458   6.113   9.137  0.1261  0.2169  0.3266
   57SAPC  C313 4266   4.607   5.967   9.042 -0.1477  0.1526  0.1510
   57SAPC  H13X 4267   4.558   5.869   9.062  1.7926 -0.9670 -0.3918
   57SAPC  H13Y 4268   4.716   5.955   9.060 -0.4143 -0.3484  1.5764
   57SAPC  C314 4269   4.581   6.001   8.901  0.1631  0.6863  0.8577
   57SAPC  H14X 4270   4.601   6.108   8.880 -1.7951  0.9039 -0.1361
   57SAPC  H14Y 4271   4.475   5.983   8.871  0.6671  0.9824 -1.3225
   57SAPC  C315 4272   4.665   5.926   8.796  0.0143  0.1950  0.0673
   57SAPC  H15X 4273   4.687   5.821   8.821  0.1224  0.5655  1.6552
   57SAPC  H15Y 4274   4.762   5.978   8.785 -0.3428  0.6760 -1.0082
   57SAPC  C316 4275   4.606   5.929   8.651 -0.7562  0.0866  0.9102
   57SAPC  H16X 4276   4.685   5.894   8.580  0.7230 -0.6513  2.8215
   57SAPC  H16Y 4277   4.590   6.036   8.626 -1.7178 -0.6796 -2.1630
   57SAPC  C317 4278   4.475   5.847   8.630 -0.1459 -0.0061  0.2611
   57SAPC  H17X 4279   4.399   5.875   8.705  0.3909  1.4339  0.3011
   57SAPC  H17Y 4280   4.503   5.740   8.644 -1.2923 -0.6456 -1.9879
   57SAPC  C318 4281   4.414   5.866   8.495  0.5851  0.5303  0.0355
   57SAPC  H18X 4282   4.503   5.851   8.430 -0.1680  2.0798 -1.4411
   57SAPC  H18Y 4283   4.370   5.968   8.490 -1.7319 -0.3550  0.8008
   57SAPC  H18Z 4284   4.326   5.804   8.468  0.4305  1.0566 -0.7184
   58SAPC     N 4285   4.912   3.263  10.492  0.1665 -0.0558 -1.1849
   58SAPC   C12 4286   4.942   3.155  10.598  0.0013 -0.2660 -0.4735
   58SAPC  H12A 4287   4.999   3.076  10.551 -1.9420 -1.2222 -1.3282
   58SAPC  H12B 4288   4.848   3.102  10.608 -0.2259 -0.0975 -1.5683
   58SAPC   C13 4289   4.859   3.188  10.374  0.2305 -0.7787  0.4394
   58SAPC  H13A 4290   4.796   3.108  10.411 -1.3838  0.0522 -0.4058
   58SAPC  H13B 4291   4.797   3.249  10.311  2.9357 -0.0971 -1.7354
   58SAPC  H13C 4292   4.943   3.142  10.325 -0.5690  0.6627 -2.4747
   58SAPC   C14 4293   4.813   3.358  10.543 -0.2894  0.4867 -0.1975
   58SAPC  H14A 4294   4.723   3.305  10.571  0.5554 -2.5004 -2.5693
   58SAPC  H14B 4295   4.846   3.406  10.634  0.8384 -2.2271  0.9375
   58SAPC  H14C 4296   4.797   3.437  10.472  2.6086  0.5093 -0.9643
   58SAPC   C15 4297   5.033   3.337  10.441 -0.0403  0.7659 -0.5024
   58SAPC  H15A 4298   5.011   3.410  10.364  1.4088 -0.2128 -1.9106
   58SAPC  H15B 4299   5.092   3.375  10.523 -1.1543 -1.0747  1.2291
   58SAPC  H15C 4300   5.091   3.259  10.395  0.0451  1.5044 -1.6743
   58SAPC   C11 4301   5.002   3.189  10.736  0.0848 -0.1082 -0.4247
   58SAPC  H11A 4302   4.995   3.098  10.799 -3.5305  0.3159 -0.0295
   58SAPC  H11B 4303   4.952   3.272  10.790  2.5447  0.7272  0.7078
   58SAPC     P 4304   5.261   3.218  10.789  0.0426  0.0716  0.2293
   58SAPC   O13 4305   5.329   3.345  10.816 -0.2418 -0.0926  0.6972
   58SAPC   O14 4306   5.232   3.129  10.899 -0.7867 -0.1749  0.1978
   58SAPC   O12 4307   5.131   3.249  10.710 -0.5802  0.4269  0.4809
   58SAPC   O11 4308   5.351   3.146  10.678 -0.6455  0.0537 -0.6069
   58SAPC    C1 4309   5.370   3.192  10.547 -0.1285  0.5101  0.5242
   58SAPC    HA 4310   5.271   3.197  10.497  0.0746 -0.7897 -0.0692
   58SAPC    HB 4311   5.408   3.296  10.545  0.4927  0.2815  0.3185
   58SAPC    C2 4312   5.463   3.106  10.462 -0.8444  0.4275 -0.4581
   58SAPC    HS 4313   5.467   3.165  10.368 -0.9818 -0.4304 -1.0138
   58SAPC   O21 4314   5.405   2.978  10.436  0.8333 -0.3184  0.3885
   58SAPC   C21 4315   5.300   2.976  10.345 -0.9113  0.4248  0.1592
   58SAPC   O22 4316   5.255   3.075  10.289  0.0613 -0.3859  0.1580
   58SAPC   C22 4317   5.244   2.829  10.319  0.7525  0.2741 -0.7285
   58SAPC   H2R 4318   5.238   2.783  10.420  1.2313 -0.3313 -0.9760
   58SAPC   H2S 4319   5.145   2.830  10.268  0.4495 -0.2150 -0.1562
   58SAPC    C3 4320   5.598   3.068  10.529  0.0532 -0.5790 -0.2393
   58SAPC    HX 4321   5.571   2.992  10.605  0.0392 -3.0477 -2.5583
   58SAPC    HY 4322   5.638   3.159  10.579  0.7660 -0.7165 -0.5498
   58SAPC   O31 4323   5.685   3.005  10.432 -0.7945 -0.0033  0.2862
   58SAPC   C31 4324   5.796   3.067  10.412 -0.3536  0.0468  0.0474
   58SAPC   O32 4325   5.821   3.179  10.455  0.1321 -0.1350 -0.3265
   58SAPC   C32 4326   5.896   2.976  10.338 -0.3484  0.9354 -0.4440
   58SAPC   H2X 4327   5.852   2.878  10.308  1.3155  0.4263 -1.3431
   58SAPC   H2Y 4328   5.981   2.954  10.405 -0.5095  1.7647  0.0382
   58SAPC   C23 4329   5.342   2.734  10.245  0.1731  0.5075 -0.5189
   58SAPC   H3R 4330   5.286   2.639  10.230  0.0680  0.5122 -0.1734
   58SAPC   H3S 4331   5.415   2.714  10.327 -1.6216 -0.2214  0.9764
   58SAPC   C24 4332   5.403   2.795  10.122 -0.5050 -0.4316  0.5302
   58SAPC   H4R 4333   5.471   2.882  10.136 -0.9404  0.0908 -0.4534
   58SAPC   H4S 4334   5.308   2.832  10.076 -0.3454  0.8307  1.1804
   58SAPC   C25 4335   5.473   2.693  10.028  0.4985  0.2198 -0.6138
   58SAPC   H5R 4336   5.520   2.603  10.069 -1.9137 -0.6093  0.5611
   58SAPC   C26 4337   5.483   2.708   9.892 -0.1083  0.3999  0.2340
   58SAPC   H6R 4338   5.544   2.635   9.837 -1.0957 -0.2372 -0.0384
   58SAPC   C27 4339   5.434   2.822   9.806  0.3544  0.8996  0.4938
   58SAPC   H7R 4340   5.521   2.866   9.752  3.4641 -1.5983  2.9975
   58SAPC   H7S 4341   5.390   2.901   9.869  1.7074  1.0560  1.2782
   58SAPC   C28 4342   5.321   2.773   9.720  0.1727 -0.3700 -0.3763
   58SAPC   H8R 4343   5.227   2.745   9.769  0.4116 -2.4242 -0.9543
   58SAPC   C29 4344   5.325   2.765   9.588  0.2020  0.0030 -0.2052
   58SAPC   H9R 4345   5.240   2.721   9.533  0.5845 -2.0702  0.7479
   58SAPC  C210 4346   5.438   2.796   9.487 -0.5046  0.1984 -0.2097
   58SAPC  H10R 4347   5.534   2.750   9.517  0.4242  1.8203 -0.5575
   58SAPC  H10S 4348   5.466   2.904   9.489  1.0984 -0.1893  0.0099
   58SAPC  C211 4349   5.402   2.762   9.343  0.8661 -0.5010 -0.0993
   58SAPC  H11R 4350   5.333   2.834   9.298  1.0053  1.1720  2.1287
   58SAPC  C212 4351   5.434   2.650   9.284  0.3695 -0.2392  0.3743
   58SAPC  H12R 4352   5.421   2.646   9.174  0.3709  1.9538  0.2541
   58SAPC  C213 4353   5.508   2.534   9.349 -0.1687 -0.1756  0.4054
   58SAPC  H13R 4354   5.449   2.440   9.362  2.1790 -1.6899  0.7708
   58SAPC  H13S 4355   5.537   2.556   9.453  0.0100 -0.3731  0.3984
   58SAPC  C214 4356   5.632   2.499   9.272  0.4845  0.7730 -0.0640
   58SAPC  H14R 4357   5.724   2.526   9.327  1.4750  1.4627 -1.9655
   58SAPC  C215 4358   5.645   2.440   9.151  0.7932  0.4227 -0.2331
   58SAPC  H15R 4359   5.748   2.422   9.118  0.8935 -0.7384  0.6690
   58SAPC  C216 4360   5.533   2.407   9.061  0.4987 -0.2017 -0.3260
   58SAPC  H16R 4361   5.520   2.479   8.978 -1.1133  0.4320  0.4289
   58SAPC  H16S 4362   5.441   2.419   9.122  0.4527  2.2194 -0.7593
   58SAPC  C217 4363   5.530   2.259   9.012  0.5672 -0.2724  0.1448
   58SAPC  H17R 4364   5.423   2.246   8.985  0.5510  0.7945 -0.3419
   58SAPC  H17S 4365   5.558   2.191   9.096 -1.0289 -1.0928  0.0511
   58SAPC  C218 4366   5.627   2.230   8.895  0.3633  0.2465  1.1785
   58SAPC  H18R 4367   5.731   2.232   8.934  0.2203  0.0677  1.5686
   58SAPC  H18S 4368   5.623   2.311   8.819  1.2498 -0.8323 -0.0614
   58SAPC  C219 4369   5.616   2.088   8.837 -0.3718  0.6617  0.5614
   58SAPC  H19R 4370   5.651   2.009   8.906 -0.6068 -0.8916 -1.0200
   58SAPC  H19S 4371   5.676   2.088   8.743 -2.2389 -2.6176 -0.8102
   58SAPC  C220 4372   5.472   2.062   8.797  0.1723  0.1792  0.3411
   58SAPC  H20R 4373   5.472   1.971   8.733  1.3998  0.3478  0.0805
   58SAPC  H20S 4374   5.430   2.149   8.742  0.6402  0.1592 -0.0478
   58SAPC  H20T 4375   5.417   2.035   8.890  0.9483 -3.0124 -0.0016
   58SAPC   C33 4376   5.965   3.042  10.222  0.4630  0.1067  0.5281
   58SAPC   H3X 4377   6.067   3.000  10.205  1.0290  1.3674  0.6585
   58SAPC   H3Y 4378   5.977   3.150  10.245  0.9739 -0.4791  3.3224
   58SAPC   C34 4379   5.884   3.014  10.098 -0.1710 -0.4602  0.5427
   58SAPC   H4X 4380   5.778   3.040  10.112 -0.2852 -0.0157 -0.9695
   58SAPC   H4Y 4381   5.893   2.903  10.093  0.8462 -0.4627  1.7920
   58SAPC   C35 4382   5.940   3.081   9.971  0.1885 -0.3698  1.0685
   58SAPC   H5X 4383   6.041   3.043   9.945 -0.2247 -1.1858  0.6086
   58SAPC   H5Y 4384   5.957   3.191   9.974 -2.6562  0.2017 -0.3579
   58SAPC   C36 4385   5.855   3.071   9.845  0.2361  0.4610 -0.0196
   58SAPC   H6X 4386   5.911   3.119   9.762 -1.6717  1.8506 -0.5758
   58SAPC   H6Y 4387   5.754   3.118   9.851  0.3500  1.0436 -1.8501
   58SAPC   C37 4388   5.823   2.923   9.809  0.0401 -0.6901  0.0809
   58SAPC   H7X 4389   5.748   2.882   9.880 -0.2483  0.6490  0.5769
   58SAPC   H7Y 4390   5.916   2.868   9.837  0.9166 -0.4953 -2.1755
   58SAPC   C38 4391   5.793   2.891   9.659  0.5667  0.2690  0.3625
   58SAPC   H8X 4392   5.711   2.960   9.627 -1.2377 -1.3257  1.3669
   58SAPC   H8Y 4393   5.748   2.791   9.647  0.1343  0.7010 -2.3610
   58SAPC   C39 4394   5.918   2.911   9.561  0.8505  0.9808 -0.0162
   58SAPC   H9X 4395   6.001   2.852   9.605  1.4764 -0.5728 -3.0374
   58SAPC   H9Y 4396   5.939   3.020   9.559 -1.2227  1.4845  1.6440
   58SAPC  C310 4397   5.907   2.857   9.413  0.1315  0.2393 -0.3482
   58SAPC  H10X 4398   5.887   2.747   9.414  1.8451 -0.1727 -2.5426
   58SAPC  H10Y 4399   6.004   2.847   9.359  0.3609  0.5095  0.0054
   58SAPC  C311 4400   5.810   2.941   9.335  0.3653  0.3505 -0.0799
   58SAPC  H11X 4401   5.855   3.039   9.309  0.4768  0.4979  0.6314
   58SAPC  H11Y 4402   5.728   2.954   9.408  1.1680  0.7080  0.7874
   58SAPC  C312 4403   5.757   2.875   9.208  0.4695 -0.2032 -0.4316
   58SAPC  H12X 4404   5.675   2.936   9.164 -0.2495 -2.4609 -2.4571
   58SAPC  H12Y 4405   5.705   2.777   9.213 -2.2590  1.1369 -0.5275
   58SAPC  C313 4406   5.869   2.862   9.107 -0.0141 -0.5111  0.2137
   58SAPC  H13X 4407   5.914   2.761   9.120 -3.2457 -1.6727  4.2872
   58SAPC  H13Y 4408   5.950   2.934   9.132  1.3655 -2.2010  0.8503
   58SAPC  C314 4409   5.820   2.865   8.966 -0.0742 -0.2640  0.3049
   58SAPC  H14X 4410   5.736   2.793   8.954 -1.3405  1.1034  0.5710
   58SAPC  H14Y 4411   5.902   2.840   8.895  1.2659 -0.5813  1.9273
   58SAPC  C315 4412   5.778   3.008   8.917 -0.1831 -0.0164  0.2059
   58SAPC  H15X 4413   5.854   3.079   8.955 -0.3925  0.1522  0.3153
   58SAPC  H15Y 4414   5.684   3.031   8.971  0.7099 -0.1157  1.8691
   58SAPC  C316 4415   5.762   3.025   8.764  0.4012 -0.0945  0.0309
   58SAPC  H16X 4416   5.693   2.943   8.735 -0.9326  0.8499  0.4006
   58SAPC  H16Y 4417   5.852   3.015   8.700 -0.9051  1.0098 -2.0882
   58SAPC  C317 4418   5.690   3.160   8.742  0.3646  0.0768  0.2471
   58SAPC  H17X 4419   5.608   3.178   8.814  0.0026 -1.7778  0.3404
   58SAPC  H17Y 4420   5.631   3.137   8.650  0.5246 -1.4767  0.5219
   58SAPC  C318 4421   5.789   3.282   8.726 -0.3979  0.2336  0.3061
   58SAPC  H18X 4422   5.756   3.374   8.779  2.1855  2.2711 -1.3512
   58SAPC  H18Y 4423   5.803   3.307   8.618 -1.5608  1.8082  0.4852
   58SAPC  H18Z 4424   5.885   3.247   8.769 -0.0932 -0.5736 -0.9661
   59SAPC     N 4425   0.830   5.234  11.320  0.5433  0.4435 -0.2504
   59SAPC   C12 4426   0.729   5.191  11.206  0.2988  0.0231 -0.4623
   59SAPC  H12A 4427   0.748   5.260  11.126 -1.8965 -0.0411 -1.0931
   59SAPC  H12B 4428   0.629   5.200  11.245 -0.3976  1.7545 -2.4411
   59SAPC   C13 4429   0.816   5.378  11.341  0.0147  0.0787 -0.0077
   59SAPC  H13A 4430   0.865   5.424  11.257  0.4628 -0.7298 -0.1892
   59SAPC  H13B 4431   0.710   5.400  11.349 -0.8634 -3.6767  0.8041
   59SAPC  H13C 4432   0.855   5.401  11.439 -1.2843  1.7477  0.1670
   59SAPC   C14 4433   0.792   5.158  11.445 -0.2454  0.0233 -0.0493
   59SAPC  H14A 4434   0.686   5.161  11.470 -0.6674 -2.6318 -1.2155
   59SAPC  H14B 4435   0.822   5.056  11.428  2.3392 -0.0669  3.7902
   59SAPC  H14C 4436   0.852   5.202  11.524 -0.3422 -0.9944  0.6155
   59SAPC   C15 4437   0.971   5.198  11.284  0.0373  0.2431  0.3551
   59SAPC  H15A 4438   0.992   5.095  11.260  0.3177  0.3504  0.1374
   59SAPC  H15B 4439   0.989   5.257  11.196 -0.7973 -1.4383 -0.9966
   59SAPC  H15C 4440   1.044   5.222  11.360  1.0344 -2.6816  0.4496
   59SAPC   C11 4441   0.744   5.042  11.157 -0.0949 -0.0202 -0.0537
   59SAPC  H11A 4442   0.842   5.020  11.109 -0.3000 -0.5847 -0.2272
   59SAPC  H11B 4443   0.672   5.028  11.073  0.6670 -1.5520 -0.4847
   59SAPC     P 4444   0.570   4.887  11.279 -0.1890  0.0066  0.4309
   59SAPC   O13 4445   0.573   4.788  11.387  0.1437  0.7297  0.0573
   59SAPC   O14 4446   0.476   4.997  11.280 -0.1438 -0.1426 -0.4712
   59SAPC   O12 4447   0.713   4.946  11.256 -0.4631  1.0791 -0.1396
   59SAPC   O11 4448   0.553   4.815  11.144 -0.3220 -0.3566  0.6301
   59SAPC    C1 4449   0.617   4.696  11.103 -0.0174 -0.8721 -0.0760
   59SAPC    HA 4450   0.655   4.641  11.192  0.0975 -0.0535  0.3876
   59SAPC    HB 4451   0.543   4.635  11.047 -1.7044 -0.0058  1.1125
   59SAPC    C2 4452   0.744   4.714  11.012  0.0629  0.4876 -0.6794
   59SAPC    HS 4453   0.810   4.777  11.075 -1.1642  1.3520 -0.2250
   59SAPC   O21 4454   0.702   4.788  10.895 -0.3519 -0.3436 -0.4271
   59SAPC   C21 4455   0.796   4.868  10.851 -0.2544 -0.2691 -0.0648
   59SAPC   O22 4456   0.914   4.870  10.877 -0.0352  0.2831  0.0723
   59SAPC   C22 4457   0.737   4.967  10.749 -0.6387  0.2295 -0.1118
   59SAPC   H2R 4458   0.646   4.927  10.699 -1.3693  1.2096  0.4139
   59SAPC   H2S 4459   0.704   5.059  10.801  2.1832  1.5038 -0.3913
   59SAPC    C3 4460   0.809   4.570  10.967 -0.0637  0.3100 -0.4477
   59SAPC    HX 4461   0.821   4.512  11.061  0.3748  0.6439 -0.2921
   59SAPC    HY 4462   0.910   4.592  10.926 -0.3310  2.5027 -0.0470
   59SAPC   O31 4463   0.707   4.500  10.890  0.5066  0.2193 -0.2684
   59SAPC   C31 4464   0.729   4.515  10.755  0.7254 -0.0093 -0.7526
   59SAPC   O32 4465   0.822   4.580  10.709  0.4055  0.2715  0.4564
   59SAPC   C32 4466   0.626   4.422  10.678 -0.8068 -0.1437  0.4163
   59SAPC   H2X 4467   0.540   4.418  10.747  0.0352  2.8681  1.7929
   59SAPC   H2Y 4468   0.675   4.322  10.686  0.5031  0.6416  3.5566
   59SAPC   C23 4469   0.844   5.004  10.649 -0.3914  0.1431  0.6787
   59SAPC   H3R 4470   0.870   4.912  10.593 -3.7046 -0.9198  0.7117
   59SAPC   H3S 4471   0.937   5.038  10.699 -0.3125 -1.2499  1.5042
   59SAPC   C24 4472   0.804   5.108  10.539 -0.0489  0.3907  0.9663
   59SAPC   H4R 4473   0.890   5.112  10.469 -1.5572  3.8716 -0.9181
   59SAPC   H4S 4474   0.792   5.214  10.570  1.1922  1.4357 -1.7816
   59SAPC   C25 4475   0.682   5.062  10.461  0.4230 -0.3359  0.2749
   59SAPC   H5R 4476   0.583   5.069  10.508  0.1089 -1.7438 -0.1180
   59SAPC   C26 4477   0.680   5.000  10.344 -0.1387  0.4791 -0.3646
   59SAPC   H6R 4478   0.585   4.969  10.298 -0.7810  1.8242  0.0153
   59SAPC   C27 4479   0.796   4.961  10.257 -0.0608 -0.4969  0.0096
   59SAPC   H7R 4480   0.893   4.985  10.305 -0.4318 -0.0187  0.5344
   59SAPC   H7S 4481   0.796   5.032  10.171  1.6197  0.4769  0.7567
   59SAPC   C28 4482   0.800   4.810  10.229 -0.4098 -0.0012 -0.2857
   59SAPC   H8R 4483   0.773   4.747  10.315  0.3935  0.3562  0.2399
   59SAPC   C29 4484   0.827   4.752  10.115  0.2212 -0.3469  0.2808
   59SAPC   H9R 4485   0.805   4.645  10.107 -0.0032 -0.2877  0.1123
   59SAPC  C210 4486   0.861   4.813   9.984 -0.1263  0.0943 -0.1287
   59SAPC  H10R 4487   0.950   4.768   9.935 -0.4463  0.1921 -0.8068
   59SAPC  H10S 4488   0.878   4.922   9.993  1.4467 -0.0218 -1.3442
   59SAPC  C211 4489   0.742   4.799   9.886  0.1393  0.9960 -0.9044
   59SAPC  H11R 4490   0.640   4.793   9.928  0.2018 -0.2353 -0.8936
   59SAPC  C212 4491   0.756   4.801   9.751  0.2896  0.0389  0.1418
   59SAPC  H12R 4492   0.668   4.777   9.689  0.3741 -0.1280  0.0853
   59SAPC  C213 4493   0.885   4.802   9.677 -0.3368 -0.7804 -0.3539
   59SAPC  H13R 4494   0.905   4.694   9.664  0.2153 -0.5251 -1.8068
   59SAPC  H13S 4495   0.961   4.865   9.728 -1.1548 -0.5470  0.6261
   59SAPC  C214 4496   0.873   4.869   9.542  0.6867 -0.0490  0.8343
   59SAPC  H14R 4497   0.922   4.966   9.525  2.6201 -0.8978  1.2879
   59SAPC  C215 4498   0.802   4.813   9.439 -0.3919  0.3662  0.5064
   59SAPC  H15R 4499   0.801   4.867   9.344 -1.5930  1.0334  0.8810
   59SAPC  C216 4500   0.738   4.675   9.443  1.1666  0.4096  0.0631
   59SAPC  H16R 4501   0.634   4.692   9.480  0.6547  0.8420 -1.4901
   59SAPC  H16S 4502   0.794   4.602   9.505  1.1844 -1.4011 -1.9721
   59SAPC  C217 4503   0.711   4.612   9.301  0.2643  0.7629  0.3039
   59SAPC  H17R 4504   0.716   4.501   9.311  0.1220  0.7049 -0.2432
   59SAPC  H17S 4505   0.797   4.626   9.232  1.8009 -0.5948  1.8546
   59SAPC  C218 4506   0.580   4.662   9.238 -0.8175 -0.9170  0.0178
   59SAPC  H18R 4507   0.586   4.772   9.240  2.6188 -1.0068 -0.2429
   59SAPC  H18S 4508   0.499   4.645   9.313 -0.9379 -0.3591  0.0132
   59SAPC  C219 4509   0.555   4.601   9.106  0.3167  0.5159  0.1338
   59SAPC  H19R 4510   0.453   4.632   9.076  0.0465  0.4492  0.9617
   59SAPC  H19S 4511   0.549   4.491   9.103  0.6650  0.4523  1.1988
   59SAPC  C220 4512   0.657   4.642   8.995  0.2370 -0.2371  0.0738
   59SAPC  H20R 4513   0.753   4.589   9.004 -0.3695 -1.1050  1.9619
   59SAPC  H20S 4514   0.667   4.752   8.980  1.7715 -0.5660 -1.6721
   59SAPC  H20T 4515   0.626   4.601   8.896  2.0411 -0.6829 -0.3418
   59SAPC   C33 4516   0.584   4.483  10.546  0.2861 -0.7176  0.0289
   59SAPC   H3X 4517   0.572   4.409  10.464 -0.6509 -1.2523  0.6278
   59SAPC   H3Y 4518   0.670   4.541  10.507 -0.6272 -0.0429 -1.0496
   59SAPC   C34 4519   0.471   4.589  10.549  1.1949  0.1508 -0.1460
   59SAPC   H4X 4520   0.463   4.647  10.643 -0.0563 -0.9375  0.4607
   59SAPC   H4Y 4521   0.380   4.526  10.540  2.1926 -1.0287 -3.3741
   59SAPC   C35 4522   0.470   4.687  10.430  0.3714  0.0085  0.1455
   59SAPC   H5X 4523   0.573   4.722  10.404  0.6226 -0.7292  0.1236
   59SAPC   H5Y 4524   0.411   4.775  10.465 -0.3963  0.2540 -1.6569
   59SAPC   C36 4525   0.400   4.631  10.303 -0.2713  0.1058 -0.2723
   59SAPC   H6X 4526   0.366   4.707  10.230  1.3811 -0.5850 -1.8473
   59SAPC   H6Y 4527   0.313   4.571  10.338  1.9949 -2.2920  1.7137
   59SAPC   C37 4528   0.493   4.548  10.212 -0.4288 -0.1132 -0.9230
   59SAPC   H7X 4529   0.514   4.456  10.272  2.8294  0.9438 -0.2290
   59SAPC   H7Y 4530   0.583   4.605  10.179  0.4333 -0.3680  0.8547
   59SAPC   C38 4531   0.411   4.499  10.088 -0.0778 -0.1050 -0.1773
   59SAPC   H8X 4532   0.302   4.502  10.114 -0.0922 -0.7381 -0.1518
   59SAPC   H8Y 4533   0.443   4.400  10.050  3.3361  1.5464 -2.0256
   59SAPC   C39 4534   0.443   4.597   9.976 -0.5027  0.1918 -0.0445
   59SAPC   H9X 4535   0.552   4.601   9.959 -0.4689  0.1126  0.1441
   59SAPC   H9Y 4536   0.410   4.697  10.012 -1.0846 -0.3218  0.9047
   59SAPC  C310 4537   0.369   4.564   9.840  0.2208 -0.5651 -0.5356
   59SAPC  H10X 4538   0.328   4.661   9.804  1.5396 -0.2628 -1.2874
   59SAPC  H10Y 4539   0.291   4.487   9.852 -1.1269  0.4955 -2.1001
   59SAPC  C311 4540   0.470   4.529   9.724 -0.4891 -0.0854 -0.2406
   59SAPC  H11X 4541   0.536   4.449   9.763  2.9197  2.8133  0.4999
   59SAPC  H11Y 4542   0.540   4.615   9.708  1.1931 -1.0231  1.5834
   59SAPC  C312 4543   0.407   4.508   9.584 -0.6187 -0.3645  0.1249
   59SAPC  H12X 4544   0.481   4.536   9.506  0.6366 -0.8087  1.1244
   59SAPC  H12Y 4545   0.323   4.580   9.579 -1.2097 -1.0261  0.2623
   59SAPC  C313 4546   0.362   4.364   9.558  0.8610  0.5100  0.4746
   59SAPC  H13X 4547   0.282   4.335   9.630 -0.4694  0.9038 -0.7933
   59SAPC  H13Y 4548   0.450   4.299   9.576  0.6861 -0.1067 -0.7884
   59SAPC  C314 4549   0.312   4.347   9.415 -0.3106 -0.2202  0.6722
   59SAPC  H14X 4550   0.279   4.241   9.414  2.4347 -1.1538  0.6353
   59SAPC  H14Y 4551   0.399   4.359   9.347 -0.9409  2.5328  0.2611
   59SAPC  C315 4552   0.195   4.440   9.358  0.5735 -0.6208 -0.1042
   59SAPC  H15X 4553   0.233   4.544   9.346 -1.4871  0.2987  0.9877
   59SAPC  H15Y 4554   0.108   4.452   9.425 -0.0639  2.5363 -1.3089
   59SAPC  C316 4555   0.152   4.390   9.219 -0.5951  0.4557 -0.3154
   59SAPC  H16X 4556   0.080   4.307   9.235  1.3033 -1.5405 -1.4988
   59SAPC  H16Y 4557   0.246   4.357   9.168  0.2591  0.5986  1.1109
   59SAPC  C317 4558   0.083   4.492   9.126  0.1166  0.2171 -0.1361
   59SAPC  H17X 4559  -0.003   4.540   9.178  0.5788 -0.9409  1.8020
   59SAPC  H17Y 4560   0.042   4.423   9.048  0.4463 -0.5393  0.3441
   59SAPC  C318 4561   0.166   4.607   9.077  0.3860  0.4159  0.5540
   59SAPC  H18X 4562   0.108   4.674   9.010 -1.2645 -1.2498  0.2434
   59SAPC  H18Y 4563   0.242   4.558   9.012  0.2607  0.7152  0.1771
   59SAPC  H18Z 4564   0.202   4.663   9.166  0.2257  0.0558  0.8460
   60SAPC     N 4565   2.808   3.380  10.961 -0.3477 -0.5215 -0.3781
   60SAPC   C12 4566   2.781   3.343  10.816 -0.1560  0.3500 -0.2827
   60SAPC  H12A 4567   2.799   3.435  10.764  2.1929  1.4083  2.1583
   60SAPC  H12B 4568   2.677   3.315  10.807  0.2708 -1.7796  0.6987
   60SAPC   C13 4569   2.701   3.487  11.000 -0.0688 -0.5485  0.5668
   60SAPC  H13A 4570   2.723   3.577  10.945 -0.8919 -0.8301 -0.2581
   60SAPC  H13B 4571   2.601   3.454  10.973 -0.4763 -0.2942  1.7163
   60SAPC  H13C 4572   2.706   3.512  11.105 -1.4004 -0.2890  0.5871
   60SAPC   C14 4573   2.800   3.272  11.067  0.1383  0.2581 -0.3060
   60SAPC  H14A 4574   2.810   3.321  11.162 -2.4816  0.9337 -0.2921
   60SAPC  H14B 4575   2.711   3.211  11.068 -0.1675  0.7102  0.8169
   60SAPC  H14C 4576   2.884   3.207  11.044 -1.7915 -2.0157 -1.3853
   60SAPC   C15 4577   2.943   3.442  10.968 -0.1325 -0.2160  0.7021
   60SAPC  H15A 4578   2.961   3.481  11.067 -0.6746  3.1388 -0.3866
   60SAPC  H15B 4579   3.024   3.382  10.929 -1.1816  0.1940 -2.3342
   60SAPC  H15C 4580   2.951   3.524  10.898  0.9262 -1.1099 -0.2559
   60SAPC   C11 4581   2.860   3.231  10.747  0.1256  0.3021 -0.7584
   60SAPC  H11A 4582   2.969   3.237  10.765  0.0336 -2.5541  1.5635
   60SAPC  H11B 4583   2.839   3.237  10.638 -0.6252 -0.1445 -0.6464
   60SAPC     P 4584   2.680   3.047  10.764  0.3636 -0.1301  0.4480
   60SAPC   O13 4585   2.649   2.942  10.866  0.3856 -0.5735 -0.3736
   60SAPC   O14 4586   2.578   3.151  10.753  0.3893 -0.2656 -0.3057
   60SAPC   O12 4587   2.819   3.103  10.801  0.1744  0.2661  0.8715
   60SAPC   O11 4588   2.695   2.982  10.620 -0.6245 -0.6386 -0.0897
   60SAPC    C1 4589   2.818   2.921  10.576  0.2390 -0.3815 -0.4575
   60SAPC    HA 4590   2.878   2.884  10.662  0.7524 -2.2471 -1.5661
   60SAPC    HB 4591   2.787   2.828  10.524 -0.9874  0.8927 -2.1119
   60SAPC    C2 4592   2.883   3.003  10.465 -0.3307  0.1120 -0.1454
   60SAPC    HS 4593   2.930   3.096  10.504  1.3889 -1.0136  0.6019
   60SAPC   O21 4594   2.777   3.046  10.378 -0.1145 -0.2891  0.4833
   60SAPC   C21 4595   2.803   3.157  10.306  0.2554 -0.4346  0.1075
   60SAPC   O22 4596   2.908   3.218  10.301 -0.3080  0.2507  0.9736
   60SAPC   C22 4597   2.691   3.168  10.210  0.5367 -0.0253  0.1692
   60SAPC   H2R 4598   2.673   3.067  10.168 -0.3832 -0.6009  1.8612
   60SAPC   H2S 4599   2.596   3.194  10.261  1.9565  0.1164  2.8884
   60SAPC    C3 4600   2.996   2.921  10.390 -0.0563 -0.6333  0.4423
   60SAPC    HX 4601   2.938   2.835  10.350 -1.1400  0.2211  0.1383
   60SAPC    HY 4602   3.075   2.878  10.455 -0.0493 -2.8850 -0.9445
   60SAPC   O31 4603   3.061   2.991  10.287 -0.1091 -0.1375  0.3302
   60SAPC   C31 4604   3.046   2.938  10.162 -0.9642  0.2339 -0.0868
   60SAPC   O32 4605   2.969   2.849  10.137 -0.1572 -0.3404 -0.5834
   60SAPC   C32 4606   3.121   3.029  10.067 -0.5762 -1.2652 -0.1523
   60SAPC   H2X 4607   3.213   3.069  10.116 -0.8244  1.6503 -1.8459
   60SAPC   H2Y 4608   3.049   3.111  10.046 -0.5333 -1.2565 -0.2648
   60SAPC   C23 4609   2.720   3.272  10.104 -0.3868 -0.1229 -0.0651
   60SAPC   H3R 4610   2.817   3.264  10.050 -0.2213  1.5867 -0.0645
   60SAPC   H3S 4611   2.727   3.370  10.157 -0.5976 -1.0272  1.6916
   60SAPC   C24 4612   2.611   3.275  10.002  1.1282  0.3560  1.0518
   60SAPC   H4R 4613   2.609   3.383   9.978  0.6568  0.7429  2.6815
   60SAPC   H4S 4614   2.513   3.261  10.053  1.2362 -0.3404  1.0757
   60SAPC   C25 4615   2.635   3.185   9.880 -0.1173  0.2087 -0.0413
   60SAPC   H5R 4616   2.608   3.078   9.885 -0.1360  0.2047 -0.2222
   60SAPC   C26 4617   2.678   3.216   9.760 -0.5325 -0.0546  0.5394
   60SAPC   H6R 4618   2.700   3.128   9.698  0.5317  0.2778  0.4218
   60SAPC   C27 4619   2.717   3.348   9.704  0.5217  0.0559  0.2465
   60SAPC   H7R 4620   2.684   3.431   9.770 -0.0971 -0.3140  0.4093
   60SAPC   H7S 4621   2.663   3.366   9.609  1.9094  0.5843 -0.4813
   60SAPC   C28 4622   2.869   3.346   9.694  0.2343 -0.8809 -0.2015
   60SAPC   H8R 4623   2.919   3.362   9.791 -3.5019  1.9891  1.5405
   60SAPC   C29 4624   2.939   3.330   9.584  0.1464 -0.3007 -0.0636
   60SAPC   H9R 4625   3.049   3.334   9.590  0.1352  3.5426  0.2227
   60SAPC  C210 4626   2.887   3.304   9.444  0.1286 -0.4887  0.6110
   60SAPC  H10R 4627   2.934   3.380   9.377  0.1061  0.3070  1.4674
   60SAPC  H10S 4628   2.778   3.324   9.438 -0.0761 -1.5233  0.7960
   60SAPC  C211 4629   2.925   3.165   9.401  0.2175  0.1485  0.0586
   60SAPC  H11R 4630   2.969   3.100   9.478 -0.5938  0.8562  1.1454
   60SAPC  C212 4631   2.913   3.113   9.278 -0.2102 -0.2547  0.0269
   60SAPC  H12R 4632   2.959   3.016   9.257  0.2785  0.3054 -1.6102
   60SAPC  C213 4633   2.872   3.194   9.158 -0.1127  0.5205 -0.0176
   60SAPC  H13R 4634   2.848   3.299   9.184  0.4454  0.4084  1.0153
   60SAPC  H13S 4635   2.771   3.157   9.130 -0.0795  0.0851  0.4121
   60SAPC  C214 4636   2.969   3.187   9.043 -0.1807  1.0849  0.0541
   60SAPC  H14R 4637   3.075   3.206   9.063  0.2390  1.1404 -2.0511
   60SAPC  C215 4638   2.924   3.209   8.916  0.4133  0.1082  0.3790
   60SAPC  H15R 4639   3.001   3.198   8.839  2.2347 -0.2536  2.1564
   60SAPC  C216 4640   2.780   3.228   8.862 -0.7080 -0.3512 -0.1426
   60SAPC  H16R 4641   2.703   3.262   8.934 -0.0703 -1.3691  1.0487
   60SAPC  H16S 4642   2.742   3.130   8.826  0.9690 -0.3857 -2.0021
   60SAPC  C217 4643   2.783   3.321   8.739  0.1790 -0.2059 -0.4997
   60SAPC  H17R 4644   2.675   3.318   8.711  0.3291  0.9860 -1.2591
   60SAPC  H17S 4645   2.852   3.285   8.661  0.7604  0.6542 -0.3930
   60SAPC  C218 4646   2.821   3.462   8.772 -0.0496 -0.1247 -0.3198
   60SAPC  H18R 4647   2.929   3.477   8.793 -0.4743  2.0605  0.6312
   60SAPC  H18S 4648   2.766   3.487   8.866 -0.9211  0.9524 -1.0905
   60SAPC  C219 4649   2.786   3.572   8.673  0.1996  0.0296 -0.0518
   60SAPC  H19R 4650   2.797   3.664   8.734 -0.1943 -0.2544  0.4694
   60SAPC  H19S 4651   2.680   3.570   8.639  0.6628  1.7848 -1.7032
   60SAPC  C220 4652   2.876   3.572   8.551 -1.0818 -0.2783  0.3850
   60SAPC  H20R 4653   2.883   3.676   8.511 -3.1584 -0.1012  0.3804
   60SAPC  H20S 4654   2.832   3.514   8.468  3.1935 -2.0782 -0.9092
   60SAPC  H20T 4655   2.974   3.527   8.578  0.1863  0.6418 -2.3388
   60SAPC   C33 4656   3.152   2.977   9.928  0.2927 -0.0360 -0.0375
   60SAPC   H3X 4657   3.058   2.948   9.875 -0.0461 -0.8235  0.9668
   60SAPC   H3Y 4658   3.224   2.893   9.936 -0.3023 -0.6783 -1.1262
   60SAPC   C34 4659   3.205   3.085   9.831 -0.3422 -0.2782  0.5463
   60SAPC   H4X 4660   3.313   3.100   9.852 -0.3581  2.1226 -0.7730
   60SAPC   H4Y 4661   3.157   3.184   9.846 -0.1456 -0.2543  1.0181
   60SAPC   C35 4662   3.198   3.046   9.683 -0.1047  0.2332  0.1693
   60SAPC   H5X 4663   3.246   3.126   9.622  0.2430  1.0970  1.5167
   60SAPC   H5Y 4664   3.091   3.044   9.653 -0.0434 -0.6350 -0.0061
   60SAPC   C36 4665   3.279   2.920   9.653  0.2951 -0.0799  0.5034
   60SAPC   H6X 4666   3.216   2.832   9.678 -0.1909  0.6710  2.0362
   60SAPC   H6Y 4667   3.358   2.919   9.731 -0.7101 -0.2202  1.5347
   60SAPC   C37 4668   3.331   2.911   9.507 -1.0747 -0.4338 -0.3876
   60SAPC   H7X 4669   3.408   2.832   9.504 -1.9724 -1.4402  1.5128
   60SAPC   H7Y 4670   3.392   3.001   9.483 -0.3966 -0.6314  0.5327
   60SAPC   C38 4671   3.215   2.883   9.408 -0.1867 -0.5166  0.0448
   60SAPC   H8X 4672   3.163   2.980   9.391 -1.7853 -1.2912  0.3556
   60SAPC   H8Y 4673   3.142   2.814   9.454 -1.6945 -1.5501 -3.5792
   60SAPC   C39 4674   3.269   2.818   9.276  0.0099 -1.0258 -0.4837
   60SAPC   H9X 4675   3.184   2.802   9.207 -0.9336  3.0070 -0.5237
   60SAPC   H9Y 4676   3.315   2.723   9.310  3.1485  0.4212 -0.3406
   60SAPC  C310 4677   3.374   2.898   9.200  0.2422 -0.0655 -0.1884
   60SAPC  H10X 4678   3.449   2.950   9.264 -1.0304  0.5210  0.8639
   60SAPC  H10Y 4679   3.318   2.973   9.140  1.3918 -0.9465 -2.5163
   60SAPC  C311 4680   3.440   2.822   9.091  0.5670 -0.4076  0.2966
   60SAPC  H11X 4681   3.357   2.797   9.021  0.1528 -0.2398  0.7215
   60SAPC  H11Y 4682   3.490   2.733   9.134 -0.2110 -0.1784  1.7373
   60SAPC  C312 4683   3.528   2.915   9.016  0.1829  0.2425  0.0845
   60SAPC  H12X 4684   3.584   2.976   9.090 -1.7438  0.4349  1.4688
   60SAPC  H12Y 4685   3.468   2.989   8.959 -1.0487 -0.3922  0.5191
   60SAPC  C313 4686   3.606   2.830   8.921 -0.4287 -0.7409 -0.2705
   60SAPC  H13X 4687   3.652   2.739   8.967  1.3952  0.2038 -0.1503
   60SAPC  H13Y 4688   3.687   2.890   8.875 -2.0972 -0.0346 -2.4596
   60SAPC  C314 4689   3.526   2.788   8.798  0.0398 -1.1369 -0.1273
   60SAPC  H14X 4690   3.471   2.871   8.749  2.3018  1.2541  1.1192
   60SAPC  H14Y 4691   3.453   2.713   8.836  1.6130 -2.2131  0.8935
   60SAPC  C315 4692   3.615   2.717   8.691 -0.2511 -0.3118  0.0741
   60SAPC  H15X 4693   3.675   2.638   8.743  0.3189  0.2348  0.2679
   60SAPC  H15Y 4694   3.686   2.790   8.646  1.1676 -0.4198  1.9854
   60SAPC  C316 4695   3.542   2.657   8.581  0.3923  0.0974  0.0281
   60SAPC  H16X 4696   3.489   2.723   8.509 -2.0541 -1.7361  0.0242
   60SAPC  H16Y 4697   3.444   2.624   8.622 -0.0319  0.8916 -0.3122
   60SAPC  C317 4698   3.628   2.548   8.507  0.0370  0.5432 -0.4154
   60SAPC  H17X 4699   3.665   2.476   8.583 -0.2036 -0.2024 -0.9989
   60SAPC  H17Y 4700   3.716   2.597   8.459 -1.0813  1.9308 -1.1352
   60SAPC  C318 4701   3.551   2.470   8.403  0.5135 -0.1629 -0.8035
   60SAPC  H18X 4702   3.474   2.412   8.458  0.3696  0.2185 -0.5974
   60SAPC  H18Y 4703   3.620   2.407   8.342  1.7881  2.4148 -2.1855
   60SAPC  H18Z 4704   3.493   2.539   8.339 -0.7564 -0.1046  0.3565
   61SAPC     N 4705   3.649   2.141  11.133 -0.6091 -0.0533  0.3974
   61SAPC   C12 4706   3.773   2.222  11.103  0.5603  0.0680 -0.7126
   61SAPC  H12A 4707   3.847   2.205  11.179 -0.2798  1.2760  0.4237
   61SAPC  H12B 4708   3.749   2.328  11.103 -2.4044 -0.5176 -0.4075
   61SAPC   C13 4709   3.597   2.174  11.269 -0.5424 -0.2463  0.9384
   61SAPC  H13A 4710   3.505   2.120  11.281 -0.6185 -0.2577  0.3324
   61SAPC  H13B 4711   3.654   2.135  11.351 -1.3977 -1.9867  0.7360
   61SAPC  H13C 4712   3.583   2.281  11.270 -0.6394 -0.2420  0.1513
   61SAPC   C14 4713   3.540   2.174  11.039  0.3676 -0.7050 -0.8826
   61SAPC  H14A 4714   3.448   2.137  11.083  0.7170  1.0037  1.5115
   61SAPC  H14B 4715   3.521   2.280  11.039 -1.3978 -0.9951 -0.4971
   61SAPC  H14C 4716   3.558   2.121  10.947  1.3353 -1.7929 -0.0971
   61SAPC   C15 4717   3.671   1.989  11.126  0.4436 -0.2877 -0.1820
   61SAPC  H15A 4718   3.715   1.975  11.028  2.3209  2.1046  0.2356
   61SAPC  H15B 4719   3.741   1.952  11.199  3.4391  1.2708 -2.0441
   61SAPC  H15C 4720   3.573   1.949  11.147  0.0559  0.5937 -0.2622
   61SAPC   C11 4721   3.836   2.203  10.966  0.0535 -0.3751  0.9034
   61SAPC  H11A 4722   3.771   2.241  10.885 -0.4127 -1.8498  0.5642
   61SAPC  H11B 4723   3.836   2.096  10.937 -1.5890  0.3033 -2.0259
   61SAPC     P 4724   4.005   2.391  10.892  0.4061  0.3777  0.0886
   61SAPC   O13 4725   3.921   2.494  10.959  0.7535 -0.0279 -0.8106
   61SAPC   O14 4726   4.150   2.402  10.887 -0.0121  0.6251  0.8507
   61SAPC   O12 4727   3.968   2.260  10.960 -0.2786  0.7481  0.1356
   61SAPC   O11 4728   3.948   2.373  10.741  0.8340  0.1800  0.1319
   61SAPC    C1 4729   4.032   2.314  10.634 -0.7516 -0.5606 -0.3866
   61SAPC    HA 4730   4.085   2.400  10.587  1.3314 -1.1214  0.8055
   61SAPC    HB 4731   4.112   2.252  10.679  1.2740  2.1685  0.0555
   61SAPC    C2 4732   3.957   2.224  10.533  0.0211  0.2162 -0.2076
   61SAPC    HS 4733   4.035   2.157  10.492  2.0721  1.5325  1.3397
   61SAPC   O21 4734   3.887   2.309  10.441  0.0177  0.4838  0.0991
   61SAPC   C21 4735   3.933   2.310  10.321  0.2152  0.4882  0.5672
   61SAPC   O22 4736   4.030   2.247  10.278  0.5160  0.5239 -0.2893
   61SAPC   C22 4737   3.848   2.400  10.235  0.7848  0.0732  0.1134
   61SAPC   H2R 4738   3.760   2.429  10.296  1.2766  0.3305  0.7158
   61SAPC   H2S 4739   3.913   2.490  10.222  1.3661 -0.4011 -0.2950
   61SAPC    C3 4740   3.857   2.125  10.597 -0.3286  0.5952 -0.1162
   61SAPC    HX 4741   3.774   2.180  10.645  0.3860  0.7012  1.0253
   61SAPC    HY 4742   3.909   2.069  10.678 -0.8795  1.8498  1.1477
   61SAPC   O31 4743   3.814   2.032  10.500  0.5489  0.5436 -0.4100
   61SAPC   C31 4744   3.711   2.053  10.422 -0.1324 -0.7326  0.2713
   61SAPC   O32 4745   3.610   2.120  10.451 -0.0211 -0.2300  0.3221
   61SAPC   C32 4746   3.717   1.962  10.297  0.2926 -0.6579 -0.0994
   61SAPC   H2X 4747   3.717   2.022  10.204  0.3690 -0.9329 -0.2804
   61SAPC   H2Y 4748   3.624   1.901  10.300 -0.9640  1.1996  0.6591
   61SAPC   C23 4749   3.806   2.328  10.100 -0.2338  0.3389 -0.5406
   61SAPC   H3R 4750   3.732   2.250  10.127 -0.5767  0.5397 -0.8829
   61SAPC   H3S 4751   3.897   2.279  10.060  1.6249  1.5933  1.9163
   61SAPC   C24 4752   3.753   2.421   9.989  0.1219  0.7619 -0.2219
   61SAPC   H4R 4753   3.681   2.494  10.032  0.3243  0.5506  0.4761
   61SAPC   H4S 4754   3.697   2.351   9.923  0.3481 -0.9975  1.3792
   61SAPC   C25 4755   3.860   2.492   9.903 -0.2307 -0.5552 -0.3568
   61SAPC   H5R 4756   3.954   2.514   9.956 -1.3122  1.5213  0.7906
   61SAPC   C26 4757   3.848   2.532   9.776  0.4611  0.1075  0.0618
   61SAPC   H6R 4758   3.926   2.584   9.718 -1.1656  1.7124 -0.8102
   61SAPC   C27 4759   3.719   2.514   9.702  0.2930 -0.7834  0.2954
   61SAPC   H7R 4760   3.682   2.617   9.682 -1.2114 -1.6226 -1.4855
   61SAPC   H7S 4761   3.638   2.477   9.769  0.4112  1.8773  2.0797
   61SAPC   C28 4762   3.747   2.434   9.575  0.1838 -0.3054 -0.2755
   61SAPC   H8R 4763   3.694   2.337   9.571 -1.1194  0.3820 -0.1614
   61SAPC   C29 4764   3.815   2.469   9.458 -0.4902  0.1800  0.4648
   61SAPC   H9R 4765   3.815   2.406   9.367  0.8247  0.0780  0.5186
   61SAPC  C210 4766   3.875   2.599   9.430 -0.8009 -0.1667  0.1746
   61SAPC  H10R 4767   3.983   2.573   9.434 -1.1356 -1.5432  1.1066
   61SAPC  H10S 4768   3.863   2.665   9.519  2.0017  0.2817  0.3133
   61SAPC  C211 4769   3.829   2.670   9.299  0.1784 -0.0610  0.1353
   61SAPC  H11R 4770   3.741   2.733   9.320 -1.1413 -0.9870 -2.1833
   61SAPC  C212 4771   3.885   2.661   9.178  0.3948  0.3854  0.4481
   61SAPC  H12R 4772   3.835   2.721   9.100  0.2034  1.9162  1.6963
   61SAPC  C213 4773   4.007   2.580   9.136 -0.4290  0.6382 -0.5176
   61SAPC  H13R 4774   3.984   2.472   9.136  0.8108  0.3567  0.5663
   61SAPC  H13S 4775   4.084   2.606   9.212 -0.6638  2.2168 -0.7765
   61SAPC  C214 4776   4.074   2.621   9.005  0.1289  0.0639  0.2393
   61SAPC  H14R 4777   4.166   2.680   9.004  0.0885  0.1263 -0.0692
   61SAPC  C215 4778   4.037   2.597   8.879  1.2158  0.0165  0.4449
   61SAPC  H15R 4779   4.098   2.630   8.794  1.7471  1.3817  1.3250
   61SAPC  C216 4780   3.915   2.515   8.842 -0.1931  0.4209 -0.3701
   61SAPC  H16R 4781   3.864   2.550   8.750 -1.6620  0.5476  0.4758
   61SAPC  H16S 4782   3.844   2.517   8.927  1.9228  2.3521  1.4869
   61SAPC  C217 4783   3.951   2.361   8.818 -0.2636  0.0931 -0.0548
   61SAPC  H17R 4784   3.865   2.300   8.851 -0.3709  1.4042  2.2706
   61SAPC  H17S 4785   4.038   2.329   8.879 -0.4992  1.8979  1.3120
   61SAPC  C218 4786   3.972   2.334   8.666 -0.7335  0.0013  0.2770
   61SAPC  H18R 4787   3.893   2.383   8.605 -0.6321  2.1487  1.7688
   61SAPC  H18S 4788   3.963   2.225   8.646  0.3943 -0.0654  0.0933
   61SAPC  C219 4789   4.102   2.394   8.612  1.0119  0.9739  0.2318
   61SAPC  H19R 4790   4.190   2.363   8.673  1.2793 -1.3372 -1.2206
   61SAPC  H19S 4791   4.079   2.503   8.614 -4.5511  0.2563 -3.4254
   61SAPC  C220 4792   4.125   2.360   8.462 -0.1235  0.2142  0.0025
   61SAPC  H20R 4793   4.030   2.358   8.404  0.0472 -0.4298 -0.2622
   61SAPC  H20S 4794   4.162   2.257   8.444  2.3772  1.0053  0.2771
   61SAPC  H20T 4795   4.196   2.434   8.419  0.0710 -1.0191 -1.9040
   61SAPC   C33 4796   3.857   1.883  10.293 -0.3577 -0.3277  0.6903
   61SAPC   H3X 4797   3.876   1.842  10.394  0.7147 -0.2260  0.5434
   61SAPC   H3Y 4798   3.927   1.966  10.269 -0.2135 -0.5970  0.1569
   61SAPC   C34 4799   3.854   1.765  10.185 -0.3110 -0.2025  0.6345
   61SAPC   H4X 4800   3.764   1.705  10.211 -0.7170 -0.2097 -0.6908
   61SAPC   H4Y 4801   3.945   1.702  10.198  0.2255  0.5481  0.6058
   61SAPC   C35 4802   3.858   1.829  10.050 -0.0670  0.5663 -0.2995
   61SAPC   H5X 4803   3.951   1.889  10.038 -0.2048  0.8898  0.2366
   61SAPC   H5Y 4804   3.774   1.900  10.036  0.4416  1.1478 -0.4517
   61SAPC   C36 4805   3.864   1.715   9.949 -0.4559 -0.2934 -0.4411
   61SAPC   H6X 4806   3.766   1.662   9.950  0.8802 -2.9185 -0.0406
   61SAPC   H6Y 4807   3.940   1.638   9.974 -0.7281 -0.5718 -0.4565
   61SAPC   C37 4808   3.889   1.774   9.806  0.2129 -0.0406  0.5151
   61SAPC   H7X 4809   3.998   1.774   9.786  0.0930  1.3871 -0.2594
   61SAPC   H7Y 4810   3.849   1.877   9.812 -0.6982 -0.1399 -2.5129
   61SAPC   C38 4811   3.813   1.697   9.699  0.4371 -0.4061  0.0401
   61SAPC   H8X 4812   3.708   1.732   9.687  0.2114 -1.0673  0.0708
   61SAPC   H8Y 4813   3.817   1.589   9.723  0.3901 -0.9461 -2.2120
   61SAPC   C39 4814   3.889   1.717   9.565  0.1452 -0.2709  0.0626
   61SAPC   H9X 4815   3.989   1.668   9.570  0.3501  0.0814 -0.4969
   61SAPC   H9Y 4816   3.910   1.825   9.549  0.3820 -0.2237  0.6641
   61SAPC  C310 4817   3.810   1.660   9.448 -0.1201  0.2508  0.1197
   61SAPC  H10X 4818   3.701   1.668   9.470 -0.2483  0.3686 -0.5131
   61SAPC  H10Y 4819   3.843   1.555   9.451  1.8135  0.5794 -3.6560
   61SAPC  C311 4820   3.830   1.726   9.307  0.1763 -0.1019  0.2899
   61SAPC  H11X 4821   3.941   1.723   9.301  0.2900  2.3775 -0.0387
   61SAPC  H11Y 4822   3.784   1.827   9.301 -0.5238 -0.4827 -1.6288
   61SAPC  C312 4823   3.770   1.639   9.196  0.0143  0.9355  0.1622
   61SAPC  H12X 4824   3.659   1.640   9.195  0.0144  0.7663 -1.0830
   61SAPC  H12Y 4825   3.810   1.536   9.207  1.4065  1.2840 -1.3098
   61SAPC  C313 4826   3.819   1.680   9.057 -0.7144  0.0324  0.2024
   61SAPC  H13X 4827   3.929   1.663   9.050 -0.4665 -0.0679  3.1165
   61SAPC  H13Y 4828   3.794   1.788   9.058 -0.5903  0.0614  1.1867
   61SAPC  C314 4829   3.739   1.624   8.947  0.0788  1.2416 -0.5502
   61SAPC  H14X 4830   3.629   1.633   8.963 -0.0079 -1.4590  1.1097
   61SAPC  H14Y 4831   3.743   1.513   8.955 -1.3284  1.0726 -1.6767
   61SAPC  C315 4832   3.777   1.661   8.806 -0.2895 -0.9445 -0.0943
   61SAPC  H15X 4833   3.885   1.659   8.780 -0.3249 -4.7901 -0.4257
   61SAPC  H15Y 4834   3.732   1.761   8.783  2.3067 -0.1025 -2.0159
   61SAPC  C316 4835   3.703   1.570   8.701  0.2783 -0.4014  0.0243
   61SAPC  H16X 4836   3.592   1.573   8.697  0.2975 -0.3062 -0.5846
   61SAPC  H16Y 4837   3.737   1.467   8.726 -1.3606 -0.9022  0.3298
   61SAPC  C317 4838   3.735   1.592   8.553 -1.2803 -0.2243 -0.3120
   61SAPC  H17X 4839   3.678   1.521   8.491 -1.0407  1.1227 -2.1506
   61SAPC  H17Y 4840   3.843   1.574   8.538 -1.0402  2.1306 -1.9270
   61SAPC  C318 4841   3.697   1.735   8.514 -0.0728  0.3134 -0.0182
   61SAPC  H18X 4842   3.739   1.811   8.583  1.3538 -0.3323 -0.1408
   61SAPC  H18Y 4843   3.587   1.745   8.530  0.0775  0.5075  0.9440
   61SAPC  H18Z 4844   3.719   1.753   8.407  1.0207 -0.4929  0.0544
   62SAPC     N 4845   3.129   2.845  10.894  0.1575  0.1252  0.4174
   62SAPC   C12 4846   3.133   2.792  10.751 -0.5899  0.2612  0.2867
   62SAPC  H12A 4847   3.042   2.815  10.697 -0.3850 -0.3607 -0.3399
   62SAPC  H12B 4848   3.138   2.684  10.750 -1.3444  0.1883  1.7701
   62SAPC   C13 4849   3.014   2.779  10.969  0.2656  0.5356 -0.5222
   62SAPC  H13A 4850   3.007   2.673  10.955  0.4449  0.5208 -0.5032
   62SAPC  H13B 4851   3.013   2.798  11.076 -4.2843 -0.2892 -0.2502
   62SAPC  H13C 4852   2.923   2.830  10.943  0.4416  2.7020  2.4907
   62SAPC   C14 4853   3.244   2.786  10.967  0.0428 -0.0491  0.2692
   62SAPC  H14A 4854   3.225   2.787  11.073 -1.5100 -1.2128  0.0401
   62SAPC  H14B 4855   3.244   2.679  10.948 -0.8959  0.2046 -1.3210
   62SAPC  H14C 4856   3.343   2.822  10.946 -0.4348  0.4613 -1.2333
   62SAPC   C15 4857   3.121   2.991  10.895 -0.1447  0.3502 -0.5276
   62SAPC  H15A 4858   3.194   3.035  10.829  1.5190 -0.0834  0.9622
   62SAPC  H15B 4859   3.024   3.035  10.876 -0.0162  2.4475  2.8907
   62SAPC  H15C 4860   3.146   3.019  10.996  1.2455  2.2375 -1.3368
   62SAPC   C11 4861   3.250   2.853  10.665 -0.4258  0.4839 -0.7334
   62SAPC  H11A 4862   3.248   2.964  10.669  1.5579  0.5340 -0.1766
   62SAPC  H11B 4863   3.239   2.825  10.558  0.1273  0.5115 -0.7994
   62SAPC     P 4864   3.434   2.676  10.668  0.0999  0.3508  0.0972
   62SAPC   O13 4865   3.527   2.623  10.770 -0.5153 -0.1313  0.6050
   62SAPC   O14 4866   3.327   2.578  10.632  0.1489 -0.2448 -0.2137
   62SAPC   O12 4867   3.376   2.805  10.724  0.5222 -0.7680  0.5136
   62SAPC   O11 4868   3.514   2.723  10.541  0.2217 -0.0097 -0.2336
   62SAPC    C1 4869   3.573   2.857  10.520 -0.6606  0.5036 -0.1645
   62SAPC    HA 4870   3.585   2.905  10.619 -1.5325  0.8096 -0.1952
   62SAPC    HB 4871   3.678   2.848  10.486 -0.0932  1.1372  1.3433
   62SAPC    C2 4872   3.495   2.963  10.438  0.6010 -0.1529  0.0810
   62SAPC    HS 4873   3.395   2.968  10.485  0.9037  2.8378  0.5768
   62SAPC   O21 4874   3.491   2.933  10.297 -0.3700  0.0934 -0.3877
   62SAPC   C21 4875   3.400   2.848  10.256  0.1996  0.3313  0.3800
   62SAPC   O22 4876   3.308   2.805  10.328  0.2318 -0.6179  0.3927
   62SAPC   C22 4877   3.423   2.815  10.111  0.2575  0.6092  0.7196
   62SAPC   H2R 4878   3.414   2.906  10.048 -1.0690 -1.1204 -1.7468
   62SAPC   H2S 4879   3.526   2.773  10.103 -0.7214 -1.8035 -0.0526
   62SAPC    C3 4880   3.562   3.103  10.438 -0.3523  0.3191 -0.2227
   62SAPC    HX 4881   3.659   3.086  10.387  0.5494  1.7120  0.9278
   62SAPC    HY 4882   3.581   3.103  10.548 -0.1874 -0.9264 -0.2332
   62SAPC   O31 4883   3.480   3.211  10.393  0.0841  0.3737  0.8415
   62SAPC   C31 4884   3.522   3.321  10.333  0.7181 -0.8254 -0.5253
   62SAPC   O32 4885   3.640   3.350  10.324  0.9781 -0.5818 -0.2033
   62SAPC   C32 4886   3.409   3.402  10.264 -0.3506 -0.3677 -0.2736
   62SAPC   H2X 4887   3.463   3.477  10.204 -0.6308 -1.1527 -1.5437
   62SAPC   H2Y 4888   3.358   3.455  10.347  1.6120 -0.9699  1.4039
   62SAPC   C23 4889   3.341   2.686  10.060 -0.1153  0.7873  0.5434
   62SAPC   H3R 4890   3.235   2.710  10.038 -0.7069 -2.4297 -0.5724
   62SAPC   H3S 4891   3.341   2.612  10.143  0.4307 -0.1237 -0.2489
   62SAPC   C24 4892   3.408   2.618   9.940 -0.1692  0.0837  0.1359
   62SAPC   H4R 4893   3.518   2.609   9.953  0.2999  0.6363 -2.6560
   62SAPC   H4S 4894   3.389   2.682   9.851 -2.0897  1.9517  1.8020
   62SAPC   C25 4895   3.342   2.483   9.929 -0.6281  0.6391 -0.0939
   62SAPC   H5R 4896   3.323   2.436  10.027 -2.0973  0.7668 -0.2854
   62SAPC   C26 4897   3.307   2.419   9.814  0.4244 -0.9820 -0.3750
   62SAPC   H6R 4898   3.268   2.317   9.828  0.9930 -1.1375  0.0934
   62SAPC   C27 4899   3.334   2.477   9.677  0.3230 -0.1423 -0.1939
   62SAPC   H7R 4900   3.440   2.458   9.650  0.8590  0.2633  1.4693
   62SAPC   H7S 4901   3.319   2.586   9.689 -0.4784 -0.1939 -0.6614
   62SAPC   C28 4902   3.235   2.434   9.578  0.2478  0.2352 -0.2898
   62SAPC   H8R 4903   3.135   2.417   9.621  0.8450 -0.3154  0.9231
   62SAPC   C29 4904   3.259   2.420   9.445 -0.3292  0.3484 -0.0744
   62SAPC   H9R 4905   3.176   2.385   9.381  0.5869  0.7029 -1.4971
   62SAPC  C210 4906   3.387   2.454   9.377  0.0870  0.1625  0.5461
   62SAPC  H10R 4907   3.441   2.359   9.397  1.1251  0.7517  0.6147
   62SAPC  H10S 4908   3.439   2.540   9.425  1.8883  0.6583 -2.0250
   62SAPC  C211 4909   3.371   2.467   9.222  0.4580  0.4091  0.0052
   62SAPC  H11R 4910   3.274   2.510   9.192  0.5661  0.5940 -0.0803
   62SAPC  C212 4911   3.462   2.423   9.129 -1.1364 -0.2030 -0.6576
   62SAPC  H12R 4912   3.441   2.429   9.021  0.6599  2.1166 -0.9509
   62SAPC  C213 4913   3.599   2.358   9.147 -0.0715  0.1349 -1.1215
   62SAPC  H13R 4914   3.648   2.415   9.228  1.4499 -0.0941 -1.8496
   62SAPC  H13S 4915   3.651   2.373   9.050  1.5741 -3.5599 -0.9782
   62SAPC  C214 4916   3.605   2.217   9.201  0.3703  1.0421  0.1925
   62SAPC  H14R 4917   3.531   2.190   9.278  1.1610 -1.9915  0.0292
   62SAPC  C215 4918   3.683   2.122   9.157 -0.2735  0.2618 -0.0005
   62SAPC  H15R 4919   3.683   2.021   9.201  1.3502 -0.7020 -1.9918
   62SAPC  C216 4920   3.784   2.126   9.043 -0.2995  0.3892  0.6251
   62SAPC  H16R 4921   3.881   2.074   9.060 -1.0068 -1.5899 -0.9866
   62SAPC  H16S 4922   3.803   2.232   9.013  1.7842  0.0339  0.5410
   62SAPC  C217 4923   3.722   2.062   8.912 -0.3954  0.2693 -0.5045
   62SAPC  H17R 4924   3.671   1.965   8.930  2.6909 -1.5525 -0.8566
   62SAPC  H17S 4925   3.795   2.046   8.830  0.9717  0.9546  0.5426
   62SAPC  C218 4926   3.603   2.145   8.856 -0.7791 -0.5217  0.4511
   62SAPC  H18R 4927   3.649   2.240   8.820 -2.2789  0.7808  1.8327
   62SAPC  H18S 4928   3.534   2.142   8.943 -0.2114 -4.1268  0.9106
   62SAPC  C219 4929   3.550   2.074   8.735  0.0569 -0.1515  0.3781
   62SAPC  H19R 4930   3.484   1.994   8.773 -0.3707 -0.0167 -0.0660
   62SAPC  H19S 4931   3.634   2.031   8.677  0.1527  0.4480  0.0632
   62SAPC  C220 4932   3.472   2.155   8.628 -0.2489 -0.4761 -0.1710
   62SAPC  H20R 4933   3.381   2.186   8.683 -1.3135 -1.2240 -1.4590
   62SAPC  H20S 4934   3.448   2.078   8.552  1.4735  0.8115 -2.1639
   62SAPC  H20T 4935   3.535   2.237   8.587 -1.3519  1.2891  1.4848
   62SAPC   C33 4936   3.311   3.325  10.179  0.4960  0.1231 -0.0732
   62SAPC   H3X 4937   3.245   3.273  10.252 -0.5585  0.4022 -0.8002
   62SAPC   H3Y 4938   3.373   3.255  10.120  1.6869 -0.1232  1.4204
   62SAPC   C34 4939   3.232   3.416  10.089  0.4520  0.4129 -0.6480
   62SAPC   H4X 4940   3.187   3.500  10.147  0.8280  0.6498 -0.6964
   62SAPC   H4Y 4941   3.143   3.365  10.045 -0.3145  1.7181 -0.6748
   62SAPC   C35 4942   3.311   3.468   9.973 -0.0998  0.3445  1.2876
   62SAPC   H5X 4943   3.368   3.386   9.925 -1.7525  0.4752 -1.0784
   62SAPC   H5Y 4944   3.395   3.536  10.000 -2.0238  3.5266 -0.0667
   62SAPC   C36 4945   3.233   3.517   9.851  0.2800  0.2935 -0.8436
   62SAPC   H6X 4946   3.191   3.617   9.879 -0.1838 -0.4310  1.2272
   62SAPC   H6Y 4947   3.141   3.458   9.830  0.5451 -0.3388 -0.2650
   62SAPC   C37 4948   3.306   3.551   9.716 -0.1977  0.7292  0.2170
   62SAPC   H7X 4949   3.398   3.600   9.756 -0.9456  0.6640  2.1645
   62SAPC   H7Y 4950   3.242   3.625   9.664  0.9709  1.9100  0.3837
   62SAPC   C38 4951   3.339   3.420   9.633  0.0384  0.0011  0.3907
   62SAPC   H8X 4952   3.248   3.358   9.618 -1.3719  2.4758 -2.3635
   62SAPC   H8Y 4953   3.406   3.369   9.705 -0.9145 -1.1428  0.5049
   62SAPC   C39 4954   3.411   3.450   9.502 -0.5133 -0.4444 -0.3246
   62SAPC   H9X 4955   3.432   3.353   9.453  1.2336  0.1690 -0.8642
   62SAPC   H9Y 4956   3.507   3.502   9.526  0.4743 -2.6866  0.8929
   62SAPC  C310 4957   3.306   3.520   9.409  0.0904 -0.5564 -0.0055
   62SAPC  H10X 4958   3.275   3.616   9.454  1.3483 -1.3553  2.8654
   62SAPC  H10Y 4959   3.220   3.450   9.412  1.7697 -2.8465 -1.2205
   62SAPC  C311 4960   3.346   3.532   9.266  0.1181  0.6289  0.4622
   62SAPC  H11X 4961   3.448   3.577   9.270  2.6032 -4.3571  2.7749
   62SAPC  H11Y 4962   3.279   3.601   9.212  1.1083  1.9724  0.8905
   62SAPC  C312 4963   3.362   3.399   9.195 -0.4699 -0.8037 -0.0615
   62SAPC  H12X 4964   3.281   3.327   9.217  0.0472 -1.3789 -0.0004
   62SAPC  H12Y 4965   3.448   3.341   9.235  0.6048  1.4028  0.9683
   62SAPC  C313 4966   3.367   3.426   9.045 -0.6001  0.0104  0.1130
   62SAPC  H13X 4967   3.456   3.492   9.041  1.1790 -2.1754  1.5465
   62SAPC  H13Y 4968   3.275   3.476   9.008 -1.0834 -1.7711 -1.2345
   62SAPC  C314 4969   3.383   3.297   8.964 -0.9769  0.0831  0.2696
   62SAPC  H14X 4970   3.292   3.237   8.983 -1.5351 -0.2890 -2.9536
   62SAPC  H14Y 4971   3.472   3.235   8.988  0.8244  1.9886 -1.1035
   62SAPC  C315 4972   3.397   3.330   8.814 -0.1724  0.1312 -0.1646
   62SAPC  H15X 4973   3.403   3.234   8.759 -0.4262  0.3286 -0.5441
   62SAPC  H15Y 4974   3.494   3.374   8.782 -0.4631  1.2230  0.4127
   62SAPC  C316 4975   3.286   3.416   8.749  0.4638  0.1300  0.2058
   62SAPC  H16X 4976   3.289   3.515   8.799  0.4388  0.8159 -1.0795
   62SAPC  H16Y 4977   3.185   3.376   8.773 -0.4414  1.8991 -0.3750
   62SAPC  C317 4978   3.311   3.425   8.596 -0.1517  0.1079 -0.2146
   62SAPC  H17X 4979   3.210   3.461   8.566 -0.5935  0.1152  1.1838
   62SAPC  H17Y 4980   3.336   3.320   8.572  1.7809  0.3130  0.7078
   62SAPC  C318 4981   3.426   3.519   8.541 -0.4614  0.0737 -0.3162
   62SAPC  H18X 4982   3.407   3.621   8.581  1.7588 -0.1243  1.3661
   62SAPC  H18Y 4983   3.429   3.508   8.431 -0.1880  0.0631 -0.3073
   62SAPC  H18Z 4984   3.518   3.480   8.587 -1.5954 -0.1450  1.9014
   63SAPC     N 4985   1.921   0.574   6.009  0.9468 -0.4070 -0.1486
   63SAPC   C12 4986   1.878   0.585   6.154  0.0744  0.1052 -0.4449
   63SAPC  H12A 4987   1.807   0.509   6.181 -1.3200  1.3519 -0.4568
   63SAPC  H12B 4988   1.811   0.670   6.160 -0.7991 -0.5430 -0.8261
   63SAPC   C13 4989   2.007   0.688   5.972  0.5166 -0.1560  0.1693
   63SAPC  H13A 4990   2.101   0.676   6.024  2.0845  3.1133 -1.5934
   63SAPC  H13B 4991   2.034   0.677   5.868 -1.7480  0.1620 -0.5095
   63SAPC  H13C 4992   1.954   0.781   5.985 -4.0367 -1.5949 -4.7961
   63SAPC   C14 4993   2.000   0.453   5.990 -0.8530 -0.3119  0.2311
   63SAPC  H14A 4994   2.101   0.466   6.027 -0.8532  1.3825 -0.3060
   63SAPC  H14B 4995   1.952   0.367   6.035 -1.4842 -0.5279 -0.8149
   63SAPC  H14C 4996   2.015   0.432   5.885  2.1653  2.3419 -0.0205
   63SAPC   C15 4997   1.802   0.565   5.918  0.3860  0.9857 -0.0701
   63SAPC  H15A 4998   1.741   0.478   5.935  1.2617  0.3816  0.0630
   63SAPC  H15B 4999   1.729   0.642   5.934 -1.3291 -0.0503 -2.2669
   63SAPC  H15C 5000   1.833   0.567   5.814  0.2177  2.8960 -0.1081
   63SAPC   C11 5001   1.986   0.607   6.260  0.4632  0.5459  1.2887
   63SAPC  H11A 5002   2.068   0.542   6.224 -0.2624 -0.1012  0.7858
   63SAPC  H11B 5003   1.946   0.577   6.360 -1.3979 -0.4584  0.2849
   63SAPC     P 5004   2.171   0.798   6.289  0.0378 -0.0906 -0.4095
   63SAPC   O13 5005   2.272   0.725   6.212 -0.3325  0.2303 -0.0938
   63SAPC   O14 5006   2.164   0.944   6.264  0.3325  0.1920 -0.5792
   63SAPC   O12 5007   2.023   0.747   6.263  0.4708  0.7531 -0.1488
   63SAPC   O11 5008   2.196   0.761   6.444  0.2933  0.3322 -0.6232
   63SAPC    C1 5009   2.127   0.831   6.547  0.0632 -0.1411 -0.4675
   63SAPC    HA 5010   2.179   0.927   6.567  0.2752 -0.9501  3.7944
   63SAPC    HB 5011   2.021   0.852   6.521  0.3613  0.0893 -1.5633
   63SAPC    C2 5012   2.127   0.755   6.686 -0.5737  0.5472  0.1548
   63SAPC    HS 5013   2.086   0.823   6.764 -1.9220 -1.4270  1.2421
   63SAPC   O21 5014   2.264   0.706   6.715 -0.4887  0.3382  0.3403
   63SAPC   C21 5015   2.350   0.800   6.754 -0.0472  0.3504  0.3082
   63SAPC   O22 5016   2.328   0.919   6.770  0.4556  0.3995 -0.6180
   63SAPC   C22 5017   2.491   0.733   6.760 -0.9773  0.2793  0.2880
   63SAPC   H2R 5018   2.498   0.686   6.660  0.6090 -2.0017  1.3710
   63SAPC   H2S 5019   2.569   0.811   6.767  0.2909 -0.9576  0.4423
   63SAPC    C3 5020   2.035   0.631   6.680  0.3149 -0.0710  0.3383
   63SAPC    HX 5021   2.047   0.581   6.582 -0.6520 -1.0884  0.7068
   63SAPC    HY 5022   1.933   0.675   6.678 -0.1635 -1.1137 -2.5904
   63SAPC   O31 5023   2.063   0.534   6.790  0.5010 -0.4005 -0.6101
   63SAPC   C31 5024   2.014   0.568   6.908  0.0492 -0.0931 -0.6677
   63SAPC   O32 5025   1.933   0.654   6.928 -0.3023  0.1293  0.5400
   63SAPC   C32 5026   2.070   0.476   7.021  0.3672 -0.9476  0.6085
   63SAPC   H2X 5027   2.172   0.443   6.990  0.8525 -0.4113  1.5850
   63SAPC   H2Y 5028   2.002   0.390   7.036  0.6399 -1.4660 -0.9680
   63SAPC   C23 5029   2.498   0.622   6.868 -0.5843  0.4818 -0.1223
   63SAPC   H3R 5030   2.590   0.565   6.844 -1.6806 -1.1335 -0.7077
   63SAPC   H3S 5031   2.419   0.549   6.841  1.1668 -1.1034 -1.2031
   63SAPC   C24 5032   2.499   0.659   7.015  0.3124  0.8574 -0.4652
   63SAPC   H4R 5033   2.395   0.679   7.049 -0.4489 -3.4919  0.3411
   63SAPC   H4S 5034   2.550   0.756   7.030 -1.9921  1.7448  2.6247
   63SAPC   C25 5035   2.548   0.550   7.099  0.2691  0.9805  0.1004
   63SAPC   H5R 5036   2.558   0.453   7.049 -0.6144  0.3451  1.0958
   63SAPC   C26 5037   2.600   0.557   7.222 -0.1794  0.3150 -0.0677
   63SAPC   H6R 5038   2.644   0.470   7.273 -2.0764  0.6711  2.3586
   63SAPC   C27 5039   2.608   0.687   7.304  0.9326 -0.3227  0.2148
   63SAPC   H7R 5040   2.523   0.748   7.268  2.0083  0.2298 -1.4966
   63SAPC   H7S 5041   2.699   0.744   7.276  0.2970  0.1942 -0.8478
   63SAPC   C28 5042   2.595   0.663   7.454  0.1272  0.5311  0.0765
   63SAPC   H8R 5043   2.499   0.688   7.501  1.5817  1.5555  2.7021
   63SAPC   C29 5044   2.687   0.619   7.542  0.5062 -0.5916 -0.0545
   63SAPC   H9R 5045   2.651   0.587   7.641 -0.1186  1.9341  0.5857
   63SAPC  C210 5046   2.837   0.591   7.519 -0.0256  0.7064  0.5228
   63SAPC  H10R 5047   2.853   0.590   7.409 -0.8088  4.5200  0.2521
   63SAPC  H10S 5048   2.860   0.498   7.575  0.0593  0.4042 -0.0054
   63SAPC  C211 5049   2.938   0.700   7.565  0.9900  0.7843  0.2337
   63SAPC  H11R 5050   2.888   0.768   7.636 -0.9727 -1.8563  1.6032
   63SAPC  C212 5051   3.068   0.711   7.530  0.6064 -0.3487 -0.4046
   63SAPC  H12R 5052   3.115   0.797   7.581 -2.2444  0.9712  0.2492
   63SAPC  C213 5053   3.144   0.637   7.428  0.5580 -0.0219 -0.3126
   63SAPC  H13R 5054   3.248   0.678   7.427  0.1083  1.1531  0.1066
   63SAPC  H13S 5055   3.092   0.659   7.332 -0.5017 -0.1222  0.2272
   63SAPC  C214 5056   3.147   0.486   7.459  0.9550 -0.4602 -0.0522
   63SAPC  H14R 5057   3.183   0.456   7.559  0.4004  1.3215  0.7227
   63SAPC  C215 5058   3.110   0.389   7.364  0.2820 -0.3951  0.3695
   63SAPC  H15R 5059   3.086   0.287   7.397 -2.2801  0.1392  0.4144
   63SAPC  C216 5060   3.074   0.415   7.218 -0.0720  0.6582  0.3616
   63SAPC  H16R 5061   3.131   0.500   7.173  0.0287  1.2402  1.5507
   63SAPC  H16S 5062   2.966   0.440   7.212  0.1893  2.0830  1.1115
   63SAPC  C217 5063   3.118   0.288   7.144 -0.5602 -0.5285 -0.6952
   63SAPC  H17R 5064   3.069   0.196   7.180  1.8025 -1.7382 -0.3755
   63SAPC  H17S 5065   3.227   0.284   7.167 -0.8280  1.7535  1.4951
   63SAPC  C218 5066   3.101   0.299   6.992 -0.2576  1.2261 -0.7886
   63SAPC  H18R 5067   3.178   0.252   6.926 -1.9385 -2.2457 -0.5238
   63SAPC  H18S 5068   3.105   0.407   6.966  2.7312  1.9376  1.9956
   63SAPC  C219 5069   2.973   0.224   6.958 -0.1739  0.2256 -0.0349
   63SAPC  H19R 5070   2.908   0.290   7.020 -0.5017  0.3012 -0.4526
   63SAPC  H19S 5071   2.961   0.118   6.989 -0.7728  0.2513 -0.1648
   63SAPC  C220 5072   2.924   0.230   6.807  0.0129  0.4141  1.1716
   63SAPC  H20R 5073   2.997   0.182   6.737  0.5949 -0.2148  2.1779
   63SAPC  H20S 5074   2.920   0.334   6.769  1.1573 -0.7194 -2.5440
   63SAPC  H20T 5075   2.832   0.172   6.787  1.2178 -0.8819 -1.0837
   63SAPC   C33 5076   2.098   0.560   7.146  0.1213  0.1498 -0.0456
   63SAPC   H3X 5077   2.007   0.606   7.191  0.2139 -0.3704  0.6976
   63SAPC   H3Y 5078   2.175   0.636   7.120 -0.8201  0.8528 -0.8554
   63SAPC   C34 5079   2.168   0.469   7.253 -0.3490  0.0603 -0.2021
   63SAPC   H4X 5080   2.256   0.415   7.213 -0.2549 -0.5166  0.7570
   63SAPC   H4Y 5081   2.095   0.389   7.280 -0.0911  0.0179  0.3754
   63SAPC   C35 5082   2.207   0.558   7.378 -0.5033 -0.0616  0.0647
   63SAPC   H5X 5083   2.135   0.642   7.382  0.0444  0.5674 -1.9152
   63SAPC   H5Y 5084   2.305   0.609   7.363 -1.4115  1.8302  0.2190
   63SAPC   C36 5085   2.216   0.480   7.508  1.2025  0.1770 -0.3127
   63SAPC   H6X 5086   2.317   0.435   7.524  3.0104  4.4381  1.9527
   63SAPC   H6Y 5087   2.149   0.392   7.507  0.8637  0.4298 -0.8748
   63SAPC   C37 5088   2.190   0.560   7.640 -0.3566  0.0504 -0.3506
   63SAPC   H7X 5089   2.092   0.612   7.627  0.6559  1.5453 -2.6649
   63SAPC   H7Y 5090   2.272   0.633   7.648  0.7060 -0.9134 -1.8178
   63SAPC   C38 5091   2.175   0.465   7.761 -0.7510 -0.2348 -0.7934
   63SAPC   H8X 5092   2.244   0.379   7.744  1.5391  0.9148  1.8819
   63SAPC   H8Y 5093   2.073   0.421   7.764  0.2110 -2.5780  0.8106
   63SAPC   C39 5094   2.198   0.533   7.899 -0.4956 -0.2110  0.2050
   63SAPC   H9X 5095   2.110   0.600   7.908  0.1571  0.6999 -0.0511
   63SAPC   H9Y 5096   2.286   0.601   7.894 -1.4052  1.1106  1.3720
   63SAPC  C310 5097   2.204   0.444   8.030 -0.8385  0.0560  0.6353
   63SAPC  H10X 5098   2.111   0.385   8.041 -0.3014 -2.0048 -3.6898
   63SAPC  H10Y 5099   2.206   0.517   8.114  1.3278  1.1949 -0.3314
   63SAPC  C311 5100   2.339   0.364   8.036 -0.0888 -0.3753 -0.0251
   63SAPC  H11X 5101   2.421   0.438   8.028 -0.5411  0.3836  1.7463
   63SAPC  H11Y 5102   2.335   0.291   7.953 -1.4733  0.5647 -0.8295
   63SAPC  C312 5103   2.346   0.282   8.165 -0.2844  0.5396 -0.8309
   63SAPC  H12X 5104   2.259   0.213   8.161  1.0254 -1.2082 -0.2063
   63SAPC  H12Y 5105   2.347   0.347   8.255 -1.0893 -2.1534  1.2594
   63SAPC  C313 5106   2.473   0.191   8.165 -0.0646 -0.1356  0.0912
   63SAPC  H13X 5107   2.570   0.241   8.145  1.1931 -1.9240  1.4601
   63SAPC  H13Y 5108   2.465   0.125   8.076 -1.9994 -1.1459  0.9697
   63SAPC  C314 5109   2.488   0.106   8.290 -0.0703 -0.0445 -0.6023
   63SAPC  H14X 5110   2.439   0.159   8.374  0.7467  0.8760 -0.6806
   63SAPC  H14Y 5111   2.595   0.097   8.319 -0.5803  1.8010  2.1543
   63SAPC  C315 5112   2.419  -0.032   8.287 -0.9040 -0.7662  0.0602
   63SAPC  H15X 5113   2.468  -0.106   8.220 -1.8021 -1.8559  0.5864
   63SAPC  H15Y 5114   2.316  -0.018   8.248  0.0941 -0.9964 -2.9413
   63SAPC  C316 5115   2.425  -0.103   8.422  0.1571 -0.3912  0.5215
   63SAPC  H16X 5116   2.378  -0.039   8.499 -2.1633 -1.0423 -0.2555
   63SAPC  H16Y 5117   2.531  -0.101   8.455  0.1530 -2.4382  0.7974
   63SAPC  C317 5118   2.363  -0.238   8.432 -0.3337 -0.2176  0.4961
   63SAPC  H17X 5119   2.417  -0.308   8.365 -0.8629 -2.0414  1.8483
   63SAPC  H17Y 5120   2.255  -0.238   8.407 -1.1394 -1.5876  3.4817
   63SAPC  C318 5121   2.373  -0.307   8.569  1.2217  0.0688 -0.7728
   63SAPC  H18X 5122   2.473  -0.355   8.578  0.8841 -0.9993 -2.2479
   63SAPC  H18Y 5123   2.294  -0.385   8.564  0.1685  1.1890 -2.9652
   63SAPC  H18Z 5124   2.358  -0.237   8.654 -2.8782  0.8734 -1.9289
   64SAPC     N 5125   5.212   0.751   5.861  0.4477 -0.3099  0.1162
   64SAPC   C12 5126   5.171   0.738   6.005 -0.4505  0.1974  0.2504
   64SAPC  H12A 5127   5.153   0.837   6.044  0.5009  1.1666 -1.6242
   64SAPC  H12B 5128   5.249   0.687   6.059 -2.0722 -0.0531  2.5173
   64SAPC   C13 5129   5.349   0.811   5.857 -0.2650 -0.7207  0.5683
   64SAPC  H13A 5130   5.369   0.839   5.755  1.0395 -0.7295  0.8017
   64SAPC  H13B 5131   5.354   0.908   5.903  0.0364  0.1416 -1.2387
   64SAPC  H13C 5132   5.424   0.742   5.895  1.4832  1.5519  1.4547
   64SAPC   C14 5133   5.211   0.619   5.794  0.3405  0.4315  1.1675
   64SAPC  H14A 5134   5.110   0.586   5.775  1.3801 -1.6980 -1.3161
   64SAPC  H14B 5135   5.268   0.622   5.703 -2.2516  0.5707 -0.5718
   64SAPC  H14C 5136   5.248   0.543   5.860  1.9448  0.1490 -0.0034
   64SAPC   C15 5137   5.132   0.844   5.768  0.3321  0.2177  1.0520
   64SAPC  H15A 5138   5.032   0.809   5.748  0.7702 -0.5904  0.1482
   64SAPC  H15B 5139   5.127   0.940   5.816  1.5492  1.5735 -1.3579
   64SAPC  H15C 5140   5.179   0.846   5.671 -1.7455 -1.9051 -0.1182
   64SAPC   C11 5141   5.040   0.661   6.034 -0.0602 -0.6095 -0.3614
   64SAPC  H11A 5142   4.968   0.700   5.959  1.1084  0.4353 -0.9922
   64SAPC  H11B 5143   5.003   0.686   6.135  2.3114 -0.5597  0.5537
   64SAPC     P 5144   5.119   0.422   6.130  0.1059  0.1866 -0.1148
   64SAPC   O13 5145   5.036   0.312   6.166  0.3983 -0.0526 -0.1965
   64SAPC   O14 5146   5.249   0.381   6.079 -0.2360  0.2018 -0.0737
   64SAPC   O12 5147   5.054   0.519   6.019 -0.2743  0.8880  0.1115
   64SAPC   O11 5148   5.147   0.516   6.256 -0.2306 -0.0007  0.1587
   64SAPC    C1 5149   5.066   0.541   6.368  0.3485 -0.4218  0.8984
   64SAPC    HA 5150   4.978   0.598   6.330  0.0413  0.0228  2.2253
   64SAPC    HB 5151   5.026   0.448   6.414  1.0270 -0.2486  1.8677
   64SAPC    C2 5152   5.148   0.611   6.475  0.5884  0.2347 -0.4325
   64SAPC    HS 5153   5.185   0.706   6.430  0.7219  0.4238  0.0691
   64SAPC   O21 5154   5.256   0.526   6.520  0.1269  0.4363  0.0855
   64SAPC   C21 5155   5.351   0.588   6.585 -0.4311  0.0096  0.5530
   64SAPC   O22 5156   5.360   0.704   6.611 -0.1789  0.4517  0.1993
   64SAPC   C22 5157   5.448   0.480   6.641  0.2937 -0.5353 -0.3322
   64SAPC   H2R 5158   5.389   0.394   6.680  1.1814  0.1648  2.7990
   64SAPC   H2S 5159   5.516   0.451   6.558 -0.6551  1.2020 -1.8006
   64SAPC    C3 5160   5.060   0.647   6.592  0.4953 -0.0776 -0.1651
   64SAPC    HX 5161   4.983   0.720   6.560 -0.3174 -1.5033 -1.5810
   64SAPC    HY 5162   5.118   0.704   6.668  0.5481 -0.6374  0.2209
   64SAPC   O31 5163   4.984   0.542   6.650 -0.9696 -0.1067  0.1182
   64SAPC   C31 5164   4.958   0.558   6.777  0.9122  0.2054 -0.2370
   64SAPC   O32 5165   4.964   0.663   6.846 -0.5801  0.8959 -0.3490
   64SAPC   C32 5166   4.913   0.422   6.838 -0.6721 -0.1875 -0.2449
   64SAPC   H2X 5167   5.010   0.373   6.861 -0.5542 -0.5862 -1.4972
   64SAPC   H2Y 5168   4.865   0.360   6.759  2.1370 -2.3526 -0.4200
   64SAPC   C23 5169   5.524   0.539   6.761 -0.1548 -0.1489 -0.3911
   64SAPC   H3R 5170   5.546   0.647   6.748  2.8556 -0.6474 -0.2149
   64SAPC   H3S 5171   5.621   0.485   6.766 -1.9653 -3.6664  0.3616
   64SAPC   C24 5172   5.459   0.497   6.897  0.0942 -0.1616  0.5609
   64SAPC   H4R 5173   5.526   0.546   6.971 -0.2433  0.9275  0.1671
   64SAPC   H4S 5174   5.453   0.388   6.916 -1.5590  0.0592  1.4803
   64SAPC   C25 5175   5.321   0.549   6.917  0.6274  0.3645 -0.2811
   64SAPC   H5R 5176   5.288   0.630   6.851 -0.1833 -0.0881 -0.4426
   64SAPC   C26 5177   5.242   0.510   7.023 -0.7217 -0.4380 -0.3238
   64SAPC   H6R 5178   5.149   0.569   7.029  0.5543  1.5629  1.1200
   64SAPC   C27 5179   5.259   0.409   7.134  0.2010 -0.0475  0.0966
   64SAPC   H7R 5180   5.272   0.308   7.087 -1.6656  0.5197 -1.8063
   64SAPC   H7S 5181   5.159   0.402   7.181 -0.8974  1.2820 -1.8766
   64SAPC   C28 5182   5.372   0.446   7.226  0.9373 -0.3015  0.1852
   64SAPC   H8R 5183   5.424   0.542   7.217  0.1207  0.0536 -0.8767
   64SAPC   C29 5184   5.418   0.372   7.329  0.2943 -0.2536  0.2756
   64SAPC   H9R 5185   5.507   0.394   7.389 -0.4396  1.4035  0.8147
   64SAPC  C210 5186   5.365   0.246   7.375  0.4452 -0.3053  0.1757
   64SAPC  H10R 5187   5.439   0.165   7.389 -0.0836 -0.8907 -0.3596
   64SAPC  H10S 5188   5.314   0.197   7.290  1.6090  2.8954 -2.5935
   64SAPC  C211 5189   5.281   0.257   7.499 -0.5034  0.3119 -0.2744
   64SAPC  H11R 5190   5.176   0.272   7.472 -0.5620 -1.1015 -0.9074
   64SAPC  C212 5191   5.316   0.226   7.627  0.1181 -0.3058 -0.4042
   64SAPC  H12R 5192   5.235   0.247   7.698  0.0853  2.3876 -1.1074
   64SAPC  C213 5193   5.452   0.185   7.686 -0.1239 -0.0882  0.4790
   64SAPC  H13R 5194   5.529   0.187   7.606 -0.2341 -0.3483  0.3631
   64SAPC  H13S 5195   5.440   0.081   7.725  1.4676 -0.4398  0.1335
   64SAPC  C214 5196   5.507   0.270   7.800 -0.0926 -0.5411  0.4926
   64SAPC  H14R 5197   5.564   0.360   7.772  0.1227 -0.9750 -0.5189
   64SAPC  C215 5198   5.483   0.252   7.933  0.4734  0.5354 -0.0655
   64SAPC  H15R 5199   5.511   0.321   8.014 -0.6585 -0.5231  1.3010
   64SAPC  C216 5200   5.406   0.137   7.996 -0.3795  0.5901 -0.2107
   64SAPC  H16R 5201   5.397   0.045   7.933  1.3809 -0.1747  0.5934
   64SAPC  H16S 5202   5.301   0.163   8.022  0.0508  2.1359  0.0589
   64SAPC  C217 5203   5.461   0.084   8.131 -0.3451 -0.8759  0.2620
   64SAPC  H17R 5204   5.475   0.174   8.194 -0.9903 -0.2937 -0.3975
   64SAPC  H17S 5205   5.566   0.049   8.128  0.1640  0.5828 -0.4806
   64SAPC  C218 5206   5.373  -0.027   8.202 -0.3585  0.1907  0.4434
   64SAPC  H18R 5207   5.321  -0.094   8.131 -1.5410  0.7040  0.7973
   64SAPC  H18S 5208   5.301   0.033   8.262 -0.6359  2.1775 -1.7042
   64SAPC  C219 5209   5.448  -0.138   8.274  0.2262  0.1735 -0.7960
   64SAPC  H19R 5210   5.514  -0.088   8.347  1.4464 -2.2729 -0.0935
   64SAPC  H19S 5211   5.504  -0.206   8.206  0.6773 -0.5638  0.2769
   64SAPC  C220 5212   5.362  -0.230   8.365 -0.5644  0.7786  0.1759
   64SAPC  H20R 5213   5.435  -0.294   8.419 -0.8951  0.1841 -0.0741
   64SAPC  H20S 5214   5.300  -0.290   8.296 -0.9033  1.9326 -0.5577
   64SAPC  H20T 5215   5.301  -0.172   8.439 -0.3206  1.0465  0.1723
   64SAPC   C33 5216   4.820   0.446   6.953  0.3508 -0.1047 -0.3214
   64SAPC   H3X 5217   4.761   0.354   6.974  1.8772 -1.2791 -0.9809
   64SAPC   H3Y 5218   4.747   0.528   6.936  0.1446 -0.3649 -0.7086
   64SAPC   C34 5219   4.891   0.464   7.089 -0.5650 -0.6450 -0.1297
   64SAPC   H4X 5220   4.939   0.564   7.082 -0.7737 -0.5269  0.0970
   64SAPC   H4Y 5221   4.963   0.380   7.090  0.6069  0.3163  1.8074
   64SAPC   C35 5222   4.813   0.455   7.214  0.0332  0.7654 -0.0045
   64SAPC   H5X 5223   4.764   0.356   7.214  0.6183  0.4421  1.3233
   64SAPC   H5Y 5224   4.731   0.530   7.219 -1.3406 -0.6521 -0.7059
   64SAPC   C36 5225   4.898   0.469   7.343 -0.6537 -0.2943 -1.5987
   64SAPC   H6X 5226   4.905   0.575   7.374 -2.3440 -1.0466  1.8514
   64SAPC   H6Y 5227   4.999   0.427   7.323 -0.2964 -1.2031  1.5464
   64SAPC   C37 5228   4.833   0.405   7.469 -0.8632  0.4909  0.5124
   64SAPC   H7X 5229   4.899   0.407   7.558 -1.2551 -1.7860  0.9360
   64SAPC   H7Y 5230   4.818   0.296   7.452 -1.5851  0.6465  0.0608
   64SAPC   C38 5231   4.706   0.478   7.510  0.3911  0.2588  0.2689
   64SAPC   H8X 5232   4.639   0.505   7.425  2.0776  1.6368 -0.6979
   64SAPC   H8Y 5233   4.735   0.575   7.556 -1.9622 -0.7392  4.3108
   64SAPC   C39 5234   4.629   0.400   7.615 -0.6008 -0.4337 -1.5704
   64SAPC   H9X 5235   4.627   0.292   7.587  3.0843 -1.1646  0.4021
   64SAPC   H9Y 5236   4.525   0.440   7.607 -0.0062  1.2044 -1.3267
   64SAPC  C310 5237   4.672   0.439   7.757  0.4010  0.6494  1.0693
   64SAPC  H10X 5238   4.680   0.546   7.788 -2.3231  0.5560  2.3975
   64SAPC  H10Y 5239   4.775   0.399   7.772  0.6824 -0.3864 -2.7910
   64SAPC  C311 5240   4.588   0.381   7.867  0.7541 -0.0545 -0.5411
   64SAPC  H11X 5241   4.582   0.271   7.858 -1.1661 -0.0051 -0.2543
   64SAPC  H11Y 5242   4.486   0.425   7.852 -0.0343 -0.9002  1.9207
   64SAPC  C312 5243   4.641   0.419   8.013 -0.9255  0.0566  1.0733
   64SAPC  H12X 5244   4.697   0.514   7.999  0.3028 -0.8227 -0.2062
   64SAPC  H12Y 5245   4.715   0.337   8.027 -0.7686  0.0381  0.1461
   64SAPC  C313 5246   4.538   0.431   8.119  0.0580  0.1652  0.4552
   64SAPC  H13X 5247   4.477   0.338   8.116 -0.8136  0.7467 -2.0800
   64SAPC  H13Y 5248   4.462   0.506   8.087  0.7639  0.7347  0.0827
   64SAPC  C314 5249   4.583   0.472   8.260 -0.3897 -0.3432  0.7036
   64SAPC  H14X 5250   4.676   0.412   8.276  0.3222  0.4172 -0.4302
   64SAPC  H14Y 5251   4.514   0.436   8.339  0.6033 -1.2781  1.1855
   64SAPC  C315 5252   4.593   0.630   8.266  0.4393  0.1915  0.2666
   64SAPC  H15X 5253   4.494   0.679   8.275  1.0469  1.3353  1.0236
   64SAPC  H15Y 5254   4.642   0.662   8.171  1.2241 -0.0910  0.5639
   64SAPC  C316 5255   4.686   0.674   8.382  0.0567  0.1809  0.4020
   64SAPC  H16X 5256   4.703   0.784   8.372  1.9469 -0.0776  0.3481
   64SAPC  H16Y 5257   4.788   0.630   8.375  0.2927  0.9286 -1.8267
   64SAPC  C317 5258   4.639   0.644   8.527  0.0868  0.0150  0.3960
   64SAPC  H17X 5259   4.628   0.534   8.538 -0.5798  0.0521  0.1183
   64SAPC  H17Y 5260   4.546   0.699   8.554  0.4197  0.3255  0.9416
   64SAPC  C318 5261   4.747   0.690   8.627 -0.3560 -0.0943 -0.4428
   64SAPC  H18X 5262   4.769   0.798   8.635 -1.9353  0.1985  0.2136
   64SAPC  H18Y 5263   4.835   0.636   8.585 -0.7636 -1.9046  0.9156
   64SAPC  H18Z 5264   4.727   0.656   8.731 -1.3046 -0.8729 -0.8702
   65SAPC     N 5265   4.174   2.547   6.026 -0.4413 -0.3308  0.2369
   65SAPC   C12 5266   4.114   2.476   6.144  0.2291 -0.3707 -0.1402
   65SAPC  H12A 5267   4.124   2.533   6.235 -2.4209  2.8051 -1.6113
   65SAPC  H12B 5268   4.164   2.382   6.162 -0.5232 -0.9252 -0.8796
   65SAPC   C13 5269   4.112   2.678   6.012  0.1549  0.2378  0.2426
   65SAPC  H13A 5270   4.008   2.667   5.986  0.6868 -0.5677 -1.7576
   65SAPC  H13B 5271   4.114   2.731   6.106  2.0665  0.0061  0.3805
   65SAPC  H13C 5272   4.155   2.743   5.937  1.7378  0.6536  1.4590
   65SAPC   C14 5273   4.321   2.575   6.049 -0.0370  0.1931  0.8266
   65SAPC  H14A 5274   4.377   2.488   6.079 -3.5619 -3.0403 -1.1083
   65SAPC  H14B 5275   4.368   2.617   5.961  0.1989 -0.5669  0.5794
   65SAPC  H14C 5276   4.333   2.652   6.123  2.9984 -0.6792  1.3666
   65SAPC   C15 5277   4.160   2.466   5.908 -0.2167 -0.6548  0.9199
   65SAPC  H15A 5278   4.205   2.512   5.822  0.5836  2.0407  2.6492
   65SAPC  H15B 5279   4.209   2.370   5.908 -0.6371 -0.8998  2.4793
   65SAPC  H15C 5280   4.059   2.446   5.876 -1.1123  3.5598  0.5499
   65SAPC   C11 5281   3.954   2.441   6.138  0.4537  0.1868 -0.4107
   65SAPC  H11A 5282   3.899   2.538   6.137 -0.4236 -0.2919 -2.4185
   65SAPC  H11B 5283   3.921   2.412   6.240 -0.4756  2.9051  0.1537
   65SAPC     P 5284   3.934   2.197   6.038  0.0525 -0.3912 -0.3251
   65SAPC   O13 5285   3.810   2.135   5.983  0.3109  0.4531  0.4693
   65SAPC   O14 5286   4.059   2.155   5.977  0.2704 -0.1088  0.2567
   65SAPC   O12 5287   3.909   2.348   6.035  0.1122 -0.0165 -0.5316
   65SAPC   O11 5288   3.952   2.175   6.187 -0.0898  0.3392  0.1903
   65SAPC    C1 5289   3.846   2.140   6.274  1.1970 -0.0587 -0.6441
   65SAPC    HA 5290   3.825   2.228   6.339  1.2748 -1.1206  0.8763
   65SAPC    HB 5291   3.755   2.112   6.218  0.2697 -1.0038  1.2180
   65SAPC    C2 5292   3.877   2.014   6.367  0.5992  0.0488 -0.0961
   65SAPC    HS 5293   3.791   1.989   6.433  1.2672 -0.4790  0.6051
   65SAPC   O21 5294   3.989   2.044   6.451 -0.2093  0.0553  0.1516
   65SAPC   C21 5295   3.953   2.126   6.555 -0.2252  0.1067 -0.0416
   65SAPC   O22 5296   3.838   2.161   6.571  0.2889  0.2308  0.7437
   65SAPC   C22 5297   4.074   2.140   6.647  0.3006  0.2187  0.4536
   65SAPC   H2R 5298   4.127   2.045   6.625  0.7436  0.7394 -0.7774
   65SAPC   H2S 5299   4.133   2.231   6.623 -1.3391  1.7054  1.7900
   65SAPC    C3 5300   3.914   1.900   6.273  0.5934  0.1881 -0.3562
   65SAPC    HX 5301   4.014   1.921   6.228  0.9584 -0.4593  0.1494
   65SAPC    HY 5302   3.840   1.884   6.191  0.5042 -0.6455 -0.1183
   65SAPC   O31 5303   3.912   1.774   6.337  0.1527 -0.4945 -0.1476
   65SAPC   C31 5304   4.019   1.740   6.408  0.1893 -0.2083  0.5017
   65SAPC   O32 5305   4.127   1.797   6.409 -0.2271  0.4446  0.5958
   65SAPC   C32 5306   4.003   1.612   6.492  0.4245  0.1349  0.1075
   65SAPC   H2X 5307   4.102   1.561   6.497  0.9918  1.1910 -0.1775
   65SAPC   H2Y 5308   3.920   1.551   6.450  0.7534 -0.3896  0.1984
   65SAPC   C23 5309   4.027   2.125   6.795 -1.0039  0.4478  0.1937
   65SAPC   H3R 5310   4.127   2.128   6.844 -1.2710 -0.4993  0.8345
   65SAPC   H3S 5311   3.973   2.030   6.816 -1.0626  0.4427  0.0163
   65SAPC   C24 5312   3.958   2.250   6.837  0.7258 -0.0213  0.5719
   65SAPC   H4R 5313   3.855   2.267   6.798  0.8813  2.1084  0.9845
   65SAPC   H4S 5314   4.011   2.341   6.800  1.4234 -1.6702 -2.9263
   65SAPC   C25 5315   3.937   2.240   6.985 -0.3622  0.7519  0.4787
   65SAPC   H5R 5316   3.870   2.157   7.012  0.9373 -0.0862  1.2742
   65SAPC   C26 5317   4.012   2.294   7.083 -0.0029  0.0766  0.1961
   65SAPC   H6R 5318   3.986   2.275   7.188 -1.2493 -2.5120 -0.5066
   65SAPC   C27 5319   4.132   2.385   7.065 -0.5648  0.1588  0.3209
   65SAPC   H7R 5320   4.114   2.473   7.130 -0.9179 -0.2247  0.7435
   65SAPC   H7S 5321   4.138   2.421   6.960  0.9838  0.7355  0.5784
   65SAPC   C28 5322   4.258   2.317   7.114 -0.0464 -0.0405  0.3691
   65SAPC   H8R 5323   4.308   2.253   7.040 -3.0629 -0.6630 -1.2579
   65SAPC   C29 5324   4.314   2.330   7.237 -0.0913  0.5634  0.0071
   65SAPC   H9R 5325   4.411   2.283   7.258  0.9653  2.3037 -0.7625
   65SAPC  C210 5326   4.253   2.413   7.353  0.4951  0.3508  0.3273
   65SAPC  H10R 5327   4.146   2.430   7.333  0.3722 -0.8300 -0.0920
   65SAPC  H10S 5328   4.312   2.507   7.347  0.7139  0.1553 -0.7900
   65SAPC  C211 5329   4.250   2.348   7.487 -0.7148 -0.1267 -0.0655
   65SAPC  H11R 5330   4.211   2.245   7.484  2.6301 -1.6596  2.5798
   65SAPC  C212 5331   4.298   2.416   7.597  0.8438  0.9511 -0.5903
   65SAPC  H12R 5332   4.311   2.363   7.693  0.4801  3.4607  0.9231
   65SAPC  C213 5333   4.355   2.556   7.598  0.2931 -0.1589  0.5043
   65SAPC  H13R 5334   4.289   2.627   7.544  1.5133  0.5196 -0.1237
   65SAPC  H13S 5335   4.443   2.555   7.530 -0.8468  2.4971 -1.1787
   65SAPC  C214 5336   4.393   2.612   7.732 -0.1593  0.5631 -0.4127
   65SAPC  H14R 5337   4.329   2.571   7.811 -1.0042 -0.9854 -1.8300
   65SAPC  C215 5338   4.482   2.712   7.746  0.0608  0.2737 -0.0347
   65SAPC  H15R 5339   4.509   2.743   7.848  0.2552 -2.0660  0.6868
   65SAPC  C216 5340   4.547   2.784   7.634 -0.5326 -0.3061  0.4465
   65SAPC  H16R 5341   4.472   2.839   7.572  2.3656  2.3196 -1.0024
   65SAPC  H16S 5342   4.606   2.717   7.568  0.8584  0.4161  0.9233
   65SAPC  C217 5343   4.646   2.895   7.679  0.0790  0.1576 -0.1086
   65SAPC  H17R 5344   4.592   2.956   7.755 -0.2423  0.7366 -0.7951
   65SAPC  H17S 5345   4.692   2.969   7.610 -2.2419  1.5503 -0.3048
   65SAPC  C218 5346   4.758   2.841   7.764 -0.3159 -0.0693 -0.4705
   65SAPC  H18R 5347   4.718   2.804   7.861 -0.4973  0.4986 -0.3191
   65SAPC  H18S 5348   4.824   2.930   7.778  1.2270 -0.5678 -3.6368
   65SAPC  C219 5349   4.851   2.740   7.700  0.4354  0.6383 -0.3163
   65SAPC  H19R 5350   4.811   2.639   7.678  0.9906  0.4059 -0.2896
   65SAPC  H19S 5351   4.931   2.724   7.776 -0.4631 -0.5692  0.4081
   65SAPC  C220 5352   4.911   2.801   7.576  0.9850  1.0284 -0.3719
   65SAPC  H20R 5353   4.974   2.730   7.520 -0.5085 -0.2032 -0.5349
   65SAPC  H20S 5354   4.978   2.882   7.613 -0.6483  2.7339 -1.0054
   65SAPC  H20T 5355   4.849   2.851   7.499 -0.5593  0.0947  0.2205
   65SAPC   C33 5356   3.958   1.652   6.634  0.8851  0.3457  0.0514
   65SAPC   H3X 5357   3.902   1.567   6.678 -0.2274  0.3966 -1.2082
   65SAPC   H3Y 5358   3.883   1.733   6.621  0.3542  0.3005  2.3825
   65SAPC   C34 5359   4.082   1.698   6.724 -0.0370  0.5006 -0.5194
   65SAPC   H4X 5360   4.137   1.782   6.676  0.5800 -0.2892 -1.2280
   65SAPC   H4Y 5361   4.155   1.615   6.739  1.6706  2.0697  0.3016
   65SAPC   C35 5362   4.021   1.739   6.860  1.2501  0.2511 -0.7359
   65SAPC   H5X 5363   3.968   1.654   6.909  1.2545  1.5630  1.7094
   65SAPC   H5Y 5364   3.951   1.821   6.833 -0.4478 -0.1689  2.0321
   65SAPC   C36 5365   4.120   1.799   6.959  0.4254  0.6514 -0.1323
   65SAPC   H6X 5366   4.142   1.901   6.920 -2.4287  0.4903 -2.4114
   65SAPC   H6Y 5367   4.213   1.739   6.947  0.3295 -0.2818  2.8257
   65SAPC   C37 5368   4.061   1.801   7.101 -0.4473 -0.1210  0.5750
   65SAPC   H7X 5369   4.051   1.696   7.135  1.0408 -1.8360 -3.6689
   65SAPC   H7Y 5370   3.961   1.848   7.089 -0.7784 -0.5639  1.4983
   65SAPC   C38 5371   4.151   1.893   7.186 -1.0327 -0.7634  0.0831
   65SAPC   H8X 5372   4.189   1.981   7.130 -2.1696 -0.6030 -0.4669
   65SAPC   H8Y 5373   4.240   1.827   7.200 -0.7784 -0.1880  1.3859
   65SAPC   C39 5374   4.108   1.931   7.336 -0.5555  0.0558  0.1813
   65SAPC   H9X 5375   4.055   1.841   7.375  1.4455 -1.5867 -0.6424
   65SAPC   H9Y 5376   4.037   2.015   7.324 -0.9870 -0.1755  1.0222
   65SAPC  C310 5377   4.221   1.953   7.432  0.1146 -0.1144 -0.0730
   65SAPC  H10X 5378   4.275   2.048   7.413  3.1274 -1.0692  2.7425
   65SAPC  H10Y 5379   4.299   1.875   7.415  0.0147 -0.1693 -0.2897
   65SAPC  C311 5380   4.190   1.950   7.576 -0.4989 -0.7704 -0.2323
   65SAPC  H11X 5381   4.112   1.871   7.587  0.0789 -1.2326  0.7108
   65SAPC  H11Y 5382   4.142   2.048   7.601 -0.2309 -0.3051 -1.4756
   65SAPC  C312 5383   4.317   1.931   7.667  0.0908 -0.0708 -0.6000
   65SAPC  H12X 5384   4.394   2.005   7.635 -1.0037  1.6069  0.5009
   65SAPC  H12Y 5385   4.368   1.832   7.666 -2.0247 -1.2129 -0.4704
   65SAPC  C313 5386   4.289   1.949   7.815  0.3260 -0.2942 -0.4900
   65SAPC  H13X 5387   4.230   1.867   7.860  2.4159 -1.4474  0.2660
   65SAPC  H13Y 5388   4.234   2.046   7.814  1.5261  0.4086 -0.8357
   65SAPC  C314 5389   4.412   1.971   7.909 -0.1305 -0.7320 -0.0620
   65SAPC  H14X 5390   4.470   2.055   7.865  1.8811 -1.4401  1.1299
   65SAPC  H14Y 5391   4.485   1.888   7.906  0.2345 -0.4636  1.0273
   65SAPC  C315 5392   4.381   1.982   8.062 -0.4183  0.2858 -0.1443
   65SAPC  H15X 5393   4.383   1.884   8.115 -0.3749  0.4672  0.1907
   65SAPC  H15Y 5394   4.279   2.023   8.073  0.0559  1.6540 -0.5972
   65SAPC  C316 5395   4.474   2.075   8.138  0.8147  0.0985 -0.0624
   65SAPC  H16X 5396   4.477   2.172   8.083  1.0675  0.5194  0.6893
   65SAPC  H16Y 5397   4.574   2.029   8.134  0.2203 -1.1633 -1.2007
   65SAPC  C317 5398   4.424   2.096   8.288  0.0124 -0.1401  0.1662
   65SAPC  H17X 5399   4.419   1.998   8.339 -0.0840 -0.2366 -0.0235
   65SAPC  H17Y 5400   4.321   2.138   8.277 -1.0412 -2.3596  0.8440
   65SAPC  C318 5401   4.507   2.198   8.367  0.2515 -0.4716 -0.0086
   65SAPC  H18X 5402   4.448   2.234   8.453 -0.2940  0.6910 -0.8397
   65SAPC  H18Y 5403   4.528   2.281   8.296 -0.3653  0.6024  1.0450
   65SAPC  H18Z 5404   4.606   2.157   8.396  0.9233  1.9728  1.4665
   66SAPC     N 5405   3.298   0.778   5.872  0.3670 -0.2812  0.0736
   66SAPC   C12 5406   3.254   0.906   5.944  0.9172 -0.5349 -0.1699
   66SAPC  H12A 5407   3.147   0.906   5.956  0.9049  2.5012  0.3470
   66SAPC  H12B 5408   3.286   0.988   5.881 -1.9586  0.5240 -0.4147
   66SAPC   C13 5409   3.439   0.783   5.832 -0.5842 -0.5715  0.6652
   66SAPC  H13A 5410   3.472   0.698   5.774 -0.7159  0.3461 -0.7764
   66SAPC  H13B 5411   3.456   0.868   5.768 -2.2592 -0.7146 -0.0112
   66SAPC  H13C 5412   3.505   0.789   5.918 -0.6500  1.1983  0.6271
   66SAPC   C14 5413   3.271   0.655   5.954 -0.2033  0.0011  1.2093
   66SAPC  H14A 5414   3.311   0.574   5.894 -2.1326  0.9044 -1.4700
   66SAPC  H14B 5415   3.330   0.658   6.044  0.0828 -1.0342  1.0754
   66SAPC  H14C 5416   3.166   0.647   5.978 -0.5272 -0.0452 -0.1502
   66SAPC   C15 5417   3.215   0.758   5.753  0.2029 -0.2757 -0.0322
   66SAPC  H15A 5418   3.227   0.842   5.686 -1.4254 -0.6784 -0.8727
   66SAPC  H15B 5419   3.254   0.671   5.702 -1.5282 -1.2481  0.2200
   66SAPC  H15C 5420   3.112   0.748   5.782 -0.2175  3.0978  0.0705
   66SAPC   C11 5421   3.314   0.926   6.086 -0.0597  0.8613 -0.3451
   66SAPC  H11A 5422   3.282   0.834   6.138 -0.1767  1.8560  1.4331
   66SAPC  H11B 5423   3.267   1.021   6.120 -0.9622  0.0155  0.8501
   66SAPC     P 5424   3.540   1.077   6.043  0.4910  0.0867  0.2309
   66SAPC   O13 5425   3.680   1.030   6.042 -0.5384 -0.0490 -0.1534
   66SAPC   O14 5426   3.501   1.138   5.914  0.6652 -0.3630 -0.2904
   66SAPC   O12 5427   3.456   0.944   6.082 -0.2607 -0.1211 -0.4843
   66SAPC   O11 5428   3.528   1.189   6.164 -0.4309 -0.1693  0.1459
   66SAPC    C1 5429   3.497   1.155   6.297 -0.6030  0.1663  0.4999
   66SAPC    HA 5430   3.458   1.253   6.334  2.2003  1.1689  1.0470
   66SAPC    HB 5431   3.418   1.077   6.302  1.3278 -1.9260 -0.0155
   66SAPC    C2 5432   3.634   1.134   6.380  1.0396 -0.8910  0.2442
   66SAPC    HS 5433   3.681   1.036   6.356 -0.8974 -1.1496 -3.1013
   66SAPC   O21 5434   3.601   1.149   6.521 -0.1189  0.1230  0.2630
   66SAPC   C21 5435   3.532   1.046   6.570  0.2839  0.0641 -0.1628
   66SAPC   O22 5436   3.526   0.933   6.522  0.6815  0.0902 -0.5679
   66SAPC   C22 5437   3.489   1.074   6.712  0.2670  0.2294 -1.0944
   66SAPC   H2R 5438   3.590   1.096   6.753 -0.6887  2.0066  0.4983
   66SAPC   H2S 5439   3.428   1.167   6.719  0.9665  0.5824  0.8341
   66SAPC    C3 5440   3.739   1.244   6.334  0.4091  0.1820 -0.6421
   66SAPC    HX 5441   3.694   1.346   6.341  2.4288  1.2144 -1.5321
   66SAPC    HY 5442   3.759   1.212   6.230  0.2403  0.0392 -0.6305
   66SAPC   O31 5443   3.850   1.247   6.416 -0.7316  0.1470 -0.4730
   66SAPC   C31 5444   3.927   1.139   6.426  0.0757 -0.6306 -0.4398
   66SAPC   O32 5445   3.929   1.043   6.357 -0.7484  0.1940 -0.4207
   66SAPC   C32 5446   4.023   1.159   6.543 -0.2812 -0.2393  0.6794
   66SAPC   H2X 5447   3.975   1.232   6.612 -0.7864  0.1903 -0.1150
   66SAPC   H2Y 5448   4.111   1.212   6.501 -0.4787 -0.1872  0.3279
   66SAPC   C23 5449   3.436   0.953   6.789  0.3653  0.5954 -0.2165
   66SAPC   H3R 5450   3.506   0.867   6.782 -1.0787 -0.4808 -3.3503
   66SAPC   H3S 5451   3.337   0.920   6.751  0.9688 -0.2472 -1.1021
   66SAPC   C24 5452   3.407   0.977   6.939  0.0866  0.3220 -0.9084
   66SAPC   H4R 5453   3.383   0.882   6.992  0.0394  2.3556  3.1557
   66SAPC   H4S 5454   3.316   1.040   6.943 -0.3743 -0.3025 -1.2683
   66SAPC   C25 5455   3.518   1.045   7.020  0.5432 -0.1160  0.2094
   66SAPC   H5R 5456   3.539   1.145   6.980  0.8198 -0.8080 -1.5133
   66SAPC   C26 5457   3.580   1.004   7.135  0.7878  0.2265  0.7821
   66SAPC   H6R 5458   3.667   1.059   7.173  0.2595  1.0056  0.8729
   66SAPC   C27 5459   3.561   0.886   7.221 -0.2299 -0.0800  0.3625
   66SAPC   H7R 5460   3.662   0.872   7.265  1.1727  2.9668 -1.5739
   66SAPC   H7S 5461   3.538   0.809   7.145 -1.7408  0.5626  0.1382
   66SAPC   C28 5462   3.445   0.913   7.314  0.1365 -0.5261 -0.1214
   66SAPC   H8R 5463   3.352   0.957   7.275 -1.0523 -2.9128 -0.1713
   66SAPC   C29 5464   3.438   0.893   7.448  0.4151 -0.3756 -0.2119
   66SAPC   H9R 5465   3.342   0.906   7.501  0.0616 -2.1756 -0.3276
   66SAPC  C210 5466   3.545   0.850   7.547  1.0635  0.0026 -0.4144
   66SAPC  H10R 5467   3.625   0.926   7.558  0.2427  0.6401  1.5697
   66SAPC  H10S 5468   3.602   0.761   7.514 -0.6802 -1.0789 -0.6114
   66SAPC  C211 5469   3.475   0.799   7.673 -0.0827  0.5420  0.6767
   66SAPC  H11R 5470   3.454   0.691   7.664  1.1325  0.4811 -3.0079
   66SAPC  C212 5471   3.432   0.876   7.779 -0.3082  0.7993 -0.0160
   66SAPC  H12R 5472   3.377   0.821   7.857  0.9604  1.3643  1.3113
   66SAPC  C213 5473   3.441   1.029   7.797 -0.5494 -0.1196  0.1544
   66SAPC  H13R 5474   3.479   1.083   7.707  0.1317  0.8576  1.0020
   66SAPC  H13S 5475   3.526   1.058   7.863  1.0078 -1.2545 -1.2681
   66SAPC  C214 5476   3.306   1.066   7.842  0.4534  0.3429  0.8026
   66SAPC  H14R 5477   3.243   1.110   7.763 -1.4495 -0.0285  2.0699
   66SAPC  C215 5478   3.252   1.062   7.966 -0.1430  0.1076  0.6645
   66SAPC  H15R 5479   3.155   1.102   7.996  0.0990  0.4718  0.9783
   66SAPC  C216 5480   3.327   1.010   8.089 -0.1129 -1.3105  0.2079
   66SAPC  H16R 5481   3.431   0.978   8.068  0.2610  0.2214 -0.4121
   66SAPC  H16S 5482   3.282   0.924   8.142  0.4085 -1.0201  1.1395
   66SAPC  C217 5483   3.330   1.128   8.199 -0.1795  0.2547 -0.1380
   66SAPC  H17R 5484   3.227   1.155   8.229 -0.1063 -0.0264  0.3705
   66SAPC  H17S 5485   3.370   1.221   8.154 -0.8475 -0.6061 -2.7095
   66SAPC  C218 5486   3.414   1.100   8.328 -0.1392  0.2682  0.6541
   66SAPC  H18R 5487   3.521   1.118   8.303  0.1898 -1.8731  0.3397
   66SAPC  H18S 5488   3.398   0.993   8.355  0.3201 -0.5102 -1.8251
   66SAPC  C219 5489   3.391   1.194   8.454 -0.1208  0.8272 -1.1222
   66SAPC  H19R 5490   3.461   1.166   8.536  1.8851  0.1640 -2.9466
   66SAPC  H19S 5491   3.285   1.184   8.483 -0.1914  0.1564 -1.6056
   66SAPC  C220 5492   3.409   1.336   8.410  0.6159  0.5036 -0.1480
   66SAPC  H20R 5493   3.503   1.340   8.352 -1.0942  1.2646 -3.0554
   66SAPC  H20S 5494   3.422   1.413   8.489 -1.0886  2.5095 -1.7058
   66SAPC  H20T 5495   3.334   1.376   8.339  1.1929  3.5551  0.8347
   66SAPC   C33 5496   4.072   1.029   6.608 -0.1446 -0.0085 -0.3191
   66SAPC   H3X 5497   4.144   1.067   6.684 -0.8076  1.7521 -0.5139
   66SAPC   H3Y 5498   4.131   0.984   6.525  1.6893  0.0612  0.8781
   66SAPC   C34 5499   3.966   0.937   6.669 -0.5931 -0.2178 -0.1453
   66SAPC   H4X 5500   4.028   0.859   6.719  0.3776 -1.1563 -2.6580
   66SAPC   H4Y 5501   3.907   0.879   6.595  0.1545 -1.4827  0.2132
   66SAPC   C35 5502   3.876   0.991   6.780 -0.8709  0.6215  0.3034
   66SAPC   H5X 5503   3.810   0.917   6.829 -1.9074  0.8897 -0.6426
   66SAPC   H5Y 5504   3.814   1.063   6.722  0.6414  0.9266 -1.0010
   66SAPC   C36 5505   3.946   1.069   6.894  0.1418 -0.6276 -0.1083
   66SAPC   H6X 5506   3.870   1.110   6.964 -0.0405  0.7018 -1.0360
   66SAPC   H6Y 5507   4.001   1.155   6.850  0.2958 -0.8674 -0.3874
   66SAPC   C37 5508   4.041   0.977   6.977 -0.7346 -0.4379  0.2457
   66SAPC   H7X 5509   4.121   0.950   6.905 -2.2573 -1.5513 -1.0880
   66SAPC   H7Y 5510   3.987   0.881   6.986  2.2927 -2.1867  1.2166
   66SAPC   C38 5511   4.090   1.033   7.108  0.1573  0.7543  0.2461
   66SAPC   H8X 5512   4.122   1.138   7.090  3.8174 -0.6486 -2.7378
   66SAPC   H8Y 5513   4.180   0.975   7.138  0.5488  1.5716  0.6754
   66SAPC   C39 5514   3.992   1.019   7.225  0.1842  0.3590  0.1116
   66SAPC   H9X 5515   3.958   0.917   7.250  2.1784  0.1489  2.3499
   66SAPC   H9Y 5516   3.908   1.089   7.205 -3.0836 -3.3407 -0.2614
   66SAPC  C310 5517   4.043   1.057   7.363 -0.6862 -0.2982 -0.3115
   66SAPC  H10X 5518   4.101   1.151   7.354 -0.0891 -0.6748 -0.4451
   66SAPC  H10Y 5519   4.118   0.984   7.400  1.6206  2.0754 -0.0670
   66SAPC  C311 5520   3.939   1.072   7.480 -0.1602  0.4516 -0.7230
   66SAPC  H11X 5521   3.873   0.984   7.466 -0.7127  1.0984 -2.5051
   66SAPC  H11Y 5522   3.875   1.162   7.467 -0.9311  0.5026  2.5979
   66SAPC  C312 5523   4.003   1.078   7.618 -0.1413  0.0284  0.2990
   66SAPC  H12X 5524   4.058   1.174   7.629 -2.7388  1.4976  1.5010
   66SAPC  H12Y 5525   4.073   0.992   7.622  1.4755  1.2519 -0.4615
   66SAPC  C313 5526   3.891   1.071   7.732 -0.8553  0.2623  0.3161
   66SAPC  H13X 5527   3.845   0.971   7.721 -0.4688  0.0887  0.2581
   66SAPC  H13Y 5528   3.826   1.159   7.714 -0.7500  0.1986 -0.4121
   66SAPC  C314 5529   3.975   1.080   7.862  0.1862  0.0414 -0.1487
   66SAPC  H14X 5530   4.024   1.180   7.871 -1.8428  1.1446 -0.7219
   66SAPC  H14Y 5531   4.064   1.014   7.851  0.7892  1.1656 -3.0542
   66SAPC  C315 5532   3.903   1.060   7.994  0.1534 -0.2354  0.2656
   66SAPC  H15X 5533   3.881   0.952   8.013 -0.0453 -0.4491 -1.0816
   66SAPC  H15Y 5534   3.800   1.100   7.984  0.1233 -0.5080 -0.6197
   66SAPC  C316 5535   3.967   1.125   8.118  0.2193  0.8155 -0.3610
   66SAPC  H16X 5536   3.987   1.233   8.106  1.4423  0.6903  0.4324
   66SAPC  H16Y 5537   4.064   1.077   8.144  1.0034  1.7315 -1.5078
   66SAPC  C317 5538   3.884   1.111   8.248  0.3492  0.1230 -0.1212
   66SAPC  H17X 5539   3.867   1.009   8.289 -1.1039  1.3969  2.7582
   66SAPC  H17Y 5540   3.784   1.157   8.231  0.7105  0.4667 -1.5060
   66SAPC  C318 5541   3.955   1.199   8.355 -0.9151 -0.2691  0.2903
   66SAPC  H18X 5542   3.999   1.289   8.305  3.4869 -1.6870  1.2081
   66SAPC  H18Y 5543   4.049   1.156   8.393 -0.3301 -1.0793 -1.9065
   66SAPC  H18Z 5544   3.888   1.220   8.441 -1.3515 -0.3456 -0.0226
   67SAPC     N 5545   5.761   3.357   6.391 -0.0108  0.0044 -0.7692
   67SAPC   C12 5546   5.912   3.366   6.392  0.2830 -0.1858 -0.7360
   67SAPC  H12A 5547   5.949   3.467   6.386  3.6357 -1.3459 -1.6282
   67SAPC  H12B 5548   5.940   3.328   6.295 -0.0743 -0.1861 -0.8409
   67SAPC   C13 5549   5.716   3.215   6.387  0.4516  0.0735 -0.2624
   67SAPC  H13A 5550   5.763   3.162   6.305 -2.9340 -0.8584 -1.7935
   67SAPC  H13B 5551   5.739   3.172   6.483  2.2173  0.0172 -0.6786
   67SAPC  H13C 5552   5.608   3.207   6.377  0.1454  0.4936  2.1506
   67SAPC   C14 5553   5.704   3.413   6.514 -0.0375  0.5179 -0.1014
   67SAPC  H14A 5554   5.676   3.517   6.511 -3.2706 -0.2393 -1.5562
   67SAPC  H14B 5555   5.605   3.372   6.527 -0.3006  1.3715  0.7057
   67SAPC  H14C 5556   5.767   3.403   6.600 -0.8143  3.6734  0.9825
   67SAPC   C15 5557   5.699   3.439   6.286 -0.2911 -0.9922  0.6738
   67SAPC  H15A 5558   5.592   3.444   6.301 -0.1113 -1.9785  2.5719
   67SAPC  H15B 5559   5.740   3.538   6.295 -1.8805 -0.3128  0.8143
   67SAPC  H15C 5560   5.715   3.408   6.184 -0.1587  1.4244 -0.1092
   67SAPC   C11 5561   5.994   3.298   6.510  0.4493 -0.4190  0.8530
   67SAPC  H11A 5562   5.963   3.349   6.603  0.1256 -0.2551  0.6588
   67SAPC  H11B 5563   6.103   3.311   6.492  0.8149 -0.6183  2.7402
   67SAPC     P 5564   6.050   3.062   6.437  0.0302  0.0875 -0.0685
   67SAPC   O13 5565   6.020   2.919   6.466  0.4844 -0.5423  0.0146
   67SAPC   O14 5566   6.026   3.095   6.295 -0.4372 -0.3105  0.5735
   67SAPC   O12 5567   5.957   3.163   6.518 -0.3516  0.2856  0.1393
   67SAPC   O11 5568   6.199   3.104   6.471  0.7111  0.0308  0.8007
   67SAPC    C1 5569   6.250   3.048   6.595  0.1153 -0.7037 -0.2993
   67SAPC    HA 5570   6.265   2.938   6.586  0.2306 -0.8464  1.3194
   67SAPC    HB 5571   6.355   3.082   6.608  0.4998 -2.0327  0.1958
   67SAPC    C2 5572   6.176   3.085   6.722 -0.2352 -0.4067  0.0865
   67SAPC    HS 5573   6.068   3.062   6.710 -0.6196  0.4062  1.6263
   67SAPC   O21 5574   6.190   3.229   6.756  0.5854 -0.1800  0.3918
   67SAPC   C21 5575   6.090   3.294   6.820  0.0093  0.4070 -0.2272
   67SAPC   O22 5576   5.987   3.239   6.859 -0.5515 -0.1534  0.3399
   67SAPC   C22 5577   6.132   3.433   6.833  0.0105 -0.5226 -0.1360
   67SAPC   H2R 5578   6.211   3.454   6.908 -0.2054 -1.1413  0.2689
   67SAPC   H2S 5579   6.193   3.469   6.747  1.1977 -0.4245  0.7150
   67SAPC    C3 5580   6.222   2.995   6.845 -0.5699  0.0795  0.2464
   67SAPC    HX 5581   6.329   3.020   6.854 -0.5953 -0.4707  2.3855
   67SAPC    HY 5582   6.215   2.893   6.801  0.5624  0.0501  0.1250
   67SAPC   O31 5583   6.155   3.014   6.972 -0.6091 -0.1723  0.3557
   67SAPC   C31 5584   6.039   2.952   6.987 -0.8723  0.8236 -0.2931
   67SAPC   O32 5585   5.982   2.907   6.887  0.1437 -0.0085  0.4635
   67SAPC   C32 5586   6.006   2.935   7.135 -0.2710  0.1600 -0.4604
   67SAPC   H2X 5587   5.948   2.841   7.147 -1.3041  0.5338 -2.2266
   67SAPC   H2Y 5588   5.924   3.008   7.153 -0.0337  0.6640 -1.3603
   67SAPC   C23 5589   6.013   3.534   6.863  0.9078  0.1186  1.1856
   67SAPC   H3R 5590   5.942   3.534   6.778  1.6109  4.7058  0.3246
   67SAPC   H3S 5591   6.063   3.634   6.855  0.0217  0.6164  1.7860
   67SAPC   C24 5592   5.953   3.515   6.995 -0.1837  0.3637  0.0284
   67SAPC   H4R 5593   6.022   3.560   7.070  1.6142 -2.0872 -0.0385
   67SAPC   H4S 5594   5.957   3.412   7.037 -2.0351  1.2029  2.5474
   67SAPC   C25 5595   5.830   3.596   7.012 -0.5293  0.5623  0.6046
   67SAPC   H5R 5596   5.835   3.700   6.975  1.8693  0.3738  0.2785
   67SAPC   C26 5597   5.719   3.559   7.072 -0.0041  0.5264  0.1246
   67SAPC   H6R 5598   5.638   3.633   7.076 -0.5479 -0.0930  0.8141
   67SAPC   C27 5599   5.681   3.426   7.135 -0.1578 -0.0148 -0.5131
   67SAPC   H7R 5600   5.720   3.420   7.239 -3.0956  1.0236  0.7748
   67SAPC   H7S 5601   5.739   3.344   7.089  1.8073  1.0508 -0.0225
   67SAPC   C28 5602   5.534   3.401   7.137 -0.0865  0.1798  0.3610
   67SAPC   H8R 5603   5.493   3.387   7.036 -1.1678 -1.8112  1.0112
   67SAPC   C29 5604   5.457   3.402   7.249  0.2891 -0.2077 -0.7809
   67SAPC   H9R 5605   5.348   3.384   7.243  0.1387 -0.0972  1.1129
   67SAPC  C210 5606   5.504   3.429   7.391 -0.4774  0.0436 -0.3177
   67SAPC  H10R 5607   5.416   3.452   7.454 -1.2087  1.4602 -1.7929
   67SAPC  H10S 5608   5.560   3.525   7.388  0.4923 -0.5168 -0.8859
   67SAPC  C211 5609   5.596   3.317   7.445 -0.1310 -0.2083  0.0642
   67SAPC  H11R 5610   5.601   3.231   7.376 -0.2243  1.0235 -1.5450
   67SAPC  C212 5611   5.666   3.313   7.559 -0.2375  0.6106 -0.8329
   67SAPC  H12R 5612   5.725   3.222   7.576 -0.3721  0.9894  2.1564
   67SAPC  C213 5613   5.661   3.431   7.656 -0.2982  0.1801 -0.7777
   67SAPC  H13R 5614   5.688   3.530   7.613  0.7598  0.0435 -0.4688
   67SAPC  H13S 5615   5.738   3.411   7.733 -1.6447  1.5093  0.9944
   67SAPC  C214 5616   5.527   3.439   7.727 -0.3683  0.4362 -0.3062
   67SAPC  H14R 5617   5.441   3.488   7.678 -1.7720 -0.3697  1.2643
   67SAPC  C215 5618   5.507   3.374   7.845  0.0944 -0.3305  0.5172
   67SAPC  H15R 5619   5.414   3.372   7.905  0.5632 -1.7390  1.2582
   67SAPC  C216 5620   5.599   3.277   7.911 -0.0613 -0.0992 -0.1283
   67SAPC  H16R 5621   5.695   3.328   7.936  1.9008 -3.1832 -0.8638
   67SAPC  H16S 5622   5.627   3.192   7.846 -2.9847 -2.5481  1.5427
   67SAPC  C217 5623   5.546   3.205   8.035 -0.6487 -0.1348  0.8634
   67SAPC  H17R 5624   5.620   3.126   8.060  1.7933  0.4458 -3.5884
   67SAPC  H17S 5625   5.451   3.148   8.033 -0.5943 -0.1978 -0.3773
   67SAPC  C218 5626   5.541   3.293   8.164 -0.2516  0.5071 -0.2871
   67SAPC  H18R 5627   5.448   3.352   8.149  0.1697  1.1333 -0.4553
   67SAPC  H18S 5628   5.626   3.361   8.185 -0.9748  1.0300  1.0602
   67SAPC  C219 5629   5.509   3.222   8.293  0.1172  0.7062  0.1855
   67SAPC  H19R 5630   5.591   3.160   8.333 -0.5524 -0.8834 -0.8224
   67SAPC  H19S 5631   5.430   3.147   8.272 -0.4349  1.6632 -1.2962
   67SAPC  C220 5632   5.458   3.323   8.397  1.1183  0.7496  0.0461
   67SAPC  H20R 5633   5.525   3.410   8.411  0.5481  1.0255  1.2350
   67SAPC  H20S 5634   5.444   3.274   8.496  2.8545 -3.2795 -1.4928
   67SAPC  H20T 5635   5.358   3.361   8.368  0.8726  0.3979  0.4122
   67SAPC   C33 5636   6.130   2.952   7.234  0.2911  0.3749  0.1548
   67SAPC   H3X 5637   6.227   2.937   7.182 -0.6770 -1.3451 -1.2819
   67SAPC   H3Y 5638   6.111   2.873   7.310 -2.4999  0.0662 -0.7250
   67SAPC   C34 5639   6.135   3.086   7.308  0.7137  0.0117  0.1399
   67SAPC   H4X 5640   6.219   3.087   7.380  1.7889 -2.3428 -0.9738
   67SAPC   H4Y 5641   6.037   3.099   7.358  0.3956 -2.0534  0.1151
   67SAPC   C35 5642   6.151   3.202   7.215  0.1633 -0.3543  0.2715
   67SAPC   H5X 5643   6.063   3.213   7.148  1.4663  1.3228 -1.2566
   67SAPC   H5Y 5644   6.234   3.183   7.144 -0.2504  0.8265 -0.5529
   67SAPC   C36 5645   6.173   3.334   7.284  0.2046 -0.7303 -0.5609
   67SAPC   H6X 5646   6.205   3.406   7.205  0.0162  3.1774  2.6258
   67SAPC   H6Y 5647   6.245   3.329   7.368 -1.9501  2.2038  1.6753
   67SAPC   C37 5648   6.043   3.396   7.352  0.1706 -0.3852  0.2666
   67SAPC   H7X 5649   6.006   3.345   7.444  0.5299  1.9613  1.7875
   67SAPC   H7Y 5650   5.960   3.395   7.278 -2.1007 -0.2497  2.6543
   67SAPC   C38 5651   6.062   3.535   7.414 -0.2122  0.2719 -0.2150
   67SAPC   H8X 5652   5.959   3.577   7.411 -0.6378 -0.7524 -2.4846
   67SAPC   H8Y 5653   6.128   3.592   7.344  1.4403  1.2511  2.0208
   67SAPC   C39 5654   6.123   3.547   7.559  0.4081 -0.4072 -0.3154
   67SAPC   H9X 5655   6.133   3.654   7.584 -1.7884 -0.8339  3.1498
   67SAPC   H9Y 5656   6.222   3.497   7.554  0.4362 -0.3604 -0.2210
   67SAPC  C310 5657   6.026   3.484   7.661 -0.0928  0.0158 -0.1428
   67SAPC  H10X 5658   6.017   3.374   7.648 -3.3341 -0.0127  1.4361
   67SAPC  H10Y 5659   5.924   3.527   7.654 -0.0587  0.0581 -0.3893
   67SAPC  C311 5660   6.067   3.517   7.806 -0.2544  0.2720  0.2312
   67SAPC  H11X 5661   6.061   3.628   7.804 -1.9954  0.1941 -2.1497
   67SAPC  H11Y 5662   6.173   3.486   7.816 -0.4347 -0.2452  0.5494
   67SAPC  C312 5663   5.981   3.447   7.905  0.7691 -0.4945 -0.3392
   67SAPC  H12X 5664   5.964   3.344   7.867  0.5415  0.7255 -3.8381
   67SAPC  H12Y 5665   5.881   3.494   7.899  1.1071  0.1491 -1.0357
   67SAPC  C313 5666   6.050   3.439   8.042 -0.1713  0.2832 -0.2127
   67SAPC  H13X 5667   6.055   3.546   8.073 -0.4685  0.6340 -1.3319
   67SAPC  H13Y 5668   6.149   3.390   8.027 -1.2229 -1.2970 -2.6229
   67SAPC  C314 5669   5.963   3.361   8.144 -0.0667 -0.0282 -0.7603
   67SAPC  H14X 5670   5.950   3.258   8.104 -1.6282  0.5901 -1.9437
   67SAPC  H14Y 5671   5.860   3.402   8.147 -1.3685 -3.1186  0.8669
   67SAPC  C315 5672   6.021   3.371   8.284 -0.0302  0.3566  0.3293
   67SAPC  H15X 5673   6.037   3.472   8.328  0.2530 -0.1897  1.5179
   67SAPC  H15Y 5674   6.127   3.341   8.276  0.3144  1.8328 -1.4552
   67SAPC  C316 5675   5.941   3.302   8.382  0.1727  0.9137 -0.5850
   67SAPC  H16X 5676   5.836   3.334   8.372 -1.0020 -2.8644 -1.9315
   67SAPC  H16Y 5677   5.974   3.317   8.487 -4.3677 -0.4212  1.2792
   67SAPC  C317 5678   5.938   3.146   8.372  1.1028  0.1078 -0.1778
   67SAPC  H17X 5679   5.906   3.120   8.269 -1.4917  1.5997  0.1499
   67SAPC  H17Y 5680   5.859   3.110   8.441  0.7927 -0.5568 -0.8624
   67SAPC  C318 5681   6.061   3.075   8.421 -0.0352  0.7482 -0.1547
   67SAPC  H18X 5682   6.077   3.094   8.529 -0.3983 -0.6646  0.1640
   67SAPC  H18Y 5683   6.140   3.125   8.361  1.3609 -0.2770  0.7756
   67SAPC  H18Z 5684   6.071   2.966   8.400  2.8752  1.2083 -1.7727
   68SAPC     N 5685   2.953   4.029   6.017 -0.7139  0.0711 -0.2070
   68SAPC   C12 5686   3.042   4.086   6.132 -0.1256  0.3630  0.1255
   68SAPC  H12A 5687   2.991   4.176   6.164 -0.0887 -0.0155  1.2829
   68SAPC  H12B 5688   3.131   4.122   6.082 -1.5525 -0.2676 -3.1327
   68SAPC   C13 5689   2.883   4.128   5.926 -1.0371  0.2856 -0.0304
   68SAPC  H13A 5690   2.960   4.201   5.906  1.1671 -1.2764  2.2164
   68SAPC  H13B 5691   2.845   4.081   5.836  0.8574 -0.9260 -0.2530
   68SAPC  H13C 5692   2.801   4.182   5.971 -0.2739  0.5518  1.0480
   68SAPC   C14 5693   3.043   3.951   5.932 -0.7860  0.4354  0.6827
   68SAPC  H14A 5694   3.114   4.009   5.875 -0.2689  1.4816  2.3204
   68SAPC  H14B 5695   3.106   3.891   5.996  0.3349  1.4260  0.5446
   68SAPC  H14C 5696   2.987   3.892   5.861  0.4370  0.4694 -0.3518
   68SAPC   C15 5697   2.851   3.943   6.079 -0.2122 -0.1831  0.4355
   68SAPC  H15A 5698   2.809   3.891   5.994  1.7188 -0.5698 -0.3476
   68SAPC  H15B 5699   2.897   3.859   6.130 -0.9500 -0.8195  0.0718
   68SAPC  H15C 5700   2.795   4.005   6.147  1.1487  2.3912 -0.6368
   68SAPC   C11 5701   3.068   3.992   6.253 -0.8672  0.1022  0.5259
   68SAPC  H11A 5702   2.975   3.964   6.308 -0.2621 -1.1617  0.9494
   68SAPC  H11B 5703   3.139   4.055   6.309 -0.5486 -0.4718  0.7724
   68SAPC     P 5704   3.283   3.860   6.191 -0.0594 -0.6613 -0.3677
   68SAPC   O13 5705   3.314   3.721   6.170 -0.7229 -0.4413  0.4623
   68SAPC   O14 5706   3.321   3.964   6.092 -0.4537  0.0948  0.2390
   68SAPC   O12 5707   3.132   3.867   6.210 -0.4950  0.2815 -0.7925
   68SAPC   O11 5708   3.340   3.900   6.333 -0.3830 -0.6180  0.7804
   68SAPC    C1 5709   3.291   3.858   6.457 -0.0744  0.0663  0.3205
   68SAPC    HA 5710   3.261   3.944   6.521  0.4705  2.1927 -2.1477
   68SAPC    HB 5711   3.194   3.807   6.438 -0.5719  1.0735  0.1120
   68SAPC    C2 5712   3.378   3.750   6.528 -0.3783 -0.1289  0.4918
   68SAPC    HS 5713   3.322   3.734   6.623 -1.4964 -1.5774 -0.3556
   68SAPC   O21 5714   3.512   3.805   6.556 -0.2961  0.8360  0.3123
   68SAPC   C21 5715   3.524   3.916   6.617 -0.6925 -0.0553  0.1505
   68SAPC   O22 5716   3.435   3.990   6.654 -0.1886  0.3293  0.2856
   68SAPC   C22 5717   3.673   3.948   6.617  0.1552  0.7642 -0.0081
   68SAPC   H2R 5718   3.723   3.851   6.638  1.0350  0.9197 -1.2891
   68SAPC   H2S 5719   3.699   3.975   6.512  2.7446 -1.8447 -0.1678
   68SAPC    C3 5720   3.392   3.621   6.447  0.5021  0.7598  0.3942
   68SAPC    HX 5721   3.440   3.640   6.349 -1.2341 -1.3705 -0.9839
   68SAPC    HY 5722   3.294   3.579   6.415  0.4250  0.7381  0.6615
   68SAPC   O31 5723   3.460   3.524   6.527 -0.4251  0.5506  0.3031
   68SAPC   C31 5724   3.589   3.516   6.508 -0.3486  0.4286 -1.0614
   68SAPC   O32 5725   3.654   3.588   6.434  0.0882  0.0640 -0.0882
   68SAPC   C32 5726   3.637   3.386   6.581  0.9106  0.3521 -0.1632
   68SAPC   H2X 5727   3.620   3.305   6.507  0.4210  0.2819  0.0233
   68SAPC   H2Y 5728   3.578   3.377   6.675 -0.0347  1.8542 -0.5723
   68SAPC   C23 5729   3.711   4.049   6.727 -0.7814 -0.0789 -0.2223
   68SAPC   H3R 5730   3.656   4.145   6.721  1.5287  1.3840  0.6033
   68SAPC   H3S 5731   3.807   4.100   6.709 -1.3635  0.7625 -1.0154
   68SAPC   C24 5732   3.714   3.985   6.871 -0.0229  0.3642 -0.4331
   68SAPC   H4R 5733   3.764   4.060   6.935  2.2749  0.0609 -1.7693
   68SAPC   H4S 5734   3.766   3.888   6.857  0.1914 -0.2097  3.3565
   68SAPC   C25 5735   3.582   3.952   6.932  0.3901  0.0892  0.4984
   68SAPC   H5R 5736   3.532   4.039   6.975 -1.7605 -1.3482  1.0633
   68SAPC   C26 5737   3.513   3.834   6.945  0.1544 -0.5696  0.4902
   68SAPC   H6R 5738   3.408   3.829   6.977 -0.1934  0.8512 -0.3658
   68SAPC   C27 5739   3.566   3.699   6.897 -0.4978  0.7024 -0.0346
   68SAPC   H7R 5740   3.619   3.659   6.986 -2.6393 -0.2450  0.9022
   68SAPC   H7S 5741   3.636   3.713   6.812  0.5392 -0.5119  0.5968
   68SAPC   C28 5742   3.453   3.614   6.858  0.3751  0.5871 -0.4830
   68SAPC   H8R 5743   3.406   3.640   6.762 -0.7549  0.6157  0.0611
   68SAPC   C29 5744   3.398   3.518   6.939 -0.7356  0.8594 -0.1191
   68SAPC   H9R 5745   3.308   3.465   6.906 -1.1423  0.7457  1.1260
   68SAPC  C210 5746   3.441   3.470   7.080 -0.1999 -0.0045 -0.6103
   68SAPC  H10R 5747   3.534   3.517   7.118  1.4377 -1.7543 -2.2138
   68SAPC  H10S 5748   3.473   3.364   7.068 -0.3622 -0.3561  1.6203
   68SAPC  C211 5749   3.324   3.473   7.181 -0.6214 -0.2101  0.8095
   68SAPC  H11R 5750   3.227   3.467   7.128  0.2435 -0.8400 -0.7891
   68SAPC  C212 5751   3.323   3.477   7.317  0.1576 -0.5761 -0.3059
   68SAPC  H12R 5752   3.231   3.482   7.377  1.0675  1.5097  1.0395
   68SAPC  C213 5753   3.459   3.485   7.384  0.7775  0.2736  0.1967
   68SAPC  H13R 5754   3.527   3.415   7.331 -0.7646  0.1536 -1.7078
   68SAPC  H13S 5755   3.455   3.448   7.489  2.0821 -2.1904 -0.5486
   68SAPC  C214 5756   3.519   3.627   7.377  0.2003  0.3886  0.5576
   68SAPC  H14R 5757   3.478   3.691   7.298 -0.0044  0.9171  1.0798
   68SAPC  C215 5758   3.604   3.669   7.465  0.0341 -0.3123 -1.0664
   68SAPC  H15R 5759   3.632   3.776   7.465  1.1739 -0.4180  3.4572
   68SAPC  C216 5760   3.663   3.601   7.589  0.3062  0.2287 -0.0294
   68SAPC  H16R 5761   3.764   3.640   7.612  1.4585 -2.2272 -0.6485
   68SAPC  H16S 5762   3.660   3.491   7.580  0.4459  0.3125 -1.2913
   68SAPC  C217 5763   3.576   3.631   7.710  0.3564 -0.4664 -0.8468
   68SAPC  H17R 5764   3.481   3.572   7.708  0.5783 -0.9988  1.1685
   68SAPC  H17S 5765   3.548   3.738   7.718  0.1823 -0.5540 -0.1782
   68SAPC  C218 5766   3.648   3.586   7.840  0.2645  0.6536 -0.3559
   68SAPC  H18R 5767   3.728   3.657   7.867  0.6693  0.8194 -1.9152
   68SAPC  H18S 5768   3.713   3.495   7.841 -0.0856  0.3073 -2.7302
   68SAPC  C219 5769   3.553   3.575   7.963 -0.0641  0.7093  0.0559
   68SAPC  H19R 5770   3.507   3.675   7.983  0.6665  0.9585  0.5397
   68SAPC  H19S 5771   3.609   3.533   8.050 -1.1157 -2.3224 -0.6085
   68SAPC  C220 5772   3.441   3.472   7.957 -0.1948  0.4724  0.7606
   68SAPC  H20R 5773   3.357   3.486   7.885 -0.5305 -0.4347  0.9605
   68SAPC  H20S 5774   3.382   3.457   8.050 -1.8860 -3.8222 -0.7350
   68SAPC  H20T 5775   3.481   3.372   7.929  0.0684  1.3294 -2.3289
   68SAPC   C33 5776   3.780   3.383   6.622  0.5099 -0.1692 -0.3532
   68SAPC   H3X 5777   3.832   3.465   6.569 -0.0346 -1.1166 -2.4561
   68SAPC   H3Y 5778   3.824   3.298   6.566 -1.1928 -0.1518 -1.8039
   68SAPC   C34 5779   3.811   3.387   6.777  0.5141  0.2077 -0.1389
   68SAPC   H4X 5780   3.736   3.447   6.833  0.6413 -0.4129  0.7107
   68SAPC   H4Y 5781   3.913   3.425   6.798  1.1634 -1.4732 -0.0976
   68SAPC   C35 5782   3.791   3.250   6.844 -0.1327  0.2377 -0.3265
   68SAPC   H5X 5783   3.864   3.177   6.802 -0.5281  0.8694 -2.2033
   68SAPC   H5Y 5784   3.692   3.211   6.813 -0.1844  0.4149 -0.3865
   68SAPC   C36 5785   3.799   3.248   6.999 -0.0740  0.0417  0.1587
   68SAPC   H6X 5786   3.752   3.345   7.027 -0.2173  0.5372 -1.6480
   68SAPC   H6Y 5787   3.906   3.245   7.030  0.1233  0.4325 -0.4562
   68SAPC   C37 5788   3.724   3.136   7.065  0.2606 -0.1731  0.4938
   68SAPC   H7X 5789   3.748   3.030   7.041  1.3672  0.1527  0.0790
   68SAPC   H7Y 5790   3.619   3.153   7.033  1.4724  1.4352 -3.1438
   68SAPC   C38 5791   3.741   3.149   7.215 -0.2339  0.5995  0.0968
   68SAPC   H8X 5792   3.695   3.244   7.248  0.5338  1.4655 -1.2387
   68SAPC   H8Y 5793   3.846   3.161   7.248 -1.1774  0.8033  3.4215
   68SAPC   C39 5794   3.682   3.032   7.294 -0.0380  1.0789  0.0304
   68SAPC   H9X 5795   3.743   2.940   7.288 -1.1808  0.1678  1.5468
   68SAPC   H9Y 5796   3.578   3.008   7.263 -0.7350  2.4040  1.2210
   68SAPC  C310 5797   3.666   3.063   7.445  0.4080  0.1250 -1.0688
   68SAPC  H10X 5798   3.593   3.146   7.454 -1.3302 -1.1851 -2.3406
   68SAPC  H10Y 5799   3.759   3.087   7.499 -1.1098  1.4880  1.0906
   68SAPC  C311 5800   3.611   2.939   7.518  0.0333  0.0190  0.7203
   68SAPC  H11X 5801   3.688   2.859   7.523 -1.8222 -1.9040 -0.0592
   68SAPC  H11Y 5802   3.528   2.890   7.463 -0.8582  1.7653  0.4401
   68SAPC  C312 5803   3.548   2.975   7.654  0.1006 -0.0429  0.1932
   68SAPC  H12X 5804   3.499   2.887   7.701 -0.6338 -0.3702 -1.1252
   68SAPC  H12Y 5805   3.469   3.052   7.648  1.3507  1.3792  1.2924
   68SAPC  C313 5806   3.645   3.032   7.759 -0.4171  0.4023  0.2925
   68SAPC  H13X 5807   3.661   3.140   7.739  0.2384  0.1832 -0.3972
   68SAPC  H13Y 5808   3.748   2.993   7.747 -0.8886 -0.1428 -2.7313
   68SAPC  C314 5809   3.590   2.988   7.896 -0.1063 -0.1805 -0.5384
   68SAPC  H14X 5810   3.605   2.882   7.924  1.6986  0.7569  2.5365
   68SAPC  H14Y 5811   3.481   3.007   7.895 -0.3143 -0.8806  2.2282
   68SAPC  C315 5812   3.658   3.082   8.001 -0.5406  0.2702  0.0013
   68SAPC  H15X 5813   3.631   3.184   7.968 -0.0645 -0.3053 -2.3575
   68SAPC  H15Y 5814   3.766   3.067   7.978 -0.5338 -0.8543  0.6977
   68SAPC  C316 5815   3.631   3.045   8.146 -0.7765  1.3817  0.3937
   68SAPC  H16X 5816   3.635   2.934   8.151 -1.7883  1.3801  3.1757
   68SAPC  H16Y 5817   3.529   3.077   8.174 -0.7265  1.6540  0.2683
   68SAPC  C317 5818   3.741   3.089   8.237 -1.0007  0.5712 -0.1855
   68SAPC  H17X 5819   3.756   3.197   8.260 -1.9999  0.8465 -0.7496
   68SAPC  H17Y 5820   3.841   3.079   8.191 -1.4751  0.2175 -1.1755
   68SAPC  C318 5821   3.716   3.018   8.367 -1.5017  0.1513  0.1774
   68SAPC  H18X 5822   3.729   2.909   8.351 -1.8195  0.0261  0.7505
   68SAPC  H18Y 5823   3.611   3.038   8.395 -0.3672  2.5315  3.4194
   68SAPC  H18Z 5824   3.783   3.054   8.449 -1.4995  0.1795  0.1633
   69SLPC     N 5825   5.949   2.865  11.317 -0.4224  0.0749  0.3676
   69SLPC   C13 5826   5.828   2.954  11.311 -0.0941 -0.0117  0.2561
   69SLPC  H13A 5827   5.764   2.920  11.391 -0.6995  2.4930  0.9295
   69SLPC  H13B 5828   5.858   3.056  11.328  0.3427 -0.3164  1.3985
   69SLPC  H13C 5829   5.772   2.956  11.219 -0.2307  1.5441  0.3562
   69SLPC   C14 5830   6.021   2.892  11.449 -0.2932  0.1042  0.2659
   69SLPC  H14A 5831   5.965   2.877  11.540  1.4307 -0.1291  1.3157
   69SLPC  H14B 5832   6.104   2.824  11.451 -0.2428  0.0270 -1.9425
   69SLPC  H14C 5833   6.069   2.988  11.454 -0.8879  0.3329  3.5009
   69SLPC   C15 5834   6.041   2.909  11.209 -0.2448  0.0043  0.4919
   69SLPC  H15A 5835   6.008   2.859  11.119 -0.1448  0.6992  0.0568
   69SLPC  H15B 5836   6.033   3.017  11.210 -0.8736 -0.0197 -0.5932
   69SLPC  H15C 5837   6.143   2.880  11.226  0.5867  1.3423 -1.7675
   69SLPC   C12 5838   5.908   2.718  11.309 -0.5575  0.1407  0.7713
   69SLPC  H12A 5839   5.841   2.687  11.388 -1.7065 -0.0881 -0.2746
   69SLPC  H12B 5840   5.999   2.668  11.339  0.0672  1.7427  1.7364
   69SLPC   C11 5841   5.861   2.660  11.174 -0.0710 -0.0522 -0.0133
   69SLPC  H11A 5842   5.771   2.724  11.159  0.4602  1.2528  1.9698
   69SLPC  H11B 5843   5.822   2.558  11.194 -1.1387  0.1311 -1.0530
   69SLPC     P 5844   6.049   2.550  11.026  0.6505 -0.1345 -0.2376
   69SLPC   O13 5845   6.152   2.525  11.126  0.0921 -0.5347 -0.2868
   69SLPC   O14 5846   5.960   2.437  10.986  0.4620 -0.0045 -0.4001
   69SLPC   O12 5847   5.956   2.668  11.067 -0.3468  0.0237  0.6766
   69SLPC   O11 5848   6.128   2.594  10.899 -0.2864 -0.0163 -0.4189
   69SLPC    C1 5849   6.100   2.721  10.832 -0.7488  0.1077  0.4793
   69SLPC    HA 5850   6.057   2.801  10.896 -0.3845  1.6240 -1.1161
   69SLPC    HB 5851   6.198   2.763  10.799  0.5820 -1.4667  2.1663
   69SLPC    C2 5852   5.997   2.700  10.716 -0.0520 -0.0557  0.5093
   69SLPC    HS 5853   5.990   2.590  10.698 -0.2389  0.2432 -1.5407
   69SLPC   O21 5854   6.040   2.752  10.586 -0.3064 -0.1569  0.0754
   69SLPC   C21 5855   6.151   2.691  10.539 -0.1701 -0.4883  0.4655
   69SLPC   O22 5856   6.208   2.593  10.584  0.1333 -0.2613 -0.5245
   69SLPC   C22 5857   6.193   2.749  10.404 -0.0630 -0.3276 -0.1557
   69SLPC   H2R 5858   6.112   2.809  10.357 -0.8788 -2.8778 -2.2285
   69SLPC   H2S 5859   6.287   2.805  10.422  0.3945 -1.3419  0.7707
   69SLPC    C3 5860   5.852   2.752  10.751  0.2354  0.3467  0.0028
   69SLPC    HX 5861   5.854   2.861  10.776  1.0820 -0.0244  1.7074
   69SLPC    HY 5862   5.807   2.700  10.838 -0.4648  0.0302 -0.5367
   69SLPC   O31 5863   5.756   2.739  10.644  0.1336 -0.6793  0.5247
   69SLPC   C31 5864   5.718   2.618  10.621 -0.0626  0.3515  0.0560
   69SLPC   O32 5865   5.753   2.518  10.689  0.2661 -0.1818 -0.3665
   69SLPC   C32 5866   5.624   2.615  10.508 -0.0311 -0.1077  0.7406
   69SLPC   H2X 5867   5.632   2.708  10.447 -1.5101  1.1889  2.3985
   69SLPC   H2Y 5868   5.518   2.617  10.543 -0.0202  0.3690  0.7543
   69SLPC   C23 5869   6.235   2.641  10.309  0.0979 -0.9236  0.3893
   69SLPC   H3R 5870   6.148   2.573  10.295 -1.2324  0.6833  0.5506
   69SLPC   H3S 5871   6.322   2.577  10.335  1.1195 -0.7747 -2.3883
   69SLPC   C24 5872   6.259   2.704  10.174 -0.2015 -0.3264  1.0899
   69SLPC   H4R 5873   6.341   2.776  10.159  1.0353 -2.3341 -3.6697
   69SLPC   H4S 5874   6.166   2.761  10.150  1.3495  0.9556 -2.5057
   69SLPC   C25 5875   6.261   2.594  10.069  0.2077  0.3552 -0.3979
   69SLPC   H5R 5876   6.172   2.528  10.072 -0.2064  0.9293  1.0690
   69SLPC   H5S 5877   6.357   2.540  10.086  0.3297  1.1816  1.9860
   69SLPC   C26 5878   6.248   2.650   9.927  0.0479  0.2731 -0.2485
   69SLPC   H6R 5879   6.323   2.730   9.912  1.5824 -0.6940  1.8473
   69SLPC   H6S 5880   6.143   2.686   9.919 -0.7964 -1.4171  1.9971
   69SLPC   C27 5881   6.276   2.536   9.823 -0.2040 -0.2436 -0.7465
   69SLPC   H7R 5882   6.205   2.452   9.843 -0.5469  0.6439  2.1892
   69SLPC   H7S 5883   6.374   2.490   9.847 -0.7465 -1.7776 -1.2950
   69SLPC   C28 5884   6.283   2.582   9.685 -0.2292  0.3228  1.1848
   69SLPC   H8R 5885   6.368   2.651   9.667 -0.7591  0.5941 -0.4865
   69SLPC   H8S 5886   6.195   2.642   9.651  0.8592  0.0924 -2.5106
   69SLPC   C29 5887   6.303   2.470   9.586 -0.1530 -1.0007 -0.3492
   69SLPC   H9R 5888   6.362   2.384   9.622 -0.2322 -0.5456  0.9281
   69SLPC  C210 5889   6.260   2.462   9.456  0.5794 -0.4361 -0.6563
   69SLPC  H10R 5890   6.285   2.380   9.388 -3.1456 -1.8072 -0.5804
   69SLPC  C211 5891   6.174   2.574   9.394 -0.4779  0.4645  0.1447
   69SLPC  H11R 5892   6.231   2.669   9.399  0.2383  0.0063  1.2936
   69SLPC  H11S 5893   6.081   2.582   9.455  0.1792 -2.1081  1.6212
   69SLPC  C212 5894   6.122   2.542   9.254  0.1704 -0.5014 -1.1485
   69SLPC  H12R 5895   6.027   2.488   9.243  0.8630 -1.6925 -1.4414
   69SLPC  C213 5896   6.205   2.555   9.143  0.5771 -0.3823  0.1976
   69SLPC  H13R 5897   6.160   2.527   9.047  0.1807  0.5058  0.1140
   69SLPC  C214 5898   6.347   2.606   9.143  0.2780 -0.1099  0.3019
   69SLPC  H14R 5899   6.369   2.629   9.250 -1.0594 -0.8912  0.7634
   69SLPC  H14S 5900   6.362   2.695   9.078  1.1005 -0.0546  0.5561
   69SLPC  C215 5901   6.446   2.487   9.119  0.1747 -0.6687 -0.1627
   69SLPC  H15R 5902   6.435   2.456   9.013 -1.6849  2.2070 -0.9259
   69SLPC  H15S 5903   6.416   2.401   9.183 -0.5879 -0.7431 -0.6076
   69SLPC  C216 5904   6.593   2.515   9.134 -0.0382 -0.1057  0.2233
   69SLPC  H16R 5905   6.598   2.580   9.224 -0.8263  1.7228 -0.9886
   69SLPC  H16S 5906   6.636   2.573   9.050  2.1641 -1.2369  0.5157
   69SLPC  C217 5907   6.668   2.387   9.167  0.4603 -0.0138  0.0647
   69SLPC  H17R 5908   6.622   2.330   9.251 -1.4418  1.1668 -0.1083
   69SLPC  H17S 5909   6.770   2.413   9.203 -0.1743 -0.3064  2.1964
   69SLPC  C218 5910   6.672   2.285   9.048 -0.2374  0.7381  0.3224
   69SLPC  H18R 5911   6.575   2.232   9.034 -0.0267 -0.0723  1.7567
   69SLPC  H18S 5912   6.753   2.211   9.063 -0.1255  0.4874 -1.3841
   69SLPC  H18T 5913   6.687   2.336   8.951 -1.2745 -1.1090 -0.8661
   69SLPC   C33 5914   5.647   2.498  10.410  0.2614 -0.2104  0.0297
   69SLPC   H3X 5915   5.556   2.490  10.346  2.1723 -2.0364 -2.6604
   69SLPC   H3Y 5916   5.661   2.402  10.464  0.1219  1.2735  2.8879
   69SLPC   C34 5917   5.766   2.505  10.312  0.0380  0.1957  1.3063
   69SLPC   H4X 5918   5.853   2.550  10.364  1.0284  1.2438 -1.1131
   69SLPC   H4Y 5919   5.732   2.579  10.236 -1.2245  0.4440  2.0745
   69SLPC   C35 5920   5.790   2.365  10.256  0.5056 -0.2984 -0.0330
   69SLPC   H5X 5921   5.695   2.322  10.218  0.3652  0.8702 -1.0782
   69SLPC   H5Y 5922   5.819   2.293  10.336  0.2531 -1.4629 -0.9751
   69SLPC   C36 5923   5.886   2.361  10.131  0.5183 -0.3241 -0.3878
   69SLPC   H6X 5924   5.914   2.257  10.105 -1.5520 -1.2795  0.9420
   69SLPC   H6Y 5925   5.980   2.418  10.150  0.8359 -0.9522 -0.0177
   69SLPC   C37 5926   5.807   2.422  10.013  0.1183 -0.2084  0.2786
   69SLPC   H7X 5927   5.778   2.528  10.031 -1.6930 -0.3125 -1.6692
   69SLPC   H7Y 5928   5.708   2.372  10.011 -0.1155  0.2835 -0.8392
   69SLPC   C38 5929   5.884   2.402   9.880  0.3155 -0.0015 -0.2268
   69SLPC   H8X 5930   5.905   2.294   9.865  2.0445 -0.1060  2.2846
   69SLPC   H8Y 5931   5.986   2.446   9.890  0.2838 -0.0545  0.3454
   69SLPC   C39 5932   5.809   2.470   9.765  0.3116  0.3067  0.0129
   69SLPC   H9X 5933   5.797   2.577   9.794  0.8972  0.2373  0.5440
   69SLPC   H9Y 5934   5.709   2.424   9.750  0.0237  1.3347 -1.5088
   69SLPC  C310 5935   5.884   2.454   9.630  0.3586  0.3206  0.3947
   69SLPC  H10X 5936   5.993   2.470   9.646  0.3395  0.8131  0.0460
   69SLPC  H10Y 5937   5.834   2.512   9.550  2.1900 -0.0255 -1.0705
   69SLPC  C311 5938   5.860   2.311   9.575  0.1555  0.6214 -0.6382
   69SLPC  H11X 5939   5.912   2.237   9.639 -1.2080 -0.3805 -0.6393
   69SLPC  H11Y 5940   5.909   2.304   9.475 -2.2170 -0.3737 -1.8262
   69SLPC  C312 5941   5.717   2.259   9.566  0.4526 -0.7908 -0.9035
   69SLPC  H12X 5942   5.651   2.347   9.547  2.3336  1.3304  1.7292
   69SLPC  H12Y 5943   5.693   2.209   9.662  4.7358  0.4413  1.0373
   69SLPC  C313 5944   5.698   2.160   9.450 -0.3597 -0.1761 -0.1689
   69SLPC  H13X 5945   5.765   2.072   9.467  0.2337  0.5656  1.5249
   69SLPC  H13Y 5946   5.724   2.211   9.354  1.6779  0.9787  0.9288
   69SLPC  C314 5947   5.554   2.099   9.436 -0.0991 -0.2680 -0.1143
   69SLPC  H14X 5948   5.482   2.181   9.416 -1.0358 -0.1293  3.2350
   69SLPC  H14Y 5949   5.524   2.045   9.528  2.8245 -1.5065  0.2350
   69SLPC  C315 5950   5.555   2.004   9.315  0.4801 -0.7335 -0.0339
   69SLPC  H15X 5951   5.618   2.053   9.238 -0.0431 -0.7064 -0.4544
   69SLPC  H15Y 5952   5.450   1.992   9.278  0.2781  1.1225 -0.1550
   69SLPC  C316 5953   5.603   1.866   9.353 -0.3276 -0.1369  0.0207
   69SLPC  H16X 5954   5.536   1.806   9.417  1.2867 -0.9966  0.9780
   69SLPC  H16Y 5955   5.702   1.868   9.405 -1.1300  1.7372  1.6189
   69SLPC  C317 5956   5.627   1.777   9.227 -0.9330 -0.1789 -0.0596
   69SLPC  H17X 5957   5.717   1.824   9.180 -1.5652 -1.6577 -3.0264
   69SLPC  H17Y 5958   5.551   1.794   9.148 -1.8112 -2.1097  0.3276
   69SLPC  C318 5959   5.654   1.632   9.261 -0.4103  0.1560 -0.4743
   69SLPC  H18X 5960   5.557   1.586   9.289 -0.2818  0.2914  0.2180
   69SLPC  H18Y 5961   5.721   1.624   9.349 -0.7996 -4.2501 -0.3438
   69SLPC  H18Z 5962   5.703   1.564   9.188  1.6363  0.0092  0.9424
   70SLPC     N 5963   6.483   5.715  10.665  0.5124  0.5968 -0.5138
   70SLPC   C13 5964   6.537   5.846  10.614  0.5299  0.2986  0.5036
   70SLPC  H13A 5965   6.577   5.841  10.514 -0.4087 -0.1098  0.1298
   70SLPC  H13B 5966   6.464   5.926  10.619  1.6780  1.3167  1.4369
   70SLPC  H13C 5967   6.629   5.867  10.665  0.6140 -0.2397  0.5852
   70SLPC   C14 5968   6.458   5.736  10.818 -0.5119  0.5223 -0.2988
   70SLPC  H14A 5969   6.554   5.753  10.865 -1.0801  1.5550  0.5269
   70SLPC  H14B 5970   6.383   5.808  10.847  0.6141  1.3964  0.5178
   70SLPC  H14C 5971   6.415   5.643  10.851 -0.3944  0.7846  0.6169
   70SLPC   C15 5972   6.589   5.611  10.635  0.3289  0.3960  0.6794
   70SLPC  H15A 5973   6.683   5.631  10.684 -0.1568  0.5225  1.5961
   70SLPC  H15B 5974   6.549   5.515  10.666  2.6275 -1.2266 -1.0798
   70SLPC  H15C 5975   6.607   5.603  10.529  0.3041 -0.4527  0.7288
   70SLPC   C12 5976   6.342   5.694  10.608 -0.1754  0.0014  0.2975
   70SLPC  H12A 5977   6.308   5.596  10.638 -0.3543 -0.3893 -1.0820
   70SLPC  H12B 5978   6.336   5.675  10.502 -0.0363 -1.4069  0.5251
   70SLPC   C11 5979   6.237   5.803  10.628  0.7822  0.0242 -0.5982
   70SLPC  H11A 5980   6.207   5.799  10.735  2.1194 -0.7987 -0.2291
   70SLPC  H11B 5981   6.154   5.774  10.560  1.0551 -2.0346 -0.1451
   70SLPC     P 5982   6.253   6.060  10.639 -0.1752  0.4140 -0.3129
   70SLPC   O13 5983   6.233   6.030  10.787 -0.0812  0.7405 -0.0921
   70SLPC   O14 5984   6.370   6.134  10.602  0.3946  0.6849  0.3437
   70SLPC   O12 5985   6.268   5.926  10.566 -0.5008 -0.4480  0.2227
   70SLPC   O11 5986   6.115   6.116  10.586  0.1410 -0.0922  0.1659
   70SLPC    C1 5987   6.026   6.060  10.491 -0.1040 -0.0770  1.0298
   70SLPC    HA 5988   6.019   5.950  10.494  1.3097 -0.3336 -1.7267
   70SLPC    HB 5989   5.924   6.099  10.511 -0.6185 -0.2225 -1.0604
   70SLPC    C2 5990   6.081   6.098  10.353  0.9671  0.7160 -0.1811
   70SLPC    HS 5991   6.184   6.058  10.346  1.2189  1.6464 -2.4647
   70SLPC   O21 5992   6.068   6.235  10.337  0.2748  0.5946  0.1929
   70SLPC   C21 5993   6.164   6.287  10.274 -0.1063  0.2797  0.0104
   70SLPC   O22 5994   6.263   6.232  10.222  0.5142  0.2002  0.2176
   70SLPC   C22 5995   6.151   6.439  10.269  0.4983 -0.3456  0.2811
   70SLPC   H2R 5996   6.051   6.469  10.304  0.1639 -2.6893  1.4886
   70SLPC   H2S 5997   6.229   6.493  10.328  0.6929 -0.8512  0.4919
   70SLPC    C3 5998   5.983   6.024  10.247 -0.0316 -0.0357  0.0340
   70SLPC    HX 5999   5.879   6.057  10.268  0.0268 -0.3329  0.8114
   70SLPC    HY 6000   5.976   5.915  10.266 -1.8148  0.1933  0.8559
   70SLPC   O31 6001   6.010   6.048  10.106 -0.3777  0.7936 -0.6619
   70SLPC   C31 6002   6.121   6.002  10.064 -0.9976  0.2196  0.4458
   70SLPC   O32 6003   6.201   5.927  10.120  0.2292 -0.1319 -0.4095
   70SLPC   C32 6004   6.148   6.068   9.927  0.2547  0.1327 -0.1139
   70SLPC   H2X 6005   6.076   6.151   9.909  0.8382  0.2845 -1.9396
   70SLPC   H2Y 6006   6.116   5.989   9.856  1.9489  0.4894 -1.3336
   70SLPC   C23 6007   6.179   6.493  10.121  1.2535 -0.1141 -0.2769
   70SLPC   H3R 6008   6.267   6.443  10.073  1.9625  0.3788  0.4919
   70SLPC   H3S 6009   6.203   6.599  10.139 -0.4681 -0.1979  3.3800
   70SLPC   C24 6010   6.049   6.480  10.032 -0.4624  0.5510 -0.9015
   70SLPC   H4R 6011   5.960   6.525  10.082 -0.0193 -0.7894  1.2395
   70SLPC   H4S 6012   6.030   6.371  10.023  0.3599  0.4110 -1.0239
   70SLPC   C25 6013   6.058   6.534   9.885 -0.7768  0.6692 -0.2272
   70SLPC   H5R 6014   6.065   6.644   9.899  0.3785  0.6721 -0.7187
   70SLPC   H5S 6015   5.971   6.509   9.822 -0.5818  0.8847 -0.5862
   70SLPC   C26 6016   6.179   6.483   9.808  0.1235  0.5489  0.9517
   70SLPC   H6R 6017   6.187   6.376   9.836 -0.4151  0.5301  1.0442
   70SLPC   H6S 6018   6.274   6.528   9.845  0.2359  0.5603  0.6549
   70SLPC   C27 6019   6.168   6.502   9.653 -0.8305  0.2025 -0.9551
   70SLPC   H7R 6020   6.158   6.609   9.625  0.3881  1.3000  2.3161
   70SLPC   H7S 6021   6.074   6.452   9.623 -2.2787 -0.4731  3.7829
   70SLPC   C28 6022   6.284   6.442   9.577 -0.9619  0.1335 -0.2381
   70SLPC   H8R 6023   6.282   6.331   9.586 -0.1893  0.1942  0.8992
   70SLPC   H8S 6024   6.375   6.478   9.631 -1.9464 -0.5917  2.0087
   70SLPC   C29 6025   6.271   6.472   9.425  0.2543  0.7491 -0.2176
   70SLPC   H9R 6026   6.177   6.513   9.385  1.2988  3.4758 -0.0966
   70SLPC  C210 6027   6.375   6.447   9.342  0.3229  0.2339  0.7650
   70SLPC  H10R 6028   6.365   6.461   9.233  1.2991 -2.0386  0.3165
   70SLPC  C211 6029   6.517   6.395   9.372  0.6594  0.4591 -0.1845
   70SLPC  H11R 6030   6.538   6.409   9.480 -0.6828  0.6062  0.0699
   70SLPC  H11S 6031   6.594   6.457   9.320  0.4671  0.0120 -1.0164
   70SLPC  C212 6032   6.533   6.256   9.330 -0.4389  0.8442 -0.3036
   70SLPC  H12R 6033   6.498   6.175   9.396  1.7401  0.1773  0.1213
   70SLPC  C213 6034   6.595   6.212   9.224 -0.1127  0.0099  0.3235
   70SLPC  H13R 6035   6.576   6.107   9.195  0.1987 -0.7512  2.6653
   70SLPC  C214 6036   6.664   6.304   9.116 -0.2802  0.4304  0.0977
   70SLPC  H14R 6037   6.772   6.320   9.134 -0.1432  0.3764 -0.6828
   70SLPC  H14S 6038   6.608   6.400   9.110  0.2843  0.7265 -0.4713
   70SLPC  C215 6039   6.647   6.236   8.983 -0.0995 -0.0596 -0.5803
   70SLPC  H15R 6040   6.693   6.134   8.989  0.3917  0.2371  3.3858
   70SLPC  H15S 6041   6.702   6.294   8.905 -0.7771  1.5713  0.1151
   70SLPC  C216 6042   6.501   6.222   8.932  0.1463 -0.0135  0.5037
   70SLPC  H16R 6043   6.456   6.317   8.897 -2.9783 -1.8326 -0.7392
   70SLPC  H16S 6044   6.434   6.178   9.009 -2.2521  2.4274 -0.0621
   70SLPC  C217 6045   6.502   6.144   8.800 -0.3568  0.7976  0.1575
   70SLPC  H17R 6046   6.528   6.039   8.826 -1.3678  0.8548  1.5383
   70SLPC  H17S 6047   6.580   6.180   8.730 -0.2818  0.5167  0.0949
   70SLPC  C218 6048   6.366   6.150   8.723 -0.1572  0.1089  0.0068
   70SLPC  H18R 6049   6.280   6.099   8.772 -1.6594  1.5734 -0.9777
   70SLPC  H18S 6050   6.369   6.107   8.621 -0.2885  0.8788 -0.3358
   70SLPC  H18T 6051   6.323   6.253   8.718 -1.0893 -0.2608  0.2297
   70SLPC   C33 6052   6.298   6.103   9.917  0.7326 -0.1146 -1.0109
   70SLPC   H3X 6053   6.366   6.038   9.975  0.0002  0.4361  0.4985
   70SLPC   H3Y 6054   6.305   6.200   9.970 -1.7874 -1.0634  1.2209
   70SLPC   C34 6055   6.333   6.118   9.770  0.3379 -0.1192 -0.2459
   70SLPC   H4X 6056   6.252   6.170   9.714 -1.2994 -1.3543  0.8654
   70SLPC   H4Y 6057   6.338   6.014   9.731  0.7742  0.3397 -1.4564
   70SLPC   C35 6058   6.470   6.190   9.748  0.3834  0.1827  1.0255
   70SLPC   H5X 6059   6.475   6.296   9.778  3.0234  0.5400 -0.3130
   70SLPC   H5Y 6060   6.497   6.197   9.640  2.0635  0.1232  1.4191
   70SLPC   C36 6061   6.588   6.125   9.825 -0.4793 -0.3787  0.5993
   70SLPC   H6X 6062   6.569   6.114   9.934  1.5247  1.8710  1.2771
   70SLPC   H6Y 6063   6.674   6.192   9.805  1.4519 -2.9226 -0.1705
   70SLPC   C37 6064   6.634   5.993   9.764 -0.1728 -0.4499  0.1771
   70SLPC   H7X 6065   6.537   5.944   9.743 -1.2655  2.0246 -0.9666
   70SLPC   H7Y 6066   6.685   5.924   9.835  1.3737  0.8445  0.4087
   70SLPC   C38 6067   6.718   6.006   9.642  0.2974 -0.0712  0.0252
   70SLPC   H8X 6068   6.826   5.999   9.668 -0.1968  1.2668  2.8417
   70SLPC   H8Y 6069   6.694   6.102   9.591 -0.7156 -0.4170 -0.1594
   70SLPC   C39 6070   6.699   5.893   9.543  0.1687 -0.1307  0.2509
   70SLPC   H9X 6071   6.597   5.883   9.499  0.3876  1.7370 -0.7832
   70SLPC   H9Y 6072   6.719   5.793   9.587 -0.6390 -0.2763  0.3085
   70SLPC  C310 6073   6.783   5.904   9.417 -0.5434 -0.6399 -0.3269
   70SLPC  H10X 6074   6.890   5.921   9.443 -0.6461 -1.1467  0.4433
   70SLPC  H10Y 6075   6.750   6.000   9.373 -1.4386 -0.3115  1.0177
   70SLPC  C311 6076   6.779   5.782   9.327 -0.2650  0.4512  0.3311
   70SLPC  H11X 6077   6.673   5.750   9.319 -0.8756  1.5480  2.8766
   70SLPC  H11Y 6078   6.818   5.703   9.394 -2.4415 -0.1033  1.0371
   70SLPC  C312 6079   6.858   5.787   9.200  0.0470 -0.1679  0.4635
   70SLPC  H12X 6080   6.964   5.810   9.221 -0.0349 -0.4533  1.2049
   70SLPC  H12Y 6081   6.820   5.860   9.124  3.5682  0.5841 -0.7473
   70SLPC  C313 6082   6.845   5.658   9.127 -0.2199  0.3188  0.6734
   70SLPC  H13X 6083   6.743   5.649   9.084  0.8296  0.2103 -2.0398
   70SLPC  H13Y 6084   6.865   5.563   9.181 -1.8203  0.2119  1.1096
   70SLPC  C314 6085   6.943   5.649   9.005 -0.4074  0.2508  0.1119
   70SLPC  H14X 6086   7.044   5.636   9.048  0.8734  1.7488 -2.2342
   70SLPC  H14Y 6087   6.940   5.745   8.948 -0.3013  0.5194  0.5519
   70SLPC  C315 6088   6.908   5.544   8.895  0.7325 -0.3117 -0.5069
   70SLPC  H15X 6089   6.797   5.545   8.891  0.7393 -0.4284 -0.7507
   70SLPC  H15Y 6090   6.945   5.443   8.925 -1.4378 -1.3512 -1.1243
   70SLPC  C316 6091   6.956   5.579   8.756  0.1053 -0.1014 -0.0410
   70SLPC  H16X 6092   6.936   5.688   8.746 -1.0124 -0.1117  1.7095
   70SLPC  H16Y 6093   6.900   5.522   8.680  1.9136 -0.7998 -0.9245
   70SLPC  C317 6094   7.107   5.560   8.740 -0.2004  0.0324 -0.1812
   70SLPC  H17X 6095   7.136   5.453   8.744 -2.1281 -0.5774 -1.2515
   70SLPC  H17Y 6096   7.161   5.613   8.821  0.4130  0.9652 -1.1752
   70SLPC  C318 6097   7.157   5.616   8.601  0.0091 -0.5103  0.7380
   70SLPC  H18X 6098   7.268   5.621   8.596 -0.0561 -0.2949 -1.4036
   70SLPC  H18Y 6099   7.119   5.720   8.594 -0.0986 -0.4946  1.4665
   70SLPC  H18Z 6100   7.120   5.564   8.511  2.8449  1.3841 -1.7443
   71SLPC     N 6101   6.709   4.522  10.711  0.4869  0.0394 -0.2091
   71SLPC   C13 6102   6.774   4.445  10.600  0.6886 -0.1747 -0.3377
   71SLPC  H13A 6103   6.787   4.504  10.510 -1.7080  0.4706 -0.3083
   71SLPC  H13B 6104   6.869   4.411  10.639  0.0933  0.8658  2.2057
   71SLPC  H13C 6105   6.709   4.361  10.581 -0.3192  0.0175  1.9694
   71SLPC   C14 6106   6.738   4.667  10.703  0.1578 -0.1411 -0.1124
   71SLPC  H14A 6107   6.676   4.723  10.770  1.5371 -0.8470  1.8421
   71SLPC  H14B 6108   6.840   4.698  10.722 -0.1482  1.4149 -0.8899
   71SLPC  H14C 6109   6.721   4.694  10.600 -0.0363  1.4950  0.3248
   71SLPC   C15 6110   6.759   4.468  10.843  0.2705  0.3606  0.5788
   71SLPC  H15A 6111   6.862   4.441  10.825  0.4553  0.5598  1.3088
   71SLPC  H15B 6112   6.760   4.549  10.914  1.0415 -1.2690  2.5368
   71SLPC  H15C 6113   6.696   4.387  10.876 -0.1339  0.2420 -0.4371
   71SLPC   C12 6114   6.560   4.497  10.705  0.4180  0.0791 -0.1791
   71SLPC  H12A 6115   6.514   4.523  10.799  2.5677  0.3955  0.8609
   71SLPC  H12B 6116   6.534   4.393  10.701 -0.4043  0.2653  0.0010
   71SLPC   C11 6117   6.477   4.561  10.591  0.3703  0.2797  0.7690
   71SLPC  H11A 6118   6.375   4.516  10.590  1.4363 -2.3228 -0.6519
   71SLPC  H11B 6119   6.523   4.529  10.495 -1.9677 -2.9063  0.5541
   71SLPC     P 6120   6.379   4.775  10.712 -0.5304 -0.3669  0.0517
   71SLPC   O13 6121   6.335   4.680  10.814  0.4508 -0.7392 -0.3436
   71SLPC   O14 6122   6.473   4.880  10.761  0.3823 -0.0480  0.4354
   71SLPC   O12 6123   6.469   4.702  10.604 -0.0343 -0.1653  0.1032
   71SLPC   O11 6124   6.265   4.841  10.630 -0.0299  0.5003  0.8603
   71SLPC    C1 6125   6.297   4.908  10.505 -0.1007  0.0338 -0.1772
   71SLPC    HA 6126   6.397   4.957  10.507 -1.0956  2.2266  2.1390
   71SLPC    HB 6127   6.287   4.842  10.417 -1.6866 -0.0846  0.0730
   71SLPC    C2 6128   6.200   5.025  10.463 -0.1685 -0.1529  0.1513
   71SLPC    HS 6129   6.191   5.087  10.554  0.0990 -2.8144  2.1127
   71SLPC   O21 6130   6.070   4.963  10.434 -0.9750  0.3580  0.6119
   71SLPC   C21 6131   5.977   5.053  10.446 -0.5363  0.1502  0.0226
   71SLPC   O22 6132   5.999   5.170  10.486 -0.2834 -0.2299 -0.5501
   71SLPC   C22 6133   5.849   4.998  10.392 -0.5892  0.2483  0.1333
   71SLPC   H2R 6134   5.868   4.896  10.351  0.7889 -0.5924  2.6734
   71SLPC   H2S 6135   5.779   4.988  10.477  2.3191 -2.1047  2.4721
   71SLPC    C3 6136   6.260   5.118  10.353  0.2026 -0.1164  0.6434
   71SLPC    HX 6137   6.359   5.154  10.389  0.4964  1.3577 -1.4881
   71SLPC    HY 6138   6.201   5.211  10.341  0.7268  0.7971  4.0773
   71SLPC   O31 6139   6.281   5.045  10.227 -0.4420 -0.5862  0.1597
   71SLPC   C31 6140   6.382   5.089  10.154 -0.1085  0.5509 -0.3454
   71SLPC   O32 6141   6.458   5.177  10.185 -0.1308 -0.1372  0.9582
   71SLPC   C32 6142   6.401   4.991  10.042  0.0804  0.2162  0.1899
   71SLPC   H2X 6143   6.330   5.026   9.965  1.4040  3.7884  0.3944
   71SLPC   H2Y 6144   6.378   4.888  10.076  1.9349 -0.6469 -1.0355
   71SLPC   C23 6145   5.795   5.092  10.281 -0.2715  0.2393  0.4261
   71SLPC   H3R 6146   5.874   5.097  10.202 -0.0050  0.4634  0.7035
   71SLPC   H3S 6147   5.781   5.199  10.304 -0.8094  0.3131 -0.2301
   71SLPC   C24 6148   5.668   5.032  10.213  0.0877 -0.9768 -0.4582
   71SLPC   H4R 6149   5.596   5.035  10.298  0.4050  0.8214 -0.2068
   71SLPC   H4S 6150   5.688   4.930  10.176 -1.3470 -2.5339  2.6282
   71SLPC   C25 6151   5.595   5.119  10.101  0.5802 -0.5110 -0.1948
   71SLPC   H5R 6152   5.664   5.146  10.019 -0.9707 -0.3498 -1.4802
   71SLPC   H5S 6153   5.572   5.215  10.151  0.3066 -0.7264  0.1064
   71SLPC   C26 6154   5.464   5.053  10.048  0.2727  0.1644 -0.4318
   71SLPC   H6R 6155   5.410   5.110   9.969 -0.5742 -2.1144 -1.6102
   71SLPC   H6S 6156   5.389   5.038  10.128 -1.8347 -0.3023 -2.3702
   71SLPC   C27 6157   5.477   4.914   9.980  0.4615  0.7691  0.2576
   71SLPC   H7R 6158   5.375   4.870   9.975  1.8783 -2.7280 -0.9275
   71SLPC   H7S 6159   5.531   4.843  10.046 -0.8720  1.6611  2.4279
   71SLPC   C28 6160   5.545   4.914   9.841 -0.0658  0.0428 -0.3628
   71SLPC   H8R 6161   5.548   4.806   9.815  2.6997  0.7239 -3.4646
   71SLPC   H8S 6162   5.652   4.938   9.859 -0.1122 -0.6703  1.0799
   71SLPC   C29 6163   5.484   4.989   9.730  0.6760 -0.1315  0.1002
   71SLPC   H9R 6164   5.394   4.937   9.695 -0.0465  0.5811  0.8614
   71SLPC  C210 6165   5.530   5.096   9.668  0.6104  0.1867  0.7923
   71SLPC  H10R 6166   5.471   5.146   9.590  0.7616 -1.1801 -0.2473
   71SLPC  C211 6167   5.658   5.176   9.694 -0.5711  0.5325  0.2701
   71SLPC  H11R 6168   5.730   5.173   9.609 -2.3991  0.1747 -1.3545
   71SLPC  H11S 6169   5.709   5.134   9.783 -0.3269 -2.0826 -1.0010
   71SLPC  C212 6170   5.621   5.320   9.724 -0.0522 -0.0828 -0.3162
   71SLPC  H12R 6171   5.597   5.339   9.830 -0.0294  1.6170 -0.5997
   71SLPC  C213 6172   5.610   5.420   9.632  0.7070  0.3298 -0.3595
   71SLPC  H13R 6173   5.572   5.518   9.664  0.0017 -0.0221 -0.0901
   71SLPC  C214 6174   5.630   5.398   9.485 -0.6841  0.1961  0.8449
   71SLPC  H14R 6175   5.545   5.438   9.425 -1.4260 -1.8965  0.3983
   71SLPC  H14S 6176   5.647   5.293   9.452 -2.0509  0.6430 -1.5530
   71SLPC  C215 6177   5.760   5.469   9.444  0.8215 -0.0086  0.9973
   71SLPC  H15R 6178   5.852   5.432   9.493  1.0470 -0.9503 -0.0914
   71SLPC  H15S 6179   5.746   5.577   9.467  1.0633  0.6296 -1.5619
   71SLPC  C216 6180   5.786   5.469   9.292  0.6768 -0.0955 -0.2086
   71SLPC  H16R 6181   5.699   5.523   9.249  0.6458  0.2896  0.3326
   71SLPC  H16S 6182   5.784   5.366   9.251 -1.0876 -0.2993  0.3402
   71SLPC  C217 6183   5.909   5.550   9.242 -0.2645  0.0536 -0.4215
   71SLPC  H17R 6184   5.996   5.525   9.307  0.4180  0.7783 -1.0369
   71SLPC  H17S 6185   5.882   5.657   9.247  1.0965  0.4638 -1.4088
   71SLPC  C218 6186   5.948   5.495   9.105 -0.1432 -0.0633  0.8779
   71SLPC  H18R 6187   6.055   5.501   9.077 -0.4101 -1.2648 -0.5200
   71SLPC  H18S 6188   5.889   5.530   9.018  0.8307 -2.7393 -0.9985
   71SLPC  H18T 6189   5.928   5.386   9.097  1.9778 -0.3684 -1.2118
   71SLPC   C33 6190   6.548   5.000   9.987 -0.1676 -0.4583 -0.2316
   71SLPC   H3X 6191   6.617   4.960  10.064 -1.4736  2.1654  2.4899
   71SLPC   H3Y 6192   6.583   5.105   9.975  0.4556 -0.3741  1.9456
   71SLPC   C34 6193   6.561   4.917   9.854  0.7458 -0.4804 -0.1159
   71SLPC   H4X 6194   6.493   4.829   9.853  0.1321 -0.0230  0.4315
   71SLPC   H4Y 6195   6.665   4.883   9.836  1.1673 -0.3931  1.9309
   71SLPC   C35 6196   6.517   5.001   9.731 -0.0828  0.3174  0.1492
   71SLPC   H5X 6197   6.580   5.092   9.738  0.7589 -0.0487 -1.8130
   71SLPC   H5Y 6198   6.411   5.032   9.734 -1.0046 -2.6218  1.2369
   71SLPC   C36 6199   6.556   4.933   9.602  0.0923 -0.2594 -0.7718
   71SLPC   H6X 6200   6.656   4.889   9.622 -0.5371 -1.1970  0.4454
   71SLPC   H6Y 6201   6.560   5.007   9.519  1.9467 -1.4009 -1.7638
   71SLPC   C37 6202   6.454   4.821   9.550  0.4662  0.1252 -0.4913
   71SLPC   H7X 6203   6.349   4.858   9.546  0.4859  0.4348  1.2143
   71SLPC   H7Y 6204   6.463   4.736   9.621  0.6790  1.0053  0.5463
   71SLPC   C38 6205   6.487   4.767   9.411 -0.2298  0.2270  0.0860
   71SLPC   H8X 6206   6.391   4.718   9.382 -0.2876  0.6518 -0.4514
   71SLPC   H8Y 6207   6.560   4.683   9.419 -0.5560 -0.8686 -4.8540
   71SLPC   C39 6208   6.525   4.866   9.299 -0.0833 -0.0214 -0.4289
   71SLPC   H9X 6209   6.624   4.904   9.331 -0.7147  1.0151  0.3622
   71SLPC   H9Y 6210   6.449   4.947   9.301 -0.0882 -0.0238  1.1536
   71SLPC  C310 6211   6.529   4.795   9.166 -0.2765 -0.1849  0.5430
   71SLPC  H10X 6212   6.423   4.768   9.144  0.1552 -0.9877 -0.6661
   71SLPC  H10Y 6213   6.586   4.700   9.178  2.4003  1.0348 -1.6712
   71SLPC  C311 6214   6.585   4.876   9.049  0.7337  0.1384 -0.2149
   71SLPC  H11X 6215   6.692   4.903   9.066  0.7642  0.5750 -1.0566
   71SLPC  H11Y 6216   6.540   4.973   9.080 -0.5790 -0.2288 -0.9171
   71SLPC  C312 6217   6.553   4.848   8.899 -0.9026  0.1256  0.4689
   71SLPC  H12X 6218   6.596   4.937   8.847 -0.1416  0.1410  1.0982
   71SLPC  H12Y 6219   6.444   4.838   8.886 -0.7444 -1.0201 -0.0441
   71SLPC  C313 6220   6.622   4.719   8.856  0.1733  0.5583  0.4144
   71SLPC  H13X 6221   6.567   4.633   8.900  1.2379 -0.4647 -0.1959
   71SLPC  H13Y 6222   6.728   4.715   8.888 -0.9046 -0.9314  4.4083
   71SLPC  C314 6223   6.619   4.698   8.700  0.3027 -0.0846 -0.2923
   71SLPC  H14X 6224   6.667   4.787   8.654  0.7626 -1.0344 -1.7322
   71SLPC  H14Y 6225   6.514   4.691   8.665  0.0813 -1.0406  0.5300
   71SLPC  C315 6226   6.680   4.573   8.652  0.0343 -0.1668  0.5766
   71SLPC  H15X 6227   6.752   4.510   8.710  0.9343  0.3954  0.0899
   71SLPC  H15Y 6228   6.740   4.607   8.566 -0.9582  0.0124 -0.0541
   71SLPC  C316 6229   6.567   4.468   8.609 -0.2685  0.4234 -0.1387
   71SLPC  H16X 6230   6.616   4.384   8.555  1.4319  1.5571 -0.4484
   71SLPC  H16Y 6231   6.495   4.517   8.540 -1.0050  0.1137  0.3918
   71SLPC  C317 6232   6.491   4.404   8.715  0.4327 -0.2217  0.0915
   71SLPC  H17X 6233   6.426   4.480   8.763 -0.8504 -0.0956 -1.7538
   71SLPC  H17Y 6234   6.560   4.363   8.793  1.0728  2.0645  0.7904
   71SLPC  C318 6235   6.402   4.287   8.661  0.6685 -0.4340 -0.1469
   71SLPC  H18X 6236   6.352   4.320   8.567 -1.2297 -0.8890  0.6480
   71SLPC  H18Y 6237   6.321   4.262   8.733  1.3469  1.2970  1.2879
   71SLPC  H18Z 6238   6.462   4.194   8.657  0.6934 -0.3906 -1.0799
   72SLPC     N 6239   0.329   3.002  10.760  0.0757  0.2141  0.1657
   72SLPC   C13 6240   0.373   2.966  10.621  0.3864  0.6096 -0.3835
   72SLPC  H13A 6241   0.449   3.033  10.584 -0.1897  3.2155  2.7392
   72SLPC  H13B 6242   0.426   2.872  10.612 -0.3277  0.0454  1.0173
   72SLPC  H13C 6243   0.289   2.963  10.553 -0.9754  1.4427  1.1941
   72SLPC   C14 6244   0.449   2.986  10.848  0.2223 -0.2145  0.0030
   72SLPC  H14A 6245   0.405   2.976  10.946  1.1057 -0.3589  0.3861
   72SLPC  H14B 6246   0.524   2.910  10.835  0.7304  0.3343 -0.3114
   72SLPC  H14C 6247   0.513   3.073  10.851  0.8193 -0.6426 -0.1215
   72SLPC   C15 6248   0.220   2.919  10.800  0.4338  0.2401 -0.0292
   72SLPC  H15A 6249   0.239   2.815  10.819 -0.0950 -0.6438 -3.5840
   72SLPC  H15B 6250   0.159   2.958  10.881  0.5739 -1.8659  1.1468
   72SLPC  H15C 6251   0.138   2.917  10.729 -0.6798 -0.0121  1.2147
   72SLPC   C12 6252   0.287   3.147  10.761  0.1875  0.6895  0.2299
   72SLPC  H12A 6253   0.374   3.209  10.744  0.2050  0.1884 -1.7805
   72SLPC  H12B 6254   0.245   3.159  10.860  1.1493 -1.7283  1.0183
   72SLPC   C11 6255   0.188   3.202  10.654  1.4525  0.0713  0.2949
   72SLPC  H11A 6256   0.232   3.188  10.553  0.6807 -2.1942  0.2134
   72SLPC  H11B 6257   0.194   3.312  10.670  0.2514  0.3578 -1.0337
   72SLPC     P 6258  -0.063   3.233  10.736  0.0891  0.2753 -0.2522
   72SLPC   O13 6259  -0.189   3.163  10.745 -0.4899 -0.5465  0.6340
   72SLPC   O14 6260  -0.016   3.287  10.864 -0.2687 -0.1254  0.0345
   72SLPC   O12 6261   0.051   3.144  10.669  0.0362 -1.1672 -0.0444
   72SLPC   O11 6262  -0.070   3.349  10.639  0.0378 -0.0253  0.2221
   72SLPC    C1 6263  -0.191   3.382  10.566 -0.1971  0.3068  0.1053
   72SLPC    HA 6264  -0.280   3.380  10.632 -1.2395 -1.9712 -1.2414
   72SLPC    HB 6265  -0.185   3.487  10.528 -2.5164  0.5960  0.3650
   72SLPC    C2 6266  -0.215   3.286  10.445 -0.0860  0.3974  0.1918
   72SLPC    HS 6267  -0.231   3.181  10.478 -3.1433  0.5135 -0.5815
   72SLPC   O21 6268  -0.098   3.294  10.357  0.2522  0.1275  0.0406
   72SLPC   C21 6269  -0.050   3.177  10.315  0.1905 -0.3082  0.1831
   72SLPC   O22 6270  -0.086   3.068  10.356 -0.2096 -0.1049 -0.2912
   72SLPC   C22 6271   0.074   3.197  10.226  0.1535  0.2248  0.3793
   72SLPC   H2R 6272   0.074   3.300  10.184 -0.2269  0.2405  0.4123
   72SLPC   H2S 6273   0.164   3.193  10.292  2.3140 -1.3961 -2.4454
   72SLPC    C3 6274  -0.344   3.319  10.363  0.2825 -0.6634 -0.8349
   72SLPC    HX 6275  -0.343   3.425  10.328 -0.9027 -0.0982  0.7002
   72SLPC    HY 6276  -0.428   3.316  10.436  1.7711  1.2041  1.0988
   72SLPC   O31 6277  -0.364   3.226  10.252 -1.2267 -0.3722 -0.1653
   72SLPC   C31 6278  -0.456   3.133  10.253 -0.0605 -0.4107 -0.2993
   72SLPC   O32 6279  -0.529   3.106  10.347  0.2700  0.0696 -0.1032
   72SLPC   C32 6280  -0.441   3.055  10.122  0.2232  0.3101 -0.2586
   72SLPC   H2X 6281  -0.517   2.974  10.133  1.5078 -0.6969  1.8063
   72SLPC   H2Y 6282  -0.344   3.002  10.125 -0.6409 -1.3921 -0.8008
   72SLPC   C23 6283   0.095   3.084  10.127 -0.5900 -0.0474  0.6707
   72SLPC   H3R 6284   0.083   2.985  10.175 -0.3079 -0.3138  0.1922
   72SLPC   H3S 6285   0.199   3.086  10.088 -0.3847  3.2646  1.0729
   72SLPC   C24 6286   0.001   3.091  10.006  0.2530  0.0445  0.2188
   72SLPC   H4R 6287  -0.088   3.151  10.034  0.1450 -0.5387  1.1697
   72SLPC   H4S 6288  -0.039   2.988   9.997 -2.0208  0.4990  3.3471
   72SLPC   C25 6289   0.071   3.136   9.874 -0.5744 -0.2591 -0.2005
   72SLPC   H5R 6290   0.162   3.073   9.865  0.6437  0.9551  2.4758
   72SLPC   H5S 6291   0.104   3.241   9.887 -0.5344 -0.3769  0.6594
   72SLPC   C26 6292  -0.007   3.115   9.752 -0.2700 -0.0165  0.3717
   72SLPC   H6R 6293  -0.105   3.167   9.754 -0.2065  0.2469 -1.4629
   72SLPC   H6S 6294  -0.025   3.006   9.744 -4.0457  0.4010  1.2072
   72SLPC   C27 6295   0.065   3.175   9.632  0.0713  0.1287 -0.0100
   72SLPC   H7R 6296   0.171   3.142   9.634 -0.2375 -0.8592  0.8940
   72SLPC   H7S 6297   0.081   3.284   9.644  0.9997 -0.0858  0.7908
   72SLPC   C28 6298  -0.004   3.143   9.496  0.1230  0.5615 -0.7112
   72SLPC   H8R 6299  -0.103   3.188   9.474 -0.5480 -0.9517 -0.8836
   72SLPC   H8S 6300  -0.016   3.033   9.493 -0.2875  0.4348  2.6214
   72SLPC   C29 6301   0.099   3.199   9.401 -0.0712  0.0654  0.1951
   72SLPC   H9R 6302   0.151   3.293   9.424  0.8090 -0.9226  2.6432
   72SLPC  C210 6303   0.134   3.139   9.286  0.2006  0.5965  0.2159
   72SLPC  H10R 6304   0.212   3.194   9.230 -2.0068  1.8893 -1.7363
   72SLPC  C211 6305   0.085   3.015   9.223 -0.2346  0.2930  0.1492
   72SLPC  H11R 6306   0.018   2.950   9.284  0.0567  0.3187  0.4997
   72SLPC  H11S 6307   0.162   2.947   9.181 -1.0290 -0.3720 -0.2561
   72SLPC  C212 6308  -0.013   3.064   9.117  0.6098 -0.6890  0.7210
   72SLPC  H12R 6309  -0.094   3.133   9.145 -0.0193 -0.3895 -1.6393
   72SLPC  C213 6310  -0.017   3.022   8.990 -0.7765 -0.2774  0.7075
   72SLPC  H13R 6311  -0.069   3.082   8.914 -2.6734 -1.9932  0.5691
   72SLPC  C214 6312   0.078   2.916   8.924  0.5423  0.0520  1.1111
   72SLPC  H14R 6313   0.030   2.859   8.842  0.1673 -0.6458  1.8099
   72SLPC  H14S 6314   0.101   2.838   9.000 -2.0861 -1.1139  0.8078
   72SLPC  C215 6315   0.205   2.971   8.858  0.1629 -0.6565  0.2056
   72SLPC  H15R 6316   0.252   2.880   8.813  0.4209  0.2575 -1.4505
   72SLPC  H15S 6317   0.264   3.016   8.941 -0.7280 -0.7992  0.9326
   72SLPC  C216 6318   0.171   3.082   8.754  0.9709 -0.4114 -0.6695
   72SLPC  H16R 6319   0.117   3.168   8.800  2.9597  0.9920 -0.8263
   72SLPC  H16S 6320   0.123   3.039   8.664  0.7060  1.2110 -1.3410
   72SLPC  C217 6321   0.301   3.141   8.698 -0.7658  0.0414  0.5431
   72SLPC  H17R 6322   0.389   3.074   8.708 -2.0451 -1.8091  0.0769
   72SLPC  H17S 6323   0.320   3.238   8.748 -0.8085  0.8136 -0.8813
   72SLPC  C218 6324   0.306   3.147   8.543 -0.9850 -0.1624 -0.4621
   72SLPC  H18R 6325   0.289   3.047   8.499  0.7187 -0.6156 -0.1653
   72SLPC  H18S 6326   0.406   3.192   8.524 -0.7572  0.6076  2.0976
   72SLPC  H18T 6327   0.231   3.224   8.515 -0.7097 -0.2498 -1.4832
   72SLPC   C33 6328  -0.480   3.121   9.987 -0.3187  0.7871 -0.0458
   72SLPC   H3X 6329  -0.419   3.214   9.978  0.6004 -0.0391 -3.8122
   72SLPC   H3Y 6330  -0.585   3.159   9.995 -0.2976  1.0072 -0.7819
   72SLPC   C34 6331  -0.459   3.025   9.866  0.3790 -0.2968  1.0235
   72SLPC   H4X 6332  -0.512   2.930   9.886  0.1441 -0.3577  0.1606
   72SLPC   H4Y 6333  -0.355   2.997   9.838 -0.2096 -1.1711 -0.4052
   72SLPC   C35 6334  -0.515   3.094   9.738 -0.2389 -0.4606  0.1825
   72SLPC   H5X 6335  -0.457   3.189   9.744  1.4740 -1.4888  0.5860
   72SLPC   H5Y 6336  -0.621   3.122   9.752 -0.1418  0.9558 -1.6113
   72SLPC   C36 6337  -0.497   3.030   9.602 -0.8637 -0.1428 -0.5014
   72SLPC   H6X 6338  -0.568   3.069   9.526 -2.9485 -0.6753  1.0991
   72SLPC   H6Y 6339  -0.522   2.923   9.616  0.6078 -0.5232 -0.5907
   72SLPC   C37 6340  -0.360   3.052   9.545 -0.4680 -0.3312  0.2337
   72SLPC   H7X 6341  -0.298   2.988   9.612 -1.0692 -0.4386  0.6930
   72SLPC   H7Y 6342  -0.340   3.161   9.554 -4.8871  0.4791  3.3504
   72SLPC   C38 6343  -0.339   3.018   9.395 -0.8422 -0.6515  0.5899
   72SLPC   H8X 6344  -0.422   2.951   9.365  0.4934 -2.5752  1.0568
   72SLPC   H8Y 6345  -0.245   2.969   9.363  0.0563  1.7326 -0.6763
   72SLPC   C39 6346  -0.362   3.138   9.300  0.2508 -0.6707  0.6062
   72SLPC   H9X 6347  -0.279   3.212   9.305  0.2630 -0.6047 -0.4731
   72SLPC   H9Y 6348  -0.453   3.190   9.336  0.5389  0.8442 -0.7444
   72SLPC  C310 6349  -0.377   3.091   9.157  0.4411 -0.5178  0.1294
   72SLPC  H10X 6350  -0.361   2.981   9.144  1.9620 -0.0328 -3.0278
   72SLPC  H10Y 6351  -0.322   3.148   9.080 -1.4243  0.9241 -0.2086
   72SLPC  C311 6352  -0.525   3.098   9.126 -0.0664 -0.2048 -0.2488
   72SLPC  H11X 6353  -0.543   3.208   9.122  0.6613 -0.1094 -3.9133
   72SLPC  H11Y 6354  -0.581   3.050   9.209  0.4120  0.8411  0.7248
   72SLPC  C312 6355  -0.570   3.021   8.995 -0.0406  0.2506 -0.8434
   72SLPC  H12X 6356  -0.678   3.045   8.994 -0.2447  0.0214  2.8070
   72SLPC  H12Y 6357  -0.555   2.914   9.022  1.8712  0.3847 -1.2150
   72SLPC  C313 6358  -0.499   3.065   8.864 -0.1020 -0.1580 -0.0729
   72SLPC  H13X 6359  -0.389   3.059   8.877 -0.2729  0.7265  2.2203
   72SLPC  H13Y 6360  -0.526   3.172   8.848  0.0995 -0.1566 -0.4269
   72SLPC  C314 6361  -0.542   2.993   8.738  0.4461  0.2594  0.0319
   72SLPC  H14X 6362  -0.499   3.047   8.651 -1.5424 -1.2162 -1.9789
   72SLPC  H14Y 6363  -0.652   3.010   8.728  0.7880  2.1035 -0.9503
   72SLPC  C315 6364  -0.512   2.839   8.740 -0.7026 -0.0087  0.2847
   72SLPC  H15X 6365  -0.569   2.804   8.652 -0.8999  1.6410 -0.2773
   72SLPC  H15Y 6366  -0.540   2.788   8.835  0.5150 -0.5197  0.3805
   72SLPC  C316 6367  -0.369   2.797   8.730 -0.3998 -0.7350 -0.6211
   72SLPC  H16X 6368  -0.326   2.833   8.826 -0.3395  1.8629 -1.5395
   72SLPC  H16Y 6369  -0.306   2.838   8.649 -0.1305 -0.7912 -0.4421
   72SLPC  C317 6370  -0.360   2.640   8.752 -0.6600  0.5923  0.1607
   72SLPC  H17X 6371  -0.420   2.593   8.671 -1.1562  0.6421  0.4906
   72SLPC  H17Y 6372  -0.403   2.616   8.851  1.5499  2.6425  1.7238
   72SLPC  C318 6373  -0.216   2.579   8.753 -0.2426 -0.0851 -0.2151
   72SLPC  H18X 6374  -0.175   2.560   8.651  0.9147 -0.6545  0.3352
   72SLPC  H18Y 6375  -0.214   2.482   8.807  0.3311 -0.0197 -0.1098
   72SLPC  H18Z 6376  -0.144   2.645   8.805 -1.2962  0.7719  0.1876
   73SLPC     N 6377   6.721   1.181  11.141 -0.0069 -0.9736  0.2231
   73SLPC   C13 6378   6.652   1.049  11.139  0.2007 -0.1479 -0.6933
   73SLPC  H13A 6379   6.648   1.010  11.240  1.3075  0.3842 -0.4310
   73SLPC  H13B 6380   6.548   1.057  11.114  0.2263  0.2667 -0.6705
   73SLPC  H13C 6381   6.701   0.977  11.075  1.6851  1.6409 -1.6592
   73SLPC   C14 6382   6.862   1.152  11.195 -0.6439 -0.0770  0.6006
   73SLPC  H14A 6383   6.857   1.114  11.296  2.5251 -0.1697  0.8276
   73SLPC  H14B 6384   6.928   1.092  11.134 -0.1320  0.4294  0.6431
   73SLPC  H14C 6385   6.907   1.249  11.214  0.2864 -0.2728 -0.4788
   73SLPC   C15 6386   6.645   1.275  11.238 -0.5962  0.4812 -0.1868
   73SLPC  H15A 6387   6.633   1.226  11.333  1.2049 -0.8347 -0.5639
   73SLPC  H15B 6388   6.695   1.370  11.243  0.5026 -0.0691 -0.2448
   73SLPC  H15C 6389   6.544   1.283  11.202  0.2701  1.0464 -2.6925
   73SLPC   C12 6390   6.720   1.249  11.005 -0.5482  0.0578 -0.1944
   73SLPC  H12A 6391   6.766   1.345  11.020 -1.2205  0.0046  2.8906
   73SLPC  H12B 6392   6.619   1.264  10.970 -0.1351 -0.0959 -1.5094
   73SLPC   C11 6393   6.798   1.182  10.892  0.2789 -0.0430 -0.4439
   73SLPC  H11A 6394   6.771   1.220  10.792  1.1024  2.3593  0.1749
   73SLPC  H11B 6395   6.763   1.076  10.889  1.2122 -0.3400 -1.2750
   73SLPC     P 6396   7.025   1.297  10.861  0.1728 -0.1227 -0.2875
   73SLPC   O13 6397   6.968   1.428  10.894  0.0236 -0.0929 -0.6806
   73SLPC   O14 6398   7.167   1.274  10.900  0.5695  0.1615 -0.4093
   73SLPC   O12 6399   6.939   1.180  10.916  0.2145 -0.2474 -0.3864
   73SLPC   O11 6400   7.020   1.279  10.701 -0.3647 -0.0715  0.3329
   73SLPC    C1 6401   7.047   1.154  10.642 -0.6470  0.7458  0.4952
   73SLPC    HA 6402   7.133   1.105  10.693 -2.2045 -1.6135  1.0213
   73SLPC    HB 6403   6.956   1.091  10.653 -1.0194  0.3731 -3.3086
   73SLPC    C2 6404   7.091   1.176  10.491  0.1618 -0.4805 -0.3232
   73SLPC    HS 6405   7.174   1.249  10.494 -0.9786  0.8392 -0.3200
   73SLPC   O21 6406   6.985   1.229  10.420 -0.5104 -0.5740 -0.2975
   73SLPC   C21 6407   6.981   1.362  10.391 -0.2149  0.2787  1.0131
   73SLPC   O22 6408   7.070   1.444  10.409 -0.1009 -0.2391  0.0691
   73SLPC   C22 6409   6.846   1.400  10.341  0.3343 -0.6563 -0.5120
   73SLPC   H2R 6410   6.768   1.365  10.412 -0.3070 -0.2155 -0.9917
   73SLPC   H2S 6411   6.851   1.510  10.332  2.0109 -0.6324  0.2372
   73SLPC    C3 6412   7.151   1.037  10.435  0.2388 -0.2722 -0.1965
   73SLPC    HX 6413   7.062   0.973  10.452 -2.1904  2.6710 -0.7931
   73SLPC    HY 6414   7.235   1.004  10.499  0.6703 -1.3176 -1.2783
   73SLPC   O31 6415   7.193   1.049  10.297 -0.7435 -0.0228  0.4897
   73SLPC   C31 6416   7.137   0.979  10.205  1.0767 -0.1738  0.3073
   73SLPC   O32 6417   7.038   0.910  10.220  0.0226  0.5518 -0.0870
   73SLPC   C32 6418   7.186   1.014  10.069  0.2462 -0.1748 -0.4602
   73SLPC   H2X 6419   7.272   1.082  10.082  1.9154 -2.5600  2.1866
   73SLPC   H2Y 6420   7.098   1.057  10.016 -1.3236 -1.5305  0.9078
   73SLPC   C23 6421   6.805   1.344  10.199 -0.1345 -0.0946  0.3488
   73SLPC   H3R 6422   6.698   1.371  10.188 -0.0720  0.9611  2.0366
   73SLPC   H3S 6423   6.818   1.234  10.212  0.7394  0.1622  1.8194
   73SLPC   C24 6424   6.885   1.402  10.079  0.0192  0.2206 -0.3095
   73SLPC   H4R 6425   6.992   1.372  10.078  0.2560  0.7102  2.4242
   73SLPC   H4S 6426   6.893   1.513  10.081 -2.7750  0.4777  0.4116
   73SLPC   C25 6427   6.818   1.353   9.951 -0.2911 -0.7346  0.3035
   73SLPC   H5R 6428   6.707   1.358   9.951 -0.3976 -2.4626 -0.0578
   73SLPC   H5S 6429   6.846   1.245   9.947 -0.6604 -0.8071 -0.7455
   73SLPC   C26 6430   6.870   1.428   9.823  0.6266  0.2791 -0.1749
   73SLPC   H6R 6431   6.979   1.410   9.808  0.2759  0.1227 -3.2777
   73SLPC   H6S 6432   6.850   1.536   9.840  0.0910  0.1280  0.1777
   73SLPC   C27 6433   6.799   1.375   9.692 -0.3866  0.3210 -0.7627
   73SLPC   H7R 6434   6.700   1.425   9.686  0.5404  2.1275 -2.7112
   73SLPC   H7S 6435   6.771   1.268   9.702  1.6750 -0.3625 -1.7798
   73SLPC   C28 6436   6.883   1.389   9.562 -0.4750  0.2356  0.3683
   73SLPC   H8R 6437   6.855   1.308   9.492  0.7659 -1.0592  1.3128
   73SLPC   H8S 6438   6.983   1.352   9.595  0.0119  2.0402  1.0425
   73SLPC   C29 6439   6.903   1.530   9.508 -0.1683 -0.4967  0.8643
   73SLPC   H9R 6440   6.928   1.611   9.578  0.5133  0.7085 -0.7003
   73SLPC  C210 6441   6.894   1.573   9.380  0.7620 -0.0358  0.1357
   73SLPC  H10R 6442   6.921   1.677   9.356 -0.6573  0.1094 -0.9932
   73SLPC  C211 6443   6.854   1.488   9.260 -0.4505 -0.3314 -0.0400
   73SLPC  H11R 6444   6.917   1.400   9.238  0.6890 -0.2782  2.6129
   73SLPC  H11S 6445   6.881   1.555   9.175 -0.9067 -0.1541 -0.0479
   73SLPC  C212 6446   6.704   1.460   9.260  0.6149 -0.1539  0.6986
   73SLPC  H12R 6447   6.683   1.366   9.312  1.1372  0.3911  1.9569
   73SLPC  C213 6448   6.614   1.554   9.219 -0.6231  0.0766  0.0552
   73SLPC  H13R 6449   6.506   1.532   9.220 -0.8835  1.3134 -0.3166
   73SLPC  C214 6450   6.646   1.690   9.165  0.1888 -0.7474 -0.0816
   73SLPC  H14R 6451   6.751   1.713   9.194 -0.1171  1.5233 -0.6537
   73SLPC  H14S 6452   6.571   1.759   9.210  0.6407 -0.2810 -0.0356
   73SLPC  C215 6453   6.647   1.696   9.013  0.3376  0.2312 -0.0635
   73SLPC  H15R 6454   6.574   1.622   8.975  0.1907  0.4886 -0.2888
   73SLPC  H15S 6455   6.744   1.672   8.965 -0.2207  2.6070 -2.6699
   73SLPC  C216 6456   6.601   1.828   8.958  0.0002 -0.1671  0.2050
   73SLPC  H16R 6457   6.650   1.906   9.020  2.6542 -1.3531 -0.2767
   73SLPC  H16S 6458   6.490   1.838   8.958 -0.0004 -0.1780  0.2352
   73SLPC  C217 6459   6.642   1.859   8.806 -0.0599  0.2527 -0.2437
   73SLPC  H17R 6460   6.581   1.786   8.749 -0.9730 -0.8186  1.9750
   73SLPC  H17S 6461   6.747   1.823   8.792 -0.6032 -1.3518 -0.3645
   73SLPC  C218 6462   6.617   1.999   8.763 -0.1071  0.2344 -0.2583
   73SLPC  H18R 6463   6.640   2.003   8.655  0.4927 -1.2773 -0.1966
   73SLPC  H18S 6464   6.698   2.059   8.810  1.4709 -0.3231 -2.1406
   73SLPC  H18T 6465   6.518   2.046   8.784  0.4069  1.6326 -0.8198
   73SLPC   C33 6466   7.231   0.896   9.984 -0.4519 -0.3882  0.4490
   73SLPC   H3X 6467   7.147   0.824   9.972 -1.5886  1.2009 -1.5835
   73SLPC   H3Y 6468   7.310   0.846  10.045  0.8506  1.8723  0.7408
   73SLPC   C34 6469   7.305   0.939   9.856 -0.3667  0.5280  0.1181
   73SLPC   H4X 6470   7.325   0.846   9.798 -1.1922  0.5319 -0.1821
   73SLPC   H4Y 6471   7.406   0.978   9.883 -0.1823 -0.5516  1.0777
   73SLPC   C35 6472   7.227   1.032   9.759 -0.1657 -0.1376 -0.2951
   73SLPC   H5X 6473   7.191   1.113   9.827 -2.6079 -3.0146  2.1142
   73SLPC   H5Y 6474   7.141   0.975   9.719 -1.4108  0.4989  1.3344
   73SLPC   C36 6475   7.298   1.084   9.634  0.3201 -0.1319  0.2297
   73SLPC   H6X 6476   7.320   1.000   9.565  0.2665 -1.8592  2.2355
   73SLPC   H6Y 6477   7.398   1.129   9.653  1.1234 -0.7966 -2.1136
   73SLPC   C37 6478   7.207   1.174   9.555 -0.3877  0.2593 -0.1827
   73SLPC   H7X 6479   7.183   1.260   9.621  0.1396  1.4134 -1.4580
   73SLPC   H7Y 6480   7.116   1.119   9.522 -1.8973  1.7224  1.3395
   73SLPC   C38 6481   7.272   1.238   9.427 -0.5648  1.0980 -0.7271
   73SLPC   H8X 6482   7.332   1.156   9.382  0.6934  0.6217  1.7006
   73SLPC   H8Y 6483   7.346   1.316   9.455  1.1983 -1.2363  1.5482
   73SLPC   C39 6484   7.170   1.284   9.320  0.2242  0.9782 -0.6768
   73SLPC   H9X 6485   7.124   1.376   9.360 -0.4342 -0.1254  1.2471
   73SLPC   H9Y 6486   7.086   1.218   9.291 -1.5666  2.5174  0.8288
   73SLPC  C310 6487   7.246   1.325   9.197  0.3935  0.5965  0.6896
   73SLPC  H10X 6488   7.319   1.245   9.172  1.5204  1.9644 -0.6732
   73SLPC  H10Y 6489   7.316   1.409   9.218  1.8164  0.0629 -1.5173
   73SLPC  C311 6490   7.151   1.359   9.086  0.4747  0.2585 -0.0089
   73SLPC  H11X 6491   7.108   1.457   9.116 -1.5774 -0.3732 -0.7057
   73SLPC  H11Y 6492   7.064   1.290   9.078 -0.5020  1.0592  2.5138
   73SLPC  C312 6493   7.224   1.373   8.952  0.9343 -0.3426 -0.5269
   73SLPC  H12X 6494   7.298   1.454   8.969 -1.2504  1.2334  2.3869
   73SLPC  H12Y 6495   7.153   1.409   8.874 -0.7481  0.2108  1.1747
   73SLPC  C313 6496   7.314   1.252   8.909  0.1813 -0.5397  0.0115
   73SLPC  H13X 6497   7.397   1.240   8.982  0.6330 -0.2035 -0.4415
   73SLPC  H13Y 6498   7.359   1.285   8.813 -0.5096 -1.3171 -0.5887
   73SLPC  C314 6499   7.234   1.122   8.880  0.2542 -0.8147 -0.2877
   73SLPC  H14X 6500   7.166   1.142   8.795  1.8077  0.3620 -1.2911
   73SLPC  H14Y 6501   7.180   1.087   8.971 -1.5624 -0.8052 -1.3265
   73SLPC  C315 6502   7.319   0.999   8.839  0.2239  0.8424 -0.1654
   73SLPC  H15X 6503   7.251   0.912   8.831 -1.2182  1.9685 -0.7165
   73SLPC  H15Y 6504   7.368   0.971   8.934  1.1888  3.4314  0.1772
   73SLPC  C316 6505   7.414   1.007   8.720  0.4531  0.4471 -0.1572
   73SLPC  H16X 6506   7.467   0.914   8.689  0.5638  0.4964 -0.1142
   73SLPC  H16Y 6507   7.489   1.084   8.749  1.0466 -0.2678  0.2369
   73SLPC  C317 6508   7.346   1.049   8.585  1.0680 -0.4206  0.3815
   73SLPC  H17X 6509   7.292   1.144   8.604 -0.7770 -1.5150  0.9404
   73SLPC  H17Y 6510   7.262   0.980   8.560  0.7800  0.6985 -1.9729
   73SLPC  C318 6511   7.432   1.075   8.466  0.1889 -0.2202 -0.4619
   73SLPC  H18X 6512   7.382   1.048   8.371  2.2191 -1.7871 -1.1750
   73SLPC  H18Y 6513   7.522   1.010   8.476  0.0040 -0.6029 -1.1999
   73SLPC  H18Z 6514   7.458   1.182   8.452 -4.4440  1.3006  0.8430
   74SLPC     N 6515   1.155   0.996  10.847 -0.6462  0.0387  0.0924
   74SLPC   C13 6516   1.113   0.912  10.961  0.2388  0.4430 -0.3149
   74SLPC  H13A 6517   1.160   0.951  11.051 -1.1166 -1.6271  1.3864
   74SLPC  H13B 6518   1.007   0.913  10.981  0.4287 -1.2768  1.0211
   74SLPC  H13C 6519   1.145   0.809  10.956  0.3974  0.3431  1.8274
   74SLPC   C14 6520   1.101   0.935  10.720 -0.3476 -0.2725  0.3268
   74SLPC  H14A 6521   1.132   0.834  10.700  2.4214  0.2789  1.2871
   74SLPC  H14B 6522   0.994   0.940  10.717 -0.3686 -0.2820  1.0104
   74SLPC  H14C 6523   1.139   0.992  10.636  1.9043 -1.1307  0.6703
   74SLPC   C15 6524   1.304   0.984  10.843  0.0985  0.5877 -0.4291
   74SLPC  H15A 6525   1.337   1.031  10.935 -0.3620  2.0252 -0.9621
   74SLPC  H15B 6526   1.345   0.885  10.853  1.5299  0.7703 -3.3371
   74SLPC  H15C 6527   1.342   1.030  10.752 -1.6786 -0.6050 -1.8446
   74SLPC   C12 6528   1.116   1.139  10.863  0.0328 -0.2300  0.3008
   74SLPC  H12A 6529   1.155   1.198  10.782 -0.5240  0.5190  0.5709
   74SLPC  H12B 6530   1.158   1.180  10.953  0.6669 -1.2178  0.4781
   74SLPC   C11 6531   0.966   1.165  10.862  0.0990  0.2693  0.0130
   74SLPC  H11A 6532   0.959   1.274  10.881  1.3266  0.0560  1.9297
   74SLPC  H11B 6533   0.917   1.100  10.939 -0.7821 -0.2668 -0.9708
   74SLPC     P 6534   0.768   1.161  10.693 -0.3665 -0.0694 -0.2971
   74SLPC   O13 6535   0.683   1.046  10.712 -0.0995  0.0731  0.5233
   74SLPC   O14 6536   0.725   1.280  10.768 -0.3916 -0.0931 -0.0620
   74SLPC   O12 6537   0.914   1.135  10.729 -0.4324  0.1815 -0.9762
   74SLPC   O11 6538   0.783   1.184  10.540  0.4936 -0.1991  0.3623
   74SLPC    C1 6539   0.882   1.117  10.462 -0.4774  0.3367  0.0976
   74SLPC    HA 6540   0.985   1.126  10.503  0.4324 -2.2753 -1.3552
   74SLPC    HB 6541   0.856   1.009  10.471 -0.8963  0.5236  1.3346
   74SLPC    C2 6542   0.880   1.160  10.309  0.7517  1.0585 -0.5969
   74SLPC    HS 6543   0.954   1.102  10.249  0.8772 -0.1851  0.7009
   74SLPC   O21 6544   0.897   1.297  10.305 -0.3209  0.4823  0.9743
   74SLPC   C21 6545   1.024   1.339  10.323 -0.1961 -0.3985  0.0099
   74SLPC   O22 6546   1.120   1.266  10.308 -0.2309 -0.8798 -0.4759
   74SLPC   C22 6547   1.036   1.492  10.318 -0.3545  0.0777 -0.9902
   74SLPC   H2R 6548   0.983   1.531  10.408 -1.4221 -0.9870 -1.1425
   74SLPC   H2S 6549   1.145   1.514  10.317 -0.9031  3.3893 -1.8288
   74SLPC    C3 6550   0.742   1.135  10.241  0.2803 -0.2879 -0.0950
   74SLPC    HX 6551   0.670   1.180  10.312  1.2354 -0.1577  0.8086
   74SLPC    HY 6552   0.720   1.026  10.240 -1.7459  0.0829 -0.1894
   74SLPC   O31 6553   0.739   1.183  10.102  0.0340 -0.0399  0.3055
   74SLPC   C31 6554   0.681   1.298  10.084 -0.5218 -0.2811 -0.7980
   74SLPC   O32 6555   0.645   1.379  10.168  0.5506  0.6160 -0.7566
   74SLPC   C32 6556   0.671   1.321   9.934  0.8018  0.3027  0.1876
   74SLPC   H2X 6557   0.631   1.230   9.883 -0.3756  1.2159 -0.5540
   74SLPC   H2Y 6558   0.772   1.349   9.896  1.8906 -0.9012  2.0098
   74SLPC   C23 6559   0.974   1.564  10.198 -0.2292 -0.0003 -0.1664
   74SLPC   H3R 6560   0.967   1.673  10.218 -1.2177  0.2067 -1.4945
   74SLPC   H3S 6561   0.875   1.524  10.167  1.2620 -2.1217 -2.5472
   74SLPC   C24 6562   1.050   1.540  10.065 -0.2410 -0.4883  0.6625
   74SLPC   H4R 6563   1.075   1.432  10.053  1.9091  0.0950 -0.5776
   74SLPC   H4S 6564   1.144   1.598  10.071 -1.7341  2.2057 -0.1455
   74SLPC   C25 6565   0.977   1.587   9.937  0.2467  0.6495  0.8861
   74SLPC   H5R 6566   0.937   1.690   9.931 -0.1495  0.4423 -3.9307
   74SLPC   H5S 6567   0.896   1.512   9.920  1.1564 -0.4834  1.3833
   74SLPC   C26 6568   1.070   1.571   9.817 -0.2254  0.2491  0.9545
   74SLPC   H6R 6569   1.114   1.469   9.820 -0.7487 -0.1624 -2.0704
   74SLPC   H6S 6570   1.149   1.648   9.816  0.7260 -0.5799 -2.7173
   74SLPC   C27 6571   1.000   1.582   9.685  0.5789  0.1641  0.0873
   74SLPC   H7R 6572   0.931   1.668   9.699  0.2030 -0.1652  0.2669
   74SLPC   H7S 6573   0.937   1.491   9.673  0.3407  0.4226 -0.6930
   74SLPC   C28 6574   1.098   1.587   9.567 -0.4698  0.3854  0.2355
   74SLPC   H8R 6575   1.041   1.587   9.472  0.0691  1.1966 -0.0909
   74SLPC   H8S 6576   1.159   1.494   9.564  1.1080  1.4282 -1.0189
   74SLPC   C29 6577   1.187   1.718   9.568 -0.3766 -0.1188  0.6677
   74SLPC   H9R 6578   1.260   1.733   9.649  2.0556  2.8876 -1.8705
   74SLPC  C210 6579   1.190   1.821   9.479  0.3134 -0.7077 -1.1264
   74SLPC  H10R 6580   1.241   1.916   9.499 -1.5105  0.6208 -2.5053
   74SLPC  C211 6581   1.115   1.836   9.346  0.3113  0.5647  0.2054
   74SLPC  H11R 6582   1.114   1.944   9.320 -0.8190  0.6037  0.3599
   74SLPC  H11S 6583   1.012   1.795   9.351  1.0025 -1.1492  1.4135
   74SLPC  C212 6584   1.185   1.772   9.228  0.5663 -0.2437  0.3444
   74SLPC  H12R 6585   1.246   1.686   9.262  0.5064  0.6413  2.8542
   74SLPC  C213 6586   1.175   1.798   9.093  0.0040 -0.5029 -0.5688
   74SLPC  H13R 6587   1.237   1.748   9.018  0.7954  1.4249 -1.2851
   74SLPC  C214 6588   1.082   1.913   9.040 -1.2623  0.6875  0.4753
   74SLPC  H14R 6589   1.129   1.987   8.971 -0.4023 -0.6855 -0.4412
   74SLPC  H14S 6590   1.059   1.979   9.127  2.5256  1.8126  0.8048
   74SLPC  C215 6591   0.952   1.866   8.969 -0.0034 -0.5994 -0.5064
   74SLPC  H15R 6592   0.880   1.826   9.044 -0.4825  1.2339  0.0633
   74SLPC  H15S 6593   0.975   1.783   8.899  3.3535 -1.1160  1.0169
   74SLPC  C216 6594   0.873   1.974   8.894  0.4818 -0.1352 -0.3258
   74SLPC  H16R 6595   0.944   2.043   8.844 -0.0753 -0.2924 -1.3547
   74SLPC  H16S 6596   0.826   2.036   8.974 -1.8769  0.4622 -2.0701
   74SLPC  C217 6597   0.759   1.925   8.806 -0.3207 -0.1517  0.6614
   74SLPC  H17R 6598   0.792   1.855   8.726 -0.2824 -2.2939  2.4440
   74SLPC  H17S 6599   0.703   2.007   8.757 -0.5658 -0.8432 -0.2448
   74SLPC  C218 6600   0.660   1.849   8.895 -0.1595 -0.3652  0.2504
   74SLPC  H18R 6601   0.560   1.835   8.851 -0.2213  1.9730 -0.5022
   74SLPC  H18S 6602   0.631   1.902   8.988 -2.9900 -0.7791 -0.3050
   74SLPC  H18T 6603   0.702   1.748   8.916 -0.6184 -0.5969  0.0463
   74SLPC   C33 6604   0.567   1.421   9.896 -0.4796 -0.4578 -0.2957
   74SLPC   H3X 6605   0.583   1.521   9.943  0.0974 -1.0828  0.8750
   74SLPC   H3Y 6606   0.464   1.393   9.926 -1.1060 -1.2959 -2.9322
   74SLPC   C34 6607   0.580   1.456   9.744  0.4736  0.0688  0.2783
   74SLPC   H4X 6608   0.568   1.356   9.698  2.3944 -0.2881  0.4503
   74SLPC   H4Y 6609   0.682   1.497   9.728  0.6570 -0.0326  1.1527
   74SLPC   C35 6610   0.471   1.561   9.711  0.7843  0.1582  0.6001
   74SLPC   H5X 6611   0.372   1.523   9.743  1.5267 -0.9044  1.7562
   74SLPC   H5Y 6612   0.474   1.565   9.600 -0.4034  2.0930  0.6062
   74SLPC   C36 6613   0.503   1.699   9.764  0.0612  0.5026  0.1746
   74SLPC   H6X 6614   0.611   1.722   9.750 -0.4100  2.0494 -1.2139
   74SLPC   H6Y 6615   0.476   1.703   9.872  0.1802 -2.9984  0.4676
   74SLPC   C37 6616   0.414   1.804   9.696  0.3238  0.4776 -0.0945
   74SLPC   H7X 6617   0.307   1.794   9.727 -0.2314 -2.2873 -2.4926
   74SLPC   H7Y 6618   0.408   1.780   9.588  0.7006  0.6252 -0.1501
   74SLPC   C38 6619   0.452   1.951   9.725  0.2743  0.7299 -0.3425
   74SLPC   H8X 6620   0.562   1.966   9.737  0.1717 -0.1727  2.5083
   74SLPC   H8Y 6621   0.407   1.989   9.819  1.4287  1.7637 -0.1675
   74SLPC   C39 6622   0.414   2.042   9.609 -0.9464 -0.2089 -0.6409
   74SLPC   H9X 6623   0.457   2.007   9.512 -0.4483 -1.2102 -0.0739
   74SLPC   H9Y 6624   0.453   2.141   9.640 -3.4758  0.2564  1.3827
   74SLPC  C310 6625   0.268   2.070   9.590 -0.1719  0.0040  0.8718
   74SLPC  H10X 6626   0.218   2.115   9.678  0.5741  0.5059  1.0459
   74SLPC  H10Y 6627   0.212   1.977   9.568  2.3374 -1.5170  0.4826
   74SLPC  C311 6628   0.259   2.175   9.478  0.5382 -0.2028  0.0015
   74SLPC  H11X 6629   0.335   2.250   9.509 -0.2995 -0.2965  2.4880
   74SLPC  H11Y 6630   0.162   2.228   9.489 -0.1562 -1.6611  1.3071
   74SLPC  C312 6631   0.286   2.134   9.328  0.2984 -0.1266 -0.6287
   74SLPC  H12X 6632   0.395   2.116   9.319  0.4684 -2.4296  3.5589
   74SLPC  H12Y 6633   0.278   2.228   9.269  0.0165  0.6963  0.6650
   74SLPC  C313 6634   0.209   2.018   9.262 -0.5410 -0.2698 -0.7597
   74SLPC  H13X 6635   0.102   2.048   9.257  0.0350  1.9559 -0.8278
   74SLPC  H13Y 6636   0.226   1.933   9.332 -4.0220  1.1501  2.1358
   74SLPC  C314 6637   0.259   2.005   9.121  0.2023 -0.3138 -0.5308
   74SLPC  H14X 6638   0.370   2.005   9.121  0.2704 -3.3679 -0.6777
   74SLPC  H14Y 6639   0.234   2.097   9.064  3.4619  2.6462  2.2905
   74SLPC  C315 6640   0.203   1.878   9.057  0.6961 -0.2503 -0.7499
   74SLPC  H15X 6641   0.093   1.885   9.046  0.8451  0.1018 -2.1917
   74SLPC  H15Y 6642   0.212   1.787   9.120  0.9834  0.5074  0.3253
   74SLPC  C316 6643   0.255   1.856   8.906  0.4199 -0.1232 -0.4683
   74SLPC  H16X 6644   0.348   1.917   8.905  0.1741  0.2490 -0.5613
   74SLPC  H16Y 6645   0.175   1.902   8.844  0.5940  2.1075  0.8708
   74SLPC  C317 6646   0.294   1.711   8.879  0.1037 -0.5385  0.2480
   74SLPC  H17X 6647   0.204   1.648   8.896 -1.5915  2.0004  1.2027
   74SLPC  H17Y 6648   0.379   1.679   8.944  1.8401 -0.3622 -1.8396
   74SLPC  C318 6649   0.338   1.691   8.740 -0.1700  0.0232 -0.8258
   74SLPC  H18X 6650   0.383   1.590   8.727 -1.9324 -1.0461  0.8019
   74SLPC  H18Y 6651   0.401   1.773   8.700  0.0535  0.8271  1.0936
   74SLPC  H18Z 6652   0.246   1.699   8.678 -0.8214 -0.0907  0.1053
   75SLPC     N 6653   0.790   5.678   6.159 -0.2718 -0.1473  0.4356
   75SLPC   C13 6654   0.722   5.716   6.032  0.3455  0.3613  0.1513
   75SLPC  H13A 6655   0.624   5.672   6.020  0.0137  0.6168  1.6882
   75SLPC  H13B 6656   0.691   5.819   6.019 -1.5595 -0.3430 -1.3268
   75SLPC  H13C 6657   0.780   5.677   5.950  0.3774 -0.3356  0.4979
   75SLPC   C14 6658   0.703   5.715   6.267  0.3809  0.2829 -0.0359
   75SLPC  H14A 6659   0.692   5.821   6.281  0.5638  0.1351  1.3155
   75SLPC  H14B 6660   0.604   5.672   6.266 -0.2736  1.7265 -0.4511
   75SLPC  H14C 6661   0.750   5.686   6.360 -1.6290  0.2711  1.0360
   75SLPC   C15 6662   0.923   5.753   6.175  0.5219  0.2304  0.1452
   75SLPC  H15A 6663   0.996   5.711   6.244  1.5249  1.0638 -0.3878
   75SLPC  H15B 6664   0.973   5.751   6.079  1.1407  2.0038  0.3972
   75SLPC  H15C 6665   0.895   5.853   6.204  0.8124  0.3986 -0.1419
   75SLPC   C12 6666   0.817   5.530   6.156 -0.2626 -0.0294  0.5253
   75SLPC  H12A 6667   0.891   5.513   6.080 -2.9881 -1.0881 -2.0954
   75SLPC  H12B 6668   0.730   5.480   6.116  0.2985 -1.4504  0.9759
   75SLPC   C11 6669   0.841   5.460   6.285  0.0107  0.1231  0.0843
   75SLPC  H11A 6670   0.862   5.351   6.285  1.4189  0.3253 -2.2640
   75SLPC  H11B 6671   0.755   5.476   6.353 -0.0810 -2.0566  0.5488
   75SLPC     P 6672   0.978   5.551   6.488 -0.4190 -0.1435 -0.2347
   75SLPC   O13 6673   1.120   5.558   6.512 -1.1710 -0.7049 -0.5583
   75SLPC   O14 6674   0.901   5.673   6.516 -0.0638  0.1385  0.1540
   75SLPC   O12 6675   0.963   5.512   6.342  0.0086 -0.1147  0.4407
   75SLPC   O11 6676   0.914   5.428   6.562 -0.3425  0.2393 -0.0760
   75SLPC    C1 6677   0.993   5.308   6.613 -0.5528 -0.2267  0.4803
   75SLPC    HA 6678   0.938   5.212   6.601 -1.1372  0.0917  0.5461
   75SLPC    HB 6679   1.095   5.300   6.569  0.6351  1.3671  2.7742
   75SLPC    C2 6680   1.035   5.310   6.764 -0.3891 -0.3236 -0.9349
   75SLPC    HS 6681   1.083   5.213   6.790  0.3316 -0.2494 -1.9084
   75SLPC   O21 6682   0.927   5.346   6.852 -0.2746 -0.4635  0.2961
   75SLPC   C21 6683   0.831   5.262   6.867  0.5082  0.4255  0.4107
   75SLPC   O22 6684   0.818   5.159   6.798  0.0275 -0.2363  0.0630
   75SLPC   C22 6685   0.734   5.292   6.982 -0.2024 -0.7461 -0.0336
   75SLPC   H2R 6686   0.648   5.347   6.939 -0.5431 -0.4267  1.0201
   75SLPC   H2S 6687   0.682   5.199   7.011 -1.3098 -0.2406 -0.3542
   75SLPC    C3 6688   1.147   5.411   6.802  0.1982  0.2991  0.1874
   75SLPC    HX 6689   1.091   5.505   6.783 -2.5723 -1.5139 -1.1610
   75SLPC    HY 6690   1.219   5.407   6.717 -0.3605 -2.7984 -0.2328
   75SLPC   O31 6691   1.191   5.402   6.937 -0.3110  0.1607 -0.0957
   75SLPC   C31 6692   1.287   5.307   6.954 -0.1139 -0.1970  0.5187
   75SLPC   O32 6693   1.352   5.260   6.863  0.1109 -1.3036  0.2060
   75SLPC   C32 6694   1.324   5.312   7.106  0.4921  0.2893 -0.0550
   75SLPC   H2X 6695   1.231   5.299   7.166  0.4593 -0.9076 -0.3281
   75SLPC   H2Y 6696   1.366   5.414   7.113  3.0321 -0.7940  2.7197
   75SLPC   C23 6697   0.791   5.383   7.089  0.2148 -0.0090  0.0025
   75SLPC   H3R 6698   0.833   5.474   7.041 -0.3037 -0.0186 -0.4814
   75SLPC   H3S 6699   0.871   5.319   7.132 -0.2392 -0.3701  0.3060
   75SLPC   C24 6700   0.687   5.434   7.189  0.1279  0.1630  0.4755
   75SLPC   H4R 6701   0.619   5.494   7.125 -0.4678 -3.3385 -2.5415
   75SLPC   H4S 6702   0.729   5.504   7.265 -2.1582  2.1304  0.0507
   75SLPC   C25 6703   0.592   5.329   7.255 -0.4308  0.0655 -0.2122
   75SLPC   H5R 6704   0.653   5.262   7.319 -1.0235 -0.1295  0.1621
   75SLPC   H5S 6705   0.539   5.268   7.179  1.7328 -1.1461 -0.8164
   75SLPC   C26 6706   0.505   5.410   7.350  0.6207  0.5878  0.1542
   75SLPC   H6R 6707   0.452   5.487   7.289 -1.0571  0.5649  1.5141
   75SLPC   H6S 6708   0.568   5.465   7.424  0.3084  0.2589  0.6637
   75SLPC   C27 6709   0.395   5.329   7.415  0.2274 -1.2789 -0.2727
   75SLPC   H7R 6710   0.438   5.259   7.490  3.6114  1.6808  0.8313
   75SLPC   H7S 6711   0.346   5.261   7.341 -1.4652 -1.9480  1.3958
   75SLPC   C28 6712   0.278   5.406   7.475  0.4884 -0.0480 -0.2363
   75SLPC   H8R 6713   0.192   5.337   7.491 -0.0257  0.5275 -0.4709
   75SLPC   H8S 6714   0.246   5.488   7.408  0.1496  1.0155  1.1724
   75SLPC   C29 6715   0.313   5.492   7.603 -0.0289  0.3841 -0.4077
   75SLPC   H9R 6716   0.369   5.584   7.580  0.2389  0.1493 -0.7051
   75SLPC  C210 6717   0.291   5.456   7.729  0.4044 -0.9789  0.4323
   75SLPC  H10R 6718   0.321   5.517   7.815  0.4784  0.5683 -0.6560
   75SLPC  C211 6719   0.218   5.332   7.774 -0.7964  0.4654 -0.5294
   75SLPC  H11R 6720   0.142   5.294   7.703 -1.7913 -0.9323  1.1707
   75SLPC  H11S 6721   0.153   5.362   7.859  0.3148  1.3668  0.0341
   75SLPC  C212 6722   0.315   5.229   7.802  0.4177  0.0081 -0.9660
   75SLPC  H12R 6723   0.378   5.184   7.723  1.4427 -2.8254  1.3054
   75SLPC  C213 6724   0.334   5.180   7.927  0.1905 -0.0073  0.0367
   75SLPC  H13R 6725   0.414   5.105   7.935 -0.4541 -0.7818 -0.5932
   75SLPC  C214 6726   0.269   5.216   8.060 -0.0448  0.5612 -0.6450
   75SLPC  H14R 6727   0.248   5.130   8.126  0.9253 -0.4100 -1.5563
   75SLPC  H14S 6728   0.162   5.245   8.046  0.2724  2.3481  0.3711
   75SLPC  C215 6729   0.343   5.317   8.142  0.1413 -0.2921 -0.0552
   75SLPC  H15R 6730   0.346   5.411   8.083 -0.5201 -0.2155  0.0293
   75SLPC  H15S 6731   0.445   5.278   8.164  0.4032 -1.7009 -3.2570
   75SLPC  C216 6732   0.271   5.353   8.278 -0.1991 -0.5759 -0.2612
   75SLPC  H16R 6733   0.195   5.432   8.262 -0.2461 -0.1926  1.6153
   75SLPC  H16S 6734   0.346   5.409   8.338 -0.5202  0.2851 -0.6462
   75SLPC  C217 6735   0.209   5.245   8.365 -0.2389  0.0329  0.1006
   75SLPC  H17R 6736   0.293   5.178   8.393  1.4921  2.2610  0.5729
   75SLPC  H17S 6737   0.128   5.200   8.304 -0.5923 -0.7733  1.1376
   75SLPC  C218 6738   0.155   5.303   8.501 -0.7067  0.2067 -0.7523
   75SLPC  H18R 6739   0.084   5.384   8.474  0.4328  1.1305 -1.0983
   75SLPC  H18S 6740   0.243   5.348   8.553 -0.8433 -0.4241  0.0479
   75SLPC  H18T 6741   0.108   5.228   8.568  0.4504 -0.1645 -0.3201
   75SLPC   C33 6742   1.434   5.216   7.148  0.3842 -0.2300  0.1253
   75SLPC   H3X 6743   1.387   5.116   7.143 -2.2263  0.8096  1.5925
   75SLPC   H3Y 6744   1.522   5.210   7.081  0.7264 -2.2570  0.6861
   75SLPC   C34 6745   1.487   5.245   7.289 -0.0108 -0.1797  0.5857
   75SLPC   H4X 6746   1.547   5.336   7.266  0.9824 -0.7977  0.6886
   75SLPC   H4Y 6747   1.555   5.159   7.306  0.2960 -0.0745 -0.0988
   75SLPC   C35 6748   1.393   5.282   7.391 -1.0320 -0.0196 -0.5723
   75SLPC   H5X 6749   1.309   5.209   7.387  0.2609 -1.6471  0.5429
   75SLPC   H5Y 6750   1.363   5.388   7.379  0.8298  0.7340  0.8714
   75SLPC   C36 6751   1.452   5.248   7.535 -0.7264  0.2561 -0.1781
   75SLPC   H6X 6752   1.490   5.143   7.537 -2.1298 -0.2747  1.6670
   75SLPC   H6Y 6753   1.368   5.240   7.607 -0.3255 -0.0350  0.2611
   75SLPC   C37 6754   1.557   5.353   7.581  0.3537 -0.0756 -0.2440
   75SLPC   H7X 6755   1.529   5.460   7.580 -1.3433 -0.4762  0.7136
   75SLPC   H7Y 6756   1.641   5.338   7.510 -2.1052 -0.7802 -3.2094
   75SLPC   C38 6757   1.601   5.311   7.723 -0.3442 -0.0632 -0.7484
   75SLPC   H8X 6758   1.687   5.370   7.760 -2.6015  1.0979  3.2979
   75SLPC   H8Y 6759   1.636   5.206   7.725 -0.2120 -0.0525 -1.8925
   75SLPC   C39 6760   1.502   5.336   7.839  0.4902  0.6329  0.6834
   75SLPC   H9X 6761   1.405   5.290   7.810  0.7762  1.5646 -2.0248
   75SLPC   H9Y 6762   1.475   5.444   7.837  0.6744  0.6717 -0.4630
   75SLPC  C310 6763   1.525   5.295   7.981 -0.4068  0.1808 -0.2549
   75SLPC  H10X 6764   1.553   5.188   7.966  1.3309  0.6729 -0.6631
   75SLPC  H10Y 6765   1.425   5.311   8.028  0.6592  0.5369  2.0252
   75SLPC  C311 6766   1.636   5.373   8.052  0.0178 -0.2478 -0.1752
   75SLPC  H11X 6767   1.601   5.477   8.065  0.1979 -0.2864  0.6990
   75SLPC  H11Y 6768   1.714   5.372   7.973  0.6557  0.0254  0.4397
   75SLPC  C312 6769   1.692   5.319   8.181  0.1099  0.4323 -0.4326
   75SLPC  H12X 6770   1.738   5.219   8.162 -0.6752 -0.3090  1.4108
   75SLPC  H12Y 6771   1.609   5.313   8.254  0.6728 -0.8127  0.1416
   75SLPC  C313 6772   1.813   5.399   8.236 -0.2070  1.2465  0.2636
   75SLPC  H13X 6773   1.787   5.506   8.251  0.4820  1.3982  0.4222
   75SLPC  H13Y 6774   1.890   5.384   8.157  1.8893  2.3750  1.9708
   75SLPC  C314 6775   1.869   5.347   8.369 -0.6742  0.6800  0.8116
   75SLPC  H14X 6776   1.971   5.389   8.360 -0.9043  0.9435 -0.8606
   75SLPC  H14Y 6777   1.876   5.236   8.369  0.9759  0.7364 -0.4300
   75SLPC  C315 6778   1.788   5.393   8.491 -1.0888 -0.1520 -0.1200
   75SLPC  H15X 6779   1.706   5.320   8.506 -1.4836  0.4682  0.7727
   75SLPC  H15Y 6780   1.743   5.493   8.474 -1.0158 -0.2787 -1.0841
   75SLPC  C316 6781   1.874   5.390   8.619  0.3002  0.0011  0.5707
   75SLPC  H16X 6782   1.970   5.438   8.591 -0.1615  0.8187  0.3593
   75SLPC  H16Y 6783   1.889   5.284   8.648  0.6645  0.0248  0.4711
   75SLPC  C317 6784   1.806   5.458   8.734 -0.1106 -0.0879  0.3521
   75SLPC  H17X 6785   1.868   5.425   8.820 -1.6462 -0.3835  1.3981
   75SLPC  H17Y 6786   1.706   5.419   8.764  0.5078 -1.9761  0.0759
   75SLPC  C318 6787   1.819   5.608   8.735  0.4118  0.4623 -1.0565
   75SLPC  H18X 6788   1.756   5.655   8.656  1.7797  3.4247 -0.5462
   75SLPC  H18Y 6789   1.927   5.634   8.729  0.0691  1.7493 -2.3005
   75SLPC  H18Z 6790   1.790   5.648   8.834  1.6894 -0.2149 -0.3963
   76SLPC     N 6791   3.678   4.755   6.036  0.0318 -0.2077 -0.6243
   76SLPC   C13 6792   3.803   4.683   5.995 -0.5043  0.5227  0.0781
   76SLPC  H13A 6793   3.891   4.744   6.014  0.1222 -0.1472 -0.6038
   76SLPC  H13B 6794   3.812   4.588   6.045  1.4277  0.4216 -0.3736
   76SLPC  H13C 6795   3.802   4.669   5.888 -0.6336  2.5236 -0.2283
   76SLPC   C14 6796   3.662   4.882   5.953 -0.0340  0.7482 -0.5216
   76SLPC  H14A 6797   3.734   4.955   5.988  1.2243 -0.2065 -1.0518
   76SLPC  H14B 6798   3.673   4.858   5.849 -1.2793  0.6686 -0.6470
   76SLPC  H14C 6799   3.573   4.938   5.978 -0.5494 -1.3333  3.0310
   76SLPC   C15 6800   3.696   4.788   6.183  0.2922 -0.0822  0.3794
   76SLPC  H15A 6801   3.701   4.695   6.239  2.1195 -1.3364 -1.7486
   76SLPC  H15B 6802   3.778   4.854   6.208  0.0959  0.2835  0.0717
   76SLPC  H15C 6803   3.603   4.835   6.211 -0.5991 -1.3973 -0.2569
   76SLPC   C12 6804   3.554   4.667   6.020 -0.3959  0.5556 -0.4197
   76SLPC  H12A 6805   3.569   4.578   6.080  1.5083  0.5760 -0.8070
   76SLPC  H12B 6806   3.545   4.641   5.915 -0.0965 -0.1463 -0.2826
   76SLPC   C11 6807   3.418   4.719   6.064 -0.2069  0.1694  0.2424
   76SLPC  H11A 6808   3.340   4.654   6.019  1.2410 -0.6474 -1.1973
   76SLPC  H11B 6809   3.414   4.815   6.008  0.3112  0.5801  0.8871
   76SLPC     P 6810   3.345   4.615   6.295  0.0950  0.2759  0.5613
   76SLPC   O13 6811   3.210   4.578   6.255  1.0116  0.6309  0.2087
   76SLPC   O14 6812   3.448   4.513   6.297 -0.4927  0.6524  0.4989
   76SLPC   O12 6813   3.395   4.736   6.205 -0.0555  0.2846 -0.3447
   76SLPC   O11 6814   3.333   4.682   6.437 -0.6149  1.0381  0.1031
   76SLPC    C1 6815   3.224   4.675   6.524 -0.3941  0.1439 -0.3469
   76SLPC    HA 6816   3.180   4.774   6.547 -3.2911 -1.3943  1.3078
   76SLPC    HB 6817   3.141   4.611   6.488 -0.5182  1.1879 -1.9990
   76SLPC    C2 6818   3.280   4.611   6.654 -0.3730 -0.4050 -0.3493
   76SLPC    HS 6819   3.315   4.514   6.614  0.7601  0.0069 -0.3918
   76SLPC   O21 6820   3.170   4.606   6.747 -1.1425 -0.8342 -0.2520
   76SLPC   C21 6821   3.138   4.493   6.800  0.2765  0.2109  0.1524
   76SLPC   O22 6822   3.193   4.385   6.769  0.0436 -0.1897 -0.2169
   76SLPC   C22 6823   3.012   4.498   6.888  0.0979 -0.8102  0.3412
   76SLPC   H2R 6824   2.985   4.606   6.877 -0.4703 -0.6381  2.8017
   76SLPC   H2S 6825   2.933   4.439   6.838  1.3009 -1.9579 -0.2558
   76SLPC    C3 6826   3.400   4.687   6.729 -0.3796  0.4074  1.1340
   76SLPC    HX 6827   3.387   4.797   6.727  2.0323  0.7420  0.8890
   76SLPC    HY 6828   3.484   4.676   6.657 -1.0652 -0.3457  0.4291
   76SLPC   O31 6829   3.429   4.650   6.863  0.0561  0.3471  0.1897
   76SLPC   C31 6830   3.487   4.539   6.888 -0.2883  0.3368  0.5025
   76SLPC   O32 6831   3.525   4.459   6.801  0.6848 -0.0642  0.2760
   76SLPC   C32 6832   3.508   4.516   7.041  0.1655  0.4572 -0.0132
   76SLPC   H2X 6833   3.409   4.540   7.085 -0.6686 -0.5582 -1.2407
   76SLPC   H2Y 6834   3.578   4.598   7.065  1.3749 -0.3447 -0.7227
   76SLPC   C23 6835   3.041   4.438   7.032  0.1009 -0.6645  0.1764
   76SLPC   H3R 6836   3.093   4.343   7.007  0.9345  0.2905 -1.9977
   76SLPC   H3S 6837   2.941   4.413   7.073 -0.2266 -0.5214 -0.5218
   76SLPC   C24 6838   3.125   4.532   7.115 -0.1395  0.3721 -0.0847
   76SLPC   H4R 6839   3.063   4.620   7.144 -0.8660  0.1932 -1.0344
   76SLPC   H4S 6840   3.209   4.557   7.046 -0.4143 -1.1248 -0.9964
   76SLPC   C25 6841   3.169   4.470   7.248  0.0223 -0.2282 -0.5580
   76SLPC   H5R 6842   3.260   4.518   7.291 -1.1957  0.9155  0.8236
   76SLPC   H5S 6843   3.194   4.362   7.241  0.7013 -0.1874  0.9010
   76SLPC   C26 6844   3.054   4.468   7.360 -0.0139 -0.0214  0.5896
   76SLPC   H6R 6845   2.965   4.411   7.327 -0.1780  0.4190  0.2565
   76SLPC   H6S 6846   3.034   4.577   7.372  0.9635  0.0942  1.2762
   76SLPC   C27 6847   3.098   4.414   7.493 -0.0132 -0.3780 -0.3449
   76SLPC   H7R 6848   3.185   4.476   7.521 -0.2128  0.0871 -0.7364
   76SLPC   H7S 6849   3.142   4.312   7.483  0.8363 -0.0748  0.1714
   76SLPC   C28 6850   2.999   4.405   7.615 -0.6678 -0.2155  0.5106
   76SLPC   H8R 6851   2.945   4.500   7.637 -0.9291 -0.6054  1.6603
   76SLPC   H8S 6852   2.915   4.338   7.586  1.1797 -1.7510 -1.6389
   76SLPC   C29 6853   3.076   4.359   7.737 -0.5887 -0.0618  0.4324
   76SLPC   H9R 6854   3.152   4.282   7.719 -0.1541  0.7532 -1.4879
   76SLPC  C210 6855   3.044   4.393   7.864  0.3092  0.0020 -0.5595
   76SLPC  H10R 6856   3.118   4.362   7.940  0.4221 -1.4122 -1.2119
   76SLPC  C211 6857   2.932   4.469   7.928  0.3105  0.4835  0.4974
   76SLPC  H11R 6858   2.885   4.398   7.999 -1.0034  1.1733  0.3303
   76SLPC  H11S 6859   2.854   4.480   7.849 -0.3511  0.8422  1.1940
   76SLPC  C212 6860   2.967   4.595   7.997 -0.4086 -1.0681  0.6004
   76SLPC  H12R 6861   2.978   4.677   7.924 -0.8741 -1.4286  0.1167
   76SLPC  C213 6862   2.983   4.618   8.127  0.1552 -0.5826 -0.6317
   76SLPC  H13R 6863   3.010   4.720   8.158 -0.8882 -0.9232  1.5758
   76SLPC  C214 6864   2.972   4.521   8.236 -0.4399  0.7818 -0.1946
   76SLPC  H14R 6865   3.070   4.489   8.278 -1.2022 -2.3358 -0.5141
   76SLPC  H14S 6866   2.933   4.424   8.198 -1.0219  0.8533  0.2056
   76SLPC  C215 6867   2.877   4.559   8.349 -0.5061 -0.8427  0.5059
   76SLPC  H15R 6868   2.769   4.555   8.325 -0.4981 -1.1425  0.5168
   76SLPC  H15S 6869   2.902   4.662   8.383  1.5270 -1.5079  1.1611
   76SLPC  C216 6870   2.905   4.468   8.475  0.5244  0.0418 -0.1631
   76SLPC  H16R 6871   2.917   4.359   8.452  2.4906 -0.3465  2.2272
   76SLPC  H16S 6872   2.815   4.481   8.538  0.8454  0.6565  0.1771
   76SLPC  C217 6873   3.018   4.510   8.563  0.3349  0.2865 -0.2522
   76SLPC  H17R 6874   2.995   4.606   8.614 -0.6939 -0.1584  0.1523
   76SLPC  H17S 6875   3.114   4.518   8.509  0.2650  2.3563 -0.1540
   76SLPC  C218 6876   3.038   4.405   8.674  0.2417 -0.1573 -0.0953
   76SLPC  H18R 6877   2.947   4.374   8.730  1.8819 -1.7909  1.7958
   76SLPC  H18S 6878   3.110   4.447   8.747 -0.4662  0.7187  0.1157
   76SLPC  H18T 6879   3.081   4.324   8.612  1.5229  2.6985 -3.3129
   76SLPC   C33 6880   3.578   4.385   7.072  0.7823 -0.4950  0.0400
   76SLPC   H3X 6881   3.663   4.373   7.001  2.2551  0.3952  1.5857
   76SLPC   H3Y 6882   3.519   4.296   7.040  1.3889 -1.2156  0.8968
   76SLPC   C34 6883   3.617   4.374   7.219 -0.1323  0.0421  0.2646
   76SLPC   H4X 6884   3.666   4.468   7.254  0.8233 -0.3609  0.0384
   76SLPC   H4Y 6885   3.691   4.292   7.219 -1.5776 -1.3619 -1.6879
   76SLPC   C35 6886   3.511   4.326   7.314 -0.1680  0.6305  0.6191
   76SLPC   H5X 6887   3.477   4.223   7.289 -0.6691  1.5621 -3.2346
   76SLPC   H5Y 6888   3.419   4.388   7.319 -1.2487 -0.5661 -2.1827
   76SLPC   C36 6889   3.557   4.320   7.460  0.7778 -0.3037  0.1569
   76SLPC   H6X 6890   3.572   4.422   7.501  0.2281 -0.8212  1.7031
   76SLPC   H6Y 6891   3.656   4.270   7.460 -0.0682 -2.0755 -0.2144
   76SLPC   C37 6892   3.460   4.250   7.548 -0.2774  0.0763 -0.7840
   76SLPC   H7X 6893   3.428   4.151   7.508 -0.0037 -1.1058  1.6919
   76SLPC   H7Y 6894   3.363   4.299   7.573 -1.2514 -2.9472  2.3076
   76SLPC   C38 6895   3.527   4.218   7.684 -0.2772 -0.0157 -0.1297
   76SLPC   H8X 6896   3.554   4.314   7.733  4.1658 -0.5571 -1.1281
   76SLPC   H8Y 6897   3.624   4.169   7.662  1.1118  1.8438  1.4300
   76SLPC   C39 6898   3.442   4.126   7.769 -0.4086 -0.6924 -0.3668
   76SLPC   H9X 6899   3.446   4.029   7.715 -1.9266 -0.4841 -0.8959
   76SLPC   H9Y 6900   3.340   4.168   7.774 -0.0283  0.1766  0.4812
   76SLPC  C310 6901   3.492   4.118   7.914  0.5703  1.4675  0.0399
   76SLPC  H10X 6902   3.596   4.079   7.913 -0.8986 -3.0339  1.0176
   76SLPC  H10Y 6903   3.439   4.039   7.971  2.3240  0.5097  0.4395
   76SLPC  C311 6904   3.478   4.247   8.002  0.8292 -0.1701 -0.1638
   76SLPC  H11X 6905   3.376   4.290   7.992  0.4645 -1.0423 -0.2682
   76SLPC  H11Y 6906   3.551   4.326   7.975  0.6237 -0.3491 -1.2907
   76SLPC  C312 6907   3.499   4.216   8.154  0.7174  0.4936 -0.5498
   76SLPC  H12X 6908   3.596   4.166   8.174 -0.3289 -0.7744  1.7805
   76SLPC  H12Y 6909   3.429   4.136   8.186  1.8575 -1.3235 -2.3498
   76SLPC  C313 6910   3.479   4.336   8.246  0.0470 -0.2991  0.1009
   76SLPC  H13X 6911   3.370   4.353   8.255  0.0194 -0.1713 -0.4713
   76SLPC  H13Y 6912   3.537   4.419   8.200 -0.4838  1.0354  1.7356
   76SLPC  C314 6913   3.530   4.319   8.392 -0.3178  0.4603 -0.0091
   76SLPC  H14X 6914   3.640   4.333   8.387 -0.3198  0.0953 -1.8044
   76SLPC  H14Y 6915   3.519   4.221   8.442  2.4679  0.0618  0.0013
   76SLPC  C315 6916   3.471   4.426   8.490 -0.1694  0.2620  0.1952
   76SLPC  H15X 6917   3.360   4.427   8.481 -0.3304  0.7059  1.9565
   76SLPC  H15Y 6918   3.521   4.519   8.457  1.8979 -0.8782 -0.0553
   76SLPC  C316 6919   3.504   4.399   8.631 -0.6648 -0.2229 -0.8701
   76SLPC  H16X 6920   3.611   4.426   8.647 -0.8154 -1.6896  4.5848
   76SLPC  H16Y 6921   3.500   4.289   8.641 -1.1816 -0.2384 -1.2038
   76SLPC  C317 6922   3.403   4.451   8.737 -0.7736  0.2188 -0.7952
   76SLPC  H17X 6923   3.300   4.418   8.710 -0.9769 -1.6302  1.8886
   76SLPC  H17Y 6924   3.403   4.561   8.746  0.7166  0.1396  0.5907
   76SLPC  C318 6925   3.439   4.389   8.869 -0.6439 -0.5888  0.4092
   76SLPC  H18X 6926   3.544   4.411   8.899 -0.3829  0.2816 -1.0211
   76SLPC  H18Y 6927   3.436   4.278   8.866  0.0334 -0.6217  0.6888
   76SLPC  H18Z 6928   3.374   4.414   8.955  0.1914 -0.0317  0.8938
   77SLPC     N 6929   5.743   2.632   6.329  0.1268  0.0985 -0.2613
   77SLPC   C13 6930   5.825   2.506   6.355 -0.4385 -0.6902 -0.2390
   77SLPC  H13A 6931   5.905   2.533   6.422  0.0481 -1.2548 -0.5829
   77SLPC  H13B 6932   5.765   2.430   6.402 -1.7088 -1.4261 -2.8654
   77SLPC  H13C 6933   5.862   2.470   6.260 -0.8372  0.8311 -1.0193
   77SLPC   C14 6934   5.646   2.597   6.212 -0.6698 -0.6527  0.1782
   77SLPC  H14A 6935   5.588   2.511   6.241  1.2366 -2.0980 -0.0630
   77SLPC  H14B 6936   5.584   2.682   6.189 -0.3707 -0.6526 -0.6904
   77SLPC  H14C 6937   5.709   2.576   6.126  2.2520  2.4307  1.3539
   77SLPC   C15 6938   5.839   2.735   6.289  0.3077  0.2472 -0.1943
   77SLPC  H15A 6939   5.783   2.827   6.285 -0.6543 -0.2164  1.6387
   77SLPC  H15B 6940   5.919   2.750   6.360  0.2191  1.4931 -0.3333
   77SLPC  H15C 6941   5.896   2.714   6.199  0.3768 -0.7431  0.0730
   77SLPC   C12 6942   5.674   2.678   6.455 -0.3097 -0.3579 -0.0648
   77SLPC  H12A 6943   5.748   2.692   6.533  1.5288  0.7939 -1.9230
   77SLPC  H12B 6944   5.613   2.595   6.487 -0.8186  0.6959  1.8736
   77SLPC   C11 6945   5.588   2.814   6.449  0.7329  0.0963  0.6412
   77SLPC  H11A 6946   5.647   2.896   6.403 -0.7319  1.0697  0.3963
   77SLPC  H11B 6947   5.568   2.843   6.555 -0.2291  1.4187  0.1317
   77SLPC     P 6948   5.338   2.715   6.417 -0.2993  0.1515  0.0840
   77SLPC   O13 6949   5.219   2.761   6.348 -0.0380  0.3820  0.4177
   77SLPC   O14 6950   5.362   2.568   6.409  0.3737  0.2571  0.1526
   77SLPC   O12 6951   5.463   2.801   6.376  0.5654 -0.1318 -0.5837
   77SLPC   O11 6952   5.329   2.750   6.570 -0.5015 -0.2188  0.6227
   77SLPC    C1 6953   5.225   2.824   6.628 -1.1869  0.1994 -0.4704
   77SLPC    HA 6954   5.268   2.926   6.638  2.0903 -1.2635  2.7132
   77SLPC    HB 6955   5.132   2.835   6.568 -1.0069 -0.0612 -0.7948
   77SLPC    C2 6956   5.182   2.779   6.774  0.6480  0.4505 -0.2735
   77SLPC    HS 6957   5.096   2.842   6.805 -1.0693 -1.9542  0.1543
   77SLPC   O21 6958   5.285   2.787   6.873 -0.4060  0.4457  0.2562
   77SLPC   C21 6959   5.349   2.901   6.889  0.1698  0.0326 -0.0123
   77SLPC   O22 6960   5.320   3.008   6.836 -0.3444  0.1390  0.2936
   77SLPC   C22 6961   5.474   2.877   6.971  0.8592  0.0288  0.1932
   77SLPC   H2R 6962   5.485   2.768   6.991  0.9088 -0.3499 -1.6869
   77SLPC   H2S 6963   5.566   2.904   6.916  1.1787 -0.9586  0.2230
   77SLPC    C3 6964   5.144   2.622   6.755 -0.2803  0.1878 -0.5549
   77SLPC    HX 6965   5.229   2.567   6.711 -0.7072  0.2173 -1.4407
   77SLPC    HY 6966   5.063   2.618   6.678  1.2443 -0.5729 -2.1763
   77SLPC   O31 6967   5.106   2.553   6.878  0.4133  0.5964  0.9738
   77SLPC   C31 6968   5.209   2.504   6.951 -0.2495  0.2546  1.0095
   77SLPC   O32 6969   5.326   2.504   6.914  0.4350  0.0373 -0.7364
   77SLPC   C32 6970   5.148   2.460   7.087  0.4424  0.3956  0.6586
   77SLPC   H2X 6971   5.063   2.391   7.065  0.8306 -0.1114  0.7232
   77SLPC   H2Y 6972   5.103   2.554   7.126  3.7030  2.3967 -0.0573
   77SLPC   C23 6973   5.474   2.949   7.115  0.3260 -0.0214  0.0323
   77SLPC   H3R 6974   5.372   2.968   7.156  0.8966  3.4578  0.1952
   77SLPC   H3S 6975   5.507   3.055   7.108  1.9165 -0.4848  0.1839
   77SLPC   C24 6976   5.564   2.865   7.207  0.7147 -0.4243  0.1024
   77SLPC   H4R 6977   5.665   2.850   7.165 -0.0974  0.7058 -2.4453
   77SLPC   H4S 6978   5.511   2.770   7.231 -3.0024  1.3690 -0.2711
   77SLPC   C25 6979   5.577   2.937   7.345 -0.6491  0.3500  0.5236
   77SLPC   H5R 6980   5.481   2.982   7.377 -0.8449 -0.8996  1.8071
   77SLPC   H5S 6981   5.655   3.016   7.349  2.2926 -2.3872  3.2001
   77SLPC   C26 6982   5.625   2.834   7.450  0.2869 -0.1755  0.3602
   77SLPC   H6R 6983   5.732   2.805   7.441  1.5813  3.7902  1.1939
   77SLPC   H6S 6984   5.556   2.747   7.446  0.7042 -0.4978  0.1036
   77SLPC   C27 6985   5.596   2.892   7.593 -0.6259  0.4252  0.3291
   77SLPC   H7R 6986   5.491   2.927   7.596 -0.6173  1.2725 -3.9564
   77SLPC   H7S 6987   5.670   2.974   7.601  0.7525 -0.7675  0.3287
   77SLPC   C28 6988   5.625   2.782   7.701 -0.5393 -0.1148  0.2414
   77SLPC   H8R 6989   5.727   2.740   7.685 -0.4947 -0.6766  1.7983
   77SLPC   H8S 6990   5.547   2.706   7.681 -0.3183  0.2443 -2.3312
   77SLPC   C29 6991   5.626   2.842   7.842  0.0856 -0.4690 -0.0125
   77SLPC   H9R 6992   5.723   2.888   7.866  0.0533  0.1884 -1.0845
   77SLPC  C210 6993   5.539   2.813   7.939 -0.7148  0.0152 -0.1115
   77SLPC  H10R 6994   5.535   2.866   8.035 -0.6991 -1.0764  0.5111
   77SLPC  C211 6995   5.429   2.713   7.918  0.7456  0.4876 -0.2215
   77SLPC  H11R 6996   5.402   2.674   8.018  2.1980 -0.2514 -0.0955
   77SLPC  H11S 6997   5.459   2.623   7.860  1.1207  0.6471 -0.2761
   77SLPC  C212 6998   5.315   2.774   7.837 -0.0717 -0.1280  0.2752
   77SLPC  H12R 6999   5.337   2.793   7.731 -2.1318  1.5985  0.0872
   77SLPC  C213 7000   5.192   2.826   7.872  0.5213  0.2869  0.0049
   77SLPC  H13R 7001   5.127   2.865   7.792  0.9636  1.0108 -0.0116
   77SLPC  C214 7002   5.127   2.821   8.004  0.2877 -0.0146 -0.0434
   77SLPC  H14R 7003   5.168   2.726   8.045  0.2641  0.0965  0.2428
   77SLPC  H14S 7004   5.017   2.810   7.997  0.3738  0.1452 -2.0369
   77SLPC  C215 7005   5.177   2.926   8.104 -0.0690  0.3065  0.1198
   77SLPC  H15R 7006   5.152   3.032   8.082  0.2105  0.6425  1.3391
   77SLPC  H15S 7007   5.287   2.919   8.095 -0.2056 -1.4956 -0.5184
   77SLPC  C216 7008   5.139   2.896   8.247  0.1544 -0.2007  0.4578
   77SLPC  H16R 7009   5.165   2.789   8.261 -1.4468 -1.0975 -2.5559
   77SLPC  H16S 7010   5.030   2.899   8.268  0.1175  3.0866  0.3182
   77SLPC  C217 7011   5.216   2.978   8.347  0.7157 -0.2629  0.4317
   77SLPC  H17R 7012   5.194   3.086   8.333  0.1283 -0.4707 -0.3307
   77SLPC  H17S 7013   5.322   2.955   8.325  1.0138  0.5022  1.0231
   77SLPC  C218 7014   5.175   2.925   8.486  0.4358  0.2598 -0.7070
   77SLPC  H18R 7015   5.148   2.817   8.481  0.6519  0.1688  0.0347
   77SLPC  H18S 7016   5.090   2.981   8.529  1.5803  1.4834  0.0661
   77SLPC  H18T 7017   5.259   2.932   8.559  0.1787 -0.2563 -0.3520
   77SLPC   C33 7018   5.251   2.422   7.191 -0.0120  0.6325 -1.1583
   77SLPC   H3X 7019   5.343   2.484   7.183  1.0612 -0.5132  1.3923
   77SLPC   H3Y 7020   5.294   2.320   7.178  3.4789  1.6201  1.2756
   77SLPC   C34 7021   5.196   2.425   7.334  0.2968 -0.3732  0.5941
   77SLPC   H4X 7022   5.115   2.351   7.349  0.9060 -0.5554  3.7125
   77SLPC   H4Y 7023   5.155   2.527   7.349 -0.3619 -0.7001  1.0658
   77SLPC   C35 7024   5.280   2.391   7.456  0.2301 -0.4786 -0.2832
   77SLPC   H5X 7025   5.368   2.459   7.456  1.1678 -1.6418  0.0745
   77SLPC   H5Y 7026   5.332   2.293   7.449 -2.5945 -2.0740 -0.4279
   77SLPC   C36 7027   5.191   2.391   7.585  0.3381  0.4806 -0.1748
   77SLPC   H6X 7028   5.121   2.306   7.567  3.4147 -1.8731 -2.2127
   77SLPC   H6Y 7029   5.145   2.491   7.598  0.0773  0.4681 -0.9515
   77SLPC   C37 7030   5.264   2.356   7.717 -0.6211  0.1642  0.6827
   77SLPC   H7X 7031   5.346   2.428   7.736  0.3257 -1.2780  2.4049
   77SLPC   H7Y 7032   5.319   2.259   7.713 -1.2401 -0.1765  0.1409
   77SLPC   C38 7033   5.178   2.350   7.835 -0.6402 -0.5781 -0.6672
   77SLPC   H8X 7034   5.095   2.285   7.803 -1.4977 -0.1498  0.6176
   77SLPC   H8Y 7035   5.131   2.450   7.848 -0.2162 -0.5818  1.0498
   77SLPC   C39 7036   5.251   2.291   7.958 -0.0760 -0.3626  0.1335
   77SLPC   H9X 7037   5.342   2.236   7.926  0.0633 -0.5972  0.9008
   77SLPC   H9Y 7038   5.184   2.233   8.025  0.0553  2.2210  2.7599
   77SLPC  C310 7039   5.278   2.413   8.047 -0.2294  0.0597  0.3963
   77SLPC  H10X 7040   5.181   2.463   8.069 -0.9360 -0.0795 -2.0598
   77SLPC  H10Y 7041   5.326   2.484   7.976 -0.0134 -1.5586 -1.1596
   77SLPC  C311 7042   5.363   2.391   8.182 -0.3524  0.1217  0.7505
   77SLPC  H11X 7043   5.470   2.375   8.158 -0.7655  1.7347 -2.8327
   77SLPC  H11Y 7044   5.317   2.302   8.229  0.2225  0.6065  2.2724
   77SLPC  C312 7045   5.351   2.513   8.282 -0.0730  0.1759  0.3243
   77SLPC  H12X 7046   5.242   2.532   8.282 -0.1194 -0.0600  1.2244
   77SLPC  H12Y 7047   5.410   2.586   8.223 -1.3830 -1.1564 -2.8555
   77SLPC  C313 7048   5.388   2.484   8.425 -0.2193  0.0387  0.3145
   77SLPC  H13X 7049   5.483   2.427   8.425 -0.2053  0.0624  0.6313
   77SLPC  H13Y 7050   5.320   2.406   8.466  0.0958 -0.5505 -0.2478
   77SLPC  C314 7051   5.398   2.609   8.512  0.3181 -0.4056  0.0517
   77SLPC  H14X 7052   5.298   2.659   8.511  0.1126 -0.7293  1.9407
   77SLPC  H14Y 7053   5.482   2.666   8.467  2.0240 -1.2619  2.0242
   77SLPC  C315 7054   5.450   2.565   8.650 -0.1883  0.0277 -0.0700
   77SLPC  H15X 7055   5.540   2.500   8.650  0.2282  0.5633  1.7469
   77SLPC  H15Y 7056   5.377   2.498   8.699  0.6434  1.8316  3.9822
   77SLPC  C316 7057   5.468   2.681   8.743  0.3578  0.2442 -1.0495
   77SLPC  H16X 7058   5.496   2.779   8.700  0.1527  1.0393  0.5517
   77SLPC  H16Y 7059   5.546   2.642   8.812 -0.0750 -0.8008 -1.1272
   77SLPC  C317 7060   5.346   2.716   8.827 -0.2602 -0.6360  0.1567
   77SLPC  H17X 7061   5.314   2.621   8.874 -0.5460  0.2619  1.8610
   77SLPC  H17Y 7062   5.262   2.750   8.763 -0.0854  1.4287  0.9492
   77SLPC  C318 7063   5.368   2.832   8.924  0.5441 -0.0914  0.7756
   77SLPC  H18X 7064   5.464   2.801   8.970  1.2307 -0.6866 -0.9845
   77SLPC  H18Y 7065   5.280   2.843   8.992 -0.1726 -2.3416  0.2832
   77SLPC  H18Z 7066   5.385   2.926   8.867  1.9738  0.4723  2.0481
   78SLPC     N 7067   0.813   4.000   6.147  0.1170 -1.0892  0.0066
   78SLPC   C13 7068   0.926   3.927   6.087 -0.2780  0.1084 -0.6436
   78SLPC  H13A 7069   0.950   3.836   6.139  2.5769  0.2403 -1.5515
   78SLPC  H13B 7070   0.921   3.905   5.981 -1.8231  1.5869 -0.9151
   78SLPC  H13C 7071   1.020   3.978   6.102  1.5026 -2.8937 -0.8888
   78SLPC   C14 7072   0.683   3.934   6.104  0.2640 -0.8247 -0.0188
   78SLPC  H14A 7073   0.675   3.834   6.142 -0.1761 -1.1201 -0.8721
   78SLPC  H14B 7074   0.598   3.987   6.144  0.5859 -1.6974  1.9311
   78SLPC  H14C 7075   0.682   3.940   5.996  1.6428  3.0184  0.0088
   78SLPC   C15 7076   0.797   4.149   6.105  0.4003 -0.0600 -0.2238
   78SLPC  H15A 7077   0.802   4.156   5.997 -0.7215  0.8631 -0.2304
   78SLPC  H15B 7078   0.712   4.192   6.154 -0.0357 -0.7935 -0.3373
   78SLPC  H15C 7079   0.885   4.204   6.137  1.7682 -1.7184 -0.9250
   78SLPC   C12 7080   0.821   3.990   6.298  0.2384  0.0851 -0.1005
   78SLPC  H12A 7081   0.725   4.017   6.339  1.0556  0.1525  1.8513
   78SLPC  H12B 7082   0.884   4.071   6.330 -0.3178  1.0471 -1.3403
   78SLPC   C11 7083   0.859   3.862   6.378  0.1850  1.0620 -0.0904
   78SLPC  H11A 7084   0.779   3.787   6.356  1.2955 -0.6168  1.3657
   78SLPC  H11B 7085   0.844   3.882   6.486  0.0869 -0.1435  0.1322
   78SLPC     P 7086   1.121   3.862   6.395 -0.2409 -0.2695  0.0410
   78SLPC   O13 7087   1.208   3.747   6.419 -0.5518  0.3906 -0.3055
   78SLPC   O14 7088   1.161   3.971   6.299  0.4189  0.1633 -0.8620
   78SLPC   O12 7089   0.986   3.807   6.355  0.3109 -0.2091 -0.6135
   78SLPC   O11 7090   1.084   3.934   6.531 -0.2117  0.0409  0.3840
   78SLPC    C1 7091   1.071   3.858   6.652  0.3091 -0.0649 -0.6136
   78SLPC    HA 7092   0.975   3.802   6.659  1.2842 -1.7214  0.3390
   78SLPC    HB 7093   1.155   3.787   6.669 -1.0833 -1.3475  1.2146
   78SLPC    C2 7094   1.061   3.959   6.775 -0.1930  0.0186 -0.1940
   78SLPC    HS 7095   1.153   4.020   6.787 -0.2925  0.2133 -0.4089
   78SLPC   O21 7096   1.045   3.876   6.888  0.7782 -0.2305 -0.0912
   78SLPC   C21 7097   1.149   3.823   6.946 -0.1133 -0.1201  0.5740
   78SLPC   O22 7098   1.262   3.843   6.909 -0.4893  0.1632 -0.6498
   78SLPC   C22 7099   1.099   3.746   7.061 -0.1647  0.7036 -1.4016
   78SLPC   H2R 7100   0.996   3.705   7.046 -1.2892  2.2093  1.4901
   78SLPC   H2S 7101   1.162   3.660   7.094 -2.5117  0.2871  2.7255
   78SLPC    C3 7102   0.939   4.054   6.757 -0.3525  0.0581 -0.1535
   78SLPC    HX 7103   0.853   3.997   6.715  0.6465 -1.2567 -0.4955
   78SLPC    HY 7104   0.972   4.125   6.678 -0.2968 -0.4657 -0.6063
   78SLPC   O31 7105   0.897   4.100   6.885  0.1704 -0.4250 -0.9384
   78SLPC   C31 7106   0.959   4.199   6.947 -0.3641  0.4180  0.0366
   78SLPC   O32 7107   1.069   4.249   6.914 -0.7475  0.0530 -0.0363
   78SLPC   C32 7108   0.873   4.259   7.066  0.3183  0.0289  0.0885
   78SLPC   H2X 7109   0.821   4.173   7.114 -1.3773  0.8052 -0.2909
   78SLPC   H2Y 7110   0.794   4.315   7.012 -0.5279 -1.9219 -0.8217
   78SLPC   C23 7111   1.085   3.841   7.193  0.4864  0.0905  0.3682
   78SLPC   H3R 7112   1.038   3.768   7.262  2.1871 -1.3545  0.0933
   78SLPC   H3S 7113   1.025   3.933   7.180  3.8354  2.4691  0.3031
   78SLPC   C24 7114   1.224   3.890   7.238 -0.4903 -0.3644  0.1579
   78SLPC   H4R 7115   1.265   3.958   7.160  0.4557 -1.7327 -0.5716
   78SLPC   H4S 7116   1.296   3.806   7.246  0.5517  0.5696  0.7913
   78SLPC   C25 7117   1.226   3.945   7.375 -0.4278  0.3034 -0.7755
   78SLPC   H5R 7118   1.330   3.953   7.412 -0.6392 -0.7214  0.0865
   78SLPC   H5S 7119   1.171   3.877   7.443 -3.3565  2.7384 -0.4734
   78SLPC   C26 7120   1.161   4.086   7.386 -0.8183  0.2663 -0.0474
   78SLPC   H6R 7121   1.060   4.085   7.341 -0.8017 -2.4605 -0.1893
   78SLPC   H6S 7122   1.226   4.149   7.321  3.6477 -2.0098  1.7589
   78SLPC   C27 7123   1.162   4.133   7.531 -0.3067  0.2787  0.2276
   78SLPC   H7R 7124   1.124   4.237   7.533 -1.4599 -0.1297  1.7576
   78SLPC   H7S 7125   1.268   4.135   7.564  0.5688 -0.1100 -2.3174
   78SLPC   C28 7126   1.070   4.056   7.625 -0.2305 -0.1723 -0.5619
   78SLPC   H8R 7127   1.078   3.945   7.618  0.0294 -0.0840 -2.3031
   78SLPC   H8S 7128   0.968   4.072   7.582 -0.1447 -0.2883 -0.8144
   78SLPC   C29 7129   1.068   4.101   7.769 -0.6054 -0.3867  0.8700
   78SLPC   H9R 7130   1.016   4.198   7.778 -1.2244 -0.7985  1.8936
   78SLPC  C210 7131   1.115   4.038   7.874  0.6900  0.1087 -0.7529
   78SLPC  H10R 7132   1.090   4.083   7.971 -2.0457 -0.3841 -1.1623
   78SLPC  C211 7133   1.176   3.899   7.869  0.2852  0.0900 -0.1746
   78SLPC  H11R 7134   1.247   3.898   7.954 -0.5193 -1.1671  0.5141
   78SLPC  H11S 7135   1.234   3.883   7.775 -1.0946 -1.6316 -0.7896
   78SLPC  C212 7136   1.075   3.784   7.885 -0.0483 -0.2698  0.1678
   78SLPC  H12R 7137   0.993   3.783   7.811 -1.7106 -0.8260  1.9273
   78SLPC  C213 7138   1.074   3.687   7.975 -0.0315 -0.0518  0.2956
   78SLPC  H13R 7139   0.989   3.619   7.964 -0.2605  0.5679 -2.5231
   78SLPC  C214 7140   1.164   3.659   8.091  0.0846  0.0384 -0.5926
   78SLPC  H14R 7141   1.241   3.738   8.105 -2.5078  2.7182 -0.3660
   78SLPC  H14S 7142   1.206   3.558   8.072  0.5676  0.2995 -0.9312
   78SLPC  C215 7143   1.073   3.669   8.218  0.9076 -0.2739  1.1089
   78SLPC  H15R 7144   0.979   3.618   8.187  0.7231  1.9911 -2.7090
   78SLPC  H15S 7145   1.049   3.776   8.235  1.3929 -0.3723  2.5531
   78SLPC  C216 7146   1.137   3.633   8.346 -0.3544 -0.1253 -0.2660
   78SLPC  H16R 7147   1.221   3.700   8.374 -0.1875 -0.0245 -0.9884
   78SLPC  H16S 7148   1.179   3.531   8.336 -1.1797 -0.5906  0.8692
   78SLPC  C217 7149   1.029   3.628   8.457  0.0843 -0.6174 -0.4326
   78SLPC  H17R 7150   1.088   3.585   8.541  4.1400  0.5163 -2.4674
   78SLPC  H17S 7151   0.951   3.550   8.439 -1.6937  1.2307 -1.1078
   78SLPC  C218 7152   0.974   3.766   8.493 -0.9974 -0.4864  0.4818
   78SLPC  H18R 7153   0.920   3.812   8.408  1.4366  2.8969  0.5542
   78SLPC  H18S 7154   1.044   3.846   8.523  0.2813 -1.1335 -0.6284
   78SLPC  H18T 7155   0.896   3.767   8.572 -0.6487  0.0680  0.8240
   78SLPC   C33 7156   0.955   4.346   7.155 -0.6668  0.2828  0.2389
   78SLPC   H3X 7157   0.988   4.440   7.105 -0.0768 -0.5225 -0.9223
   78SLPC   H3Y 7158   1.048   4.304   7.198  0.9708 -0.4924 -3.6652
   78SLPC   C34 7159   0.876   4.388   7.271  0.0300 -0.4554  0.1082
   78SLPC   H4X 7160   0.882   4.306   7.346  0.8419  0.7505  1.4074
   78SLPC   H4Y 7161   0.771   4.412   7.242  1.0033  3.9230 -0.4627
   78SLPC   C35 7162   0.932   4.521   7.330 -0.3488 -0.3302  0.0442
   78SLPC   H5X 7163   0.926   4.601   7.253  0.6167 -1.1424 -0.9051
   78SLPC   H5Y 7164   1.041   4.510   7.350  0.0157 -0.0198 -1.6224
   78SLPC   C36 7165   0.850   4.589   7.442  0.2772  0.0136 -0.2661
   78SLPC   H6X 7166   0.741   4.592   7.425 -0.2632 -3.8174  1.5801
   78SLPC   H6Y 7167   0.888   4.689   7.474 -0.6402 -0.6113  3.2372
   78SLPC   C37 7168   0.869   4.505   7.565  0.4697  0.2630 -0.6797
   78SLPC   H7X 7169   0.979   4.496   7.583  0.6851 -0.0239 -2.0326
   78SLPC   H7Y 7170   0.821   4.406   7.554  0.5111  0.1570  0.0380
   78SLPC   C38 7171   0.808   4.570   7.691  0.4772  0.0129  0.1452
   78SLPC   H8X 7172   0.702   4.588   7.662  0.4648  1.7036  1.1484
   78SLPC   H8Y 7173   0.844   4.675   7.700 -2.0300  0.7479  2.8612
   78SLPC   C39 7174   0.818   4.473   7.816 -0.0780  0.6407  0.3664
   78SLPC   H9X 7175   0.924   4.474   7.850  0.1388 -0.6787 -0.1838
   78SLPC   H9Y 7176   0.803   4.367   7.787  0.8602  0.6732 -0.3099
   78SLPC  C310 7177   0.726   4.508   7.933  0.3829  0.0100 -1.0990
   78SLPC  H10X 7178   0.626   4.530   7.890  0.3765 -0.3833 -1.2849
   78SLPC  H10Y 7179   0.771   4.589   7.995 -2.0043  1.0498 -0.6179
   78SLPC  C311 7180   0.708   4.393   8.033 -0.5149  0.5413  0.1640
   78SLPC  H11X 7181   0.795   4.389   8.103 -1.0847 -1.9661  0.8359
   78SLPC  H11Y 7182   0.713   4.299   7.973 -1.2009  1.2740 -1.0725
   78SLPC  C312 7183   0.583   4.405   8.116  0.3168 -0.0418  1.0217
   78SLPC  H12X 7184   0.492   4.395   8.054  1.7334  2.3587 -1.6841
   78SLPC  H12Y 7185   0.588   4.502   8.170  1.3016 -0.1954  1.2301
   78SLPC  C313 7186   0.568   4.294   8.220 -0.5831  0.3386 -0.0782
   78SLPC  H13X 7187   0.656   4.296   8.287 -0.0201  0.1763 -0.8000
   78SLPC  H13Y 7188   0.554   4.197   8.167 -0.2065  1.5704 -2.5483
   78SLPC  C314 7189   0.448   4.325   8.318  0.7720 -0.2520  0.3576
   78SLPC  H14X 7190   0.352   4.317   8.261  0.2960 -1.9046  1.3251
   78SLPC  H14Y 7191   0.452   4.425   8.365  1.3516 -0.4910  0.8260
   78SLPC  C315 7192   0.443   4.222   8.424 -0.0505  1.0485  0.1430
   78SLPC  H15X 7193   0.351   4.246   8.482 -1.1437 -0.2872 -0.9594
   78SLPC  H15Y 7194   0.523   4.229   8.501 -1.2410  2.2937  1.3209
   78SLPC  C316 7195   0.435   4.083   8.367  0.5391  0.2286  0.2347
   78SLPC  H16X 7196   0.536   4.046   8.336  0.4915 -1.0237  1.4841
   78SLPC  H16Y 7197   0.366   4.073   8.281 -0.6180 -3.2624  1.4109
   78SLPC  C317 7198   0.400   3.975   8.473 -0.2927  0.2158 -0.3754
   78SLPC  H17X 7199   0.291   3.972   8.495 -0.5393  2.9124 -0.9098
   78SLPC  H17Y 7200   0.452   4.008   8.566 -0.0011  0.5878 -0.6681
   78SLPC  C318 7201   0.438   3.828   8.433  0.1870 -0.3228 -1.0102
   78SLPC  H18X 7202   0.411   3.753   8.511  1.4227 -0.2698 -0.5043
   78SLPC  H18Y 7203   0.548   3.816   8.426  0.3506 -0.0323  0.6345
   78SLPC  H18Z 7204   0.385   3.795   8.341 -0.6650 -0.1508 -0.5832
   79SLPC     N 7205   5.497   5.964   6.017 -0.3733 -0.7471 -0.0166
   79SLPC   C13 7206   5.346   5.977   6.009  0.1800 -0.3968  0.4155
   79SLPC  H13A 7207   5.312   5.996   5.908 -2.9056 -1.7377  1.1028
   79SLPC  H13B 7208   5.288   5.893   6.043 -0.5664 -0.8543 -1.8265
   79SLPC  H13C 7209   5.318   6.064   6.068  0.3343  0.5957 -0.9136
   79SLPC   C14 7210   5.561   6.074   5.943  0.0888 -0.1945  1.1497
   79SLPC  H14A 7211   5.562   6.164   6.003 -1.7136 -0.0437  1.0165
   79SLPC  H14B 7212   5.665   6.058   5.920  0.5851  1.4491  2.1411
   79SLPC  H14C 7213   5.513   6.081   5.846  1.9267 -1.1362  0.1162
   79SLPC   C15 7214   5.542   5.833   5.956 -0.4004 -0.4926 -0.2725
   79SLPC  H15A 7215   5.511   5.750   6.018 -3.5359  0.3176 -0.5793
   79SLPC  H15B 7216   5.500   5.825   5.857 -1.2143  0.1570  0.0048
   79SLPC  H15C 7217   5.647   5.834   5.934 -0.2717 -3.8332 -0.2196
   79SLPC   C12 7218   5.545   5.959   6.166 -0.0855 -0.2746 -0.5082
   79SLPC  H12A 7219   5.650   5.933   6.170 -0.3158 -1.1128  0.5326
   79SLPC  H12B 7220   5.495   5.869   6.199 -1.6364  0.4602 -0.7829
   79SLPC   C11 7221   5.503   6.066   6.262  0.1155 -0.3060  0.2728
   79SLPC  H11A 7222   5.559   6.049   6.356  1.5669  2.4469  0.0181
   79SLPC  H11B 7223   5.395   6.063   6.286  0.2619 -1.0351  0.8711
   79SLPC     P 7224   5.445   6.324   6.223 -0.1481  0.3551  0.1109
   79SLPC   O13 7225   5.516   6.444   6.181 -0.3949  0.0273 -0.0485
   79SLPC   O14 7226   5.318   6.298   6.157 -0.3553  0.0118  0.6241
   79SLPC   O12 7227   5.538   6.201   6.215 -0.0885  0.5551  0.2017
   79SLPC   O11 7228   5.425   6.335   6.385 -0.0604  0.1422 -0.2798
   79SLPC    C1 7229   5.535   6.341   6.475 -0.4329 -0.1846 -0.4648
   79SLPC    HA 7230   5.549   6.249   6.535  0.6517  0.1420 -0.1925
   79SLPC    HB 7231   5.634   6.353   6.425 -0.3369 -1.2638 -0.5613
   79SLPC    C2 7232   5.519   6.458   6.581  0.4945  0.0174  0.4439
   79SLPC    HS 7233   5.625   6.476   6.610  0.9515 -0.8736 -0.5943
   79SLPC   O21 7234   5.428   6.424   6.686  0.2613  0.1268  0.1873
   79SLPC   C21 7235   5.493   6.417   6.805  0.0456  0.1673 -0.5313
   79SLPC   O22 7236   5.601   6.463   6.833 -0.2046 -0.6022 -0.8105
   79SLPC   C22 7237   5.396   6.356   6.914  0.1214 -0.1010 -0.0056
   79SLPC   H2R 7238   5.296   6.404   6.904  0.5558  0.9043  0.2646
   79SLPC   H2S 7239   5.389   6.249   6.887 -1.5106 -0.2095  0.7543
   79SLPC    C3 7240   5.472   6.586   6.506  0.0920  0.0281 -0.2153
   79SLPC    HX 7241   5.370   6.556   6.472 -0.1761 -0.0576  0.6401
   79SLPC    HY 7242   5.552   6.600   6.431 -0.0238  0.5790 -0.2389
   79SLPC   O31 7243   5.456   6.705   6.590  0.0749  0.2955  0.0223
   79SLPC   C31 7244   5.566   6.763   6.626  0.2260 -0.6904  1.3341
   79SLPC   O32 7245   5.680   6.730   6.606  0.0579 -0.5943 -0.2937
   79SLPC   C32 7246   5.524   6.885   6.715 -0.2059 -0.1935  0.0277
   79SLPC   H2X 7247   5.418   6.880   6.748 -0.6297  5.4676  0.5858
   79SLPC   H2Y 7248   5.545   6.982   6.664 -0.0935  0.4913  1.3407
   79SLPC   C23 7249   5.450   6.365   7.057 -0.1091 -0.2177 -0.1025
   79SLPC   H3R 7250   5.475   6.473   7.064  0.5435 -0.3381 -0.4642
   79SLPC   H3S 7251   5.542   6.303   7.058 -1.0385 -1.6712  1.0388
   79SLPC   C24 7252   5.360   6.301   7.166  0.3701  0.0269 -0.2235
   79SLPC   H4R 7253   5.344   6.196   7.131  2.1682 -0.7404  1.1166
   79SLPC   H4S 7254   5.263   6.356   7.165  1.1222  1.4004  0.5976
   79SLPC   C25 7255   5.433   6.306   7.301  0.0415  0.2313  0.4055
   79SLPC   H5R 7256   5.444   6.414   7.326  0.8830  0.0896  0.6824
   79SLPC   H5S 7257   5.534   6.262   7.284  1.1982  3.2600 -1.4987
   79SLPC   C26 7258   5.359   6.243   7.409  0.3740  0.3095 -0.1275
   79SLPC   H6R 7259   5.365   6.133   7.405 -1.4880  0.2314 -2.2303
   79SLPC   H6S 7260   5.253   6.274   7.401  0.1544 -0.7508 -1.7308
   79SLPC   C27 7261   5.408   6.294   7.544 -0.0589 -0.2628  0.1620
   79SLPC   H7R 7262   5.355   6.386   7.576  0.5974  0.1943 -0.0534
   79SLPC   H7S 7263   5.517   6.312   7.550  0.4062 -2.7342  0.4282
   79SLPC   C28 7264   5.376   6.195   7.652 -0.2213 -0.3137 -0.8133
   79SLPC   H8R 7265   5.391   6.089   7.624 -1.6660 -0.4081 -1.2998
   79SLPC   H8S 7266   5.270   6.215   7.677  0.9360  1.1531  4.1674
   79SLPC   C29 7267   5.466   6.219   7.771  0.4304 -0.1118 -0.7886
   79SLPC   H9R 7268   5.574   6.205   7.763  0.4081 -0.5285 -0.3796
   79SLPC  C210 7269   5.415   6.271   7.889  0.5699 -0.0808  0.7120
   79SLPC  H10R 7270   5.487   6.277   7.973  0.0720 -1.3298  1.2599
   79SLPC  C211 7271   5.280   6.315   7.919 -0.1060 -0.4799  0.7553
   79SLPC  H11R 7272   5.250   6.380   7.834 -1.1170 -3.0013 -0.9357
   79SLPC  H11S 7273   5.283   6.392   7.999  3.0032  0.9677 -0.6073
   79SLPC  C212 7274   5.180   6.204   7.932 -0.1603  0.2003  0.2516
   79SLPC  H12R 7275   5.159   6.136   7.848 -0.3990  1.7906 -1.0475
   79SLPC  C213 7276   5.092   6.192   8.038 -0.7675 -0.0299  0.6616
   79SLPC  H13R 7277   5.024   6.106   8.046 -0.4395 -0.3999 -0.3681
   79SLPC  C214 7278   5.093   6.276   8.161  0.1160 -0.6715 -1.3020
   79SLPC  H14R 7279   4.990   6.317   8.172  0.1978 -0.7549 -0.0669
   79SLPC  H14S 7280   5.167   6.359   8.159 -0.1042 -0.4040  0.2261
   79SLPC  C215 7281   5.102   6.195   8.292  0.1903 -0.1701  0.1150
   79SLPC  H15R 7282   5.110   6.278   8.366  1.1248  1.2305 -1.4920
   79SLPC  H15S 7283   5.194   6.132   8.295 -0.0409 -0.4923  0.4178
   79SLPC  C216 7284   4.980   6.099   8.323  0.7110  0.3706  0.6419
   79SLPC  H16R 7285   4.990   6.026   8.240 -2.2053  2.1346 -1.4930
   79SLPC  H16S 7286   4.889   6.163   8.313 -0.3929 -1.2485 -0.1877
   79SLPC  C217 7287   4.975   6.019   8.458 -0.0764 -0.3839 -0.3149
   79SLPC  H17R 7288   5.080   5.983   8.465  0.4443 -0.2525 -4.6810
   79SLPC  H17S 7289   4.902   5.935   8.453 -3.5397  2.2992  0.7920
   79SLPC  C218 7290   4.950   6.112   8.578  0.5054  0.3127  0.1634
   79SLPC  H18R 7291   4.849   6.158   8.573  0.2514 -0.1500  0.8936
   79SLPC  H18S 7292   5.033   6.186   8.581  1.8532 -1.1636  0.7622
   79SLPC  H18T 7293   4.974   6.048   8.666  0.9625 -1.3897 -1.1629
   79SLPC   C33 7294   5.609   6.896   6.845 -0.0072 -0.1945  1.0339
   79SLPC   H3X 7295   5.595   6.988   6.905  1.5992 -0.0446  1.2208
   79SLPC   H3Y 7296   5.714   6.890   6.809  0.4624  1.7980  1.9808
   79SLPC   C34 7297   5.571   6.781   6.942  0.1884 -0.3890 -0.3896
   79SLPC   H4X 7298   5.605   6.686   6.894  1.3735 -0.3663  0.3633
   79SLPC   H4Y 7299   5.462   6.769   6.957  0.4482 -0.6878  1.4910
   79SLPC   C35 7300   5.643   6.801   7.072 -0.5753  0.1593  0.5518
   79SLPC   H5X 7301   5.630   6.904   7.112 -2.9066 -0.2597  1.0249
   79SLPC   H5Y 7302   5.751   6.793   7.051 -0.6207  0.9088 -0.0185
   79SLPC   C36 7303   5.602   6.711   7.185  0.0916  0.1793  0.3982
   79SLPC   H6X 7304   5.625   6.608   7.152  1.5256  0.5840  0.0656
   79SLPC   H6Y 7305   5.492   6.725   7.189 -0.1500 -0.8740 -1.4419
   79SLPC   C37 7306   5.652   6.745   7.320  0.2968  0.6223  0.3105
   79SLPC   H7X 7307   5.652   6.854   7.339  1.1058  0.6018  0.4707
   79SLPC   H7Y 7308   5.758   6.714   7.335  0.4697  1.9768  2.2098
   79SLPC   C38 7309   5.571   6.670   7.433  0.6683 -0.4840  0.5777
   79SLPC   H8X 7310   5.579   6.560   7.420 -0.4599 -0.8923  2.7225
   79SLPC   H8Y 7311   5.467   6.709   7.436  0.8276 -0.0659  3.4634
   79SLPC   C39 7312   5.635   6.683   7.571 -0.0564  0.5310 -0.0728
   79SLPC   H9X 7313   5.663   6.787   7.601  0.3636  0.0554  1.2794
   79SLPC   H9Y 7314   5.733   6.632   7.561  0.9593  2.3317  0.2070
   79SLPC  C310 7315   5.547   6.622   7.678  0.3077  0.1401 -0.7763
   79SLPC  H10X 7316   5.540   6.513   7.658 -1.9401 -0.2541  1.6490
   79SLPC  H10Y 7317   5.444   6.657   7.657  1.2136  2.2123 -2.0832
   79SLPC  C311 7318   5.598   6.643   7.821  0.6231 -0.0682  0.2071
   79SLPC  H11X 7319   5.526   6.584   7.882 -2.0594  0.7871 -1.9058
   79SLPC  H11Y 7320   5.581   6.751   7.839 -0.1220  0.3306 -2.4686
   79SLPC  C312 7321   5.743   6.601   7.840 -0.9581 -0.1673 -0.0981
   79SLPC  H12X 7322   5.812   6.670   7.788 -1.0061  0.6780  0.9259
   79SLPC  H12Y 7323   5.766   6.500   7.799  2.4801 -0.3096  1.8317
   79SLPC  C313 7324   5.781   6.593   7.997 -0.0821  0.4202 -0.2810
   79SLPC  H13X 7325   5.743   6.673   8.063  0.4033 -0.1465  0.7158
   79SLPC  H13Y 7326   5.892   6.584   8.001  0.0496  1.9211 -0.3282
   79SLPC  C314 7327   5.722   6.469   8.059 -0.8802 -0.5995 -0.0628
   79SLPC  H14X 7328   5.778   6.381   8.021 -0.6929 -1.8828  2.8664
   79SLPC  H14Y 7329   5.612   6.454   8.048 -1.0054 -1.3910  1.8002
   79SLPC  C315 7330   5.761   6.450   8.210 -0.3052 -0.1465  0.5708
   79SLPC  H15X 7331   5.730   6.536   8.273  2.5597  0.7234  0.9477
   79SLPC  H15Y 7332   5.872   6.454   8.204 -0.4083  1.1799 -2.4937
   79SLPC  C316 7333   5.712   6.318   8.279  0.2353  0.4807  0.5353
   79SLPC  H16X 7334   5.742   6.233   8.214  1.7838  1.1852  0.2792
   79SLPC  H16Y 7335   5.602   6.309   8.284  0.4061 -2.1949  1.3080
   79SLPC  C317 7336   5.754   6.299   8.425  0.5424  0.5229 -0.2075
   79SLPC  H17X 7337   5.723   6.387   8.485 -2.6234 -0.7080  0.1700
   79SLPC  H17Y 7338   5.864   6.292   8.435  0.6934  1.5814 -0.9730
   79SLPC  C318 7339   5.687   6.175   8.498  0.6500 -0.5825 -0.1039
   79SLPC  H18X 7340   5.702   6.168   8.608 -0.1287 -0.9840 -0.0146
   79SLPC  H18Y 7341   5.733   6.082   8.458 -0.6825 -1.2352 -0.1530
   79SLPC  H18Z 7342   5.578   6.171   8.479  0.8959 -0.1882 -1.7822
   80SLPC     N 7343   0.020   2.370   6.127 -0.1925 -0.1118 -0.0956
   80SLPC   C13 7344  -0.127   2.349   6.131 -0.1020 -0.2310  0.4508
   80SLPC  H13A 7345  -0.168   2.293   6.048  2.2959 -1.9286  0.2860
   80SLPC  H13B 7346  -0.152   2.286   6.215 -1.3557  1.8339  1.6883
   80SLPC  H13C 7347  -0.176   2.444   6.143  0.2633 -0.0893  0.8047
   80SLPC   C14 7348   0.054   2.456   6.009  0.2703  0.7509  0.0071
   80SLPC  H14A 7349   0.035   2.559   6.033  1.7001  0.7768  1.1049
   80SLPC  H14B 7350   0.158   2.439   5.986 -0.1231 -1.5363 -0.2961
   80SLPC  H14C 7351  -0.012   2.428   5.928  0.5610  0.8164 -0.2515
   80SLPC   C15 7352   0.075   2.238   6.108 -0.4406  0.6028 -0.0867
   80SLPC  H15A 7353   0.026   2.177   6.183  1.4253  0.8228  1.3952
   80SLPC  H15B 7354   0.053   2.198   6.011 -1.6769  0.4249  0.2498
   80SLPC  H15C 7355   0.183   2.234   6.114 -0.4345  1.5583  0.7389
   80SLPC   C12 7356   0.064   2.428   6.268  0.3354  0.5110  0.0700
   80SLPC  H12A 7357   0.172   2.424   6.271  0.5580  3.7958  0.3562
   80SLPC  H12B 7358   0.025   2.366   6.348  1.9233  1.1221  1.3794
   80SLPC   C11 7359   0.035   2.583   6.296 -0.6232  0.7744 -0.1431
   80SLPC  H11A 7360   0.073   2.596   6.399  1.1520 -0.2837 -0.6257
   80SLPC  H11B 7361  -0.074   2.600   6.308 -0.3788  0.8206  2.5056
   80SLPC     P 7362   0.262   2.687   6.222 -0.2312  0.0400 -0.2367
   80SLPC   O13 7363   0.313   2.568   6.296  0.0261 -0.0178 -0.7838
   80SLPC   O14 7364   0.308   2.700   6.082 -0.3791 -0.1826  0.2115
   80SLPC   O12 7365   0.100   2.672   6.207  0.0182  0.3525 -0.6199
   80SLPC   O11 7366   0.290   2.819   6.310  0.5747  0.1156  0.2104
   80SLPC    C1 7367   0.319   2.813   6.449  0.1739 -0.6558  0.7787
   80SLPC    HA 7368   0.298   2.715   6.498  0.7438 -0.8032  0.7322
   80SLPC    HB 7369   0.426   2.839   6.462  0.4717 -1.6204  0.3250
   80SLPC    C2 7370   0.230   2.918   6.532 -0.9354  0.4472 -0.4959
   80SLPC    HS 7371   0.256   3.013   6.481  0.8618  0.5700  0.5466
   80SLPC   O21 7372   0.277   2.911   6.672  0.0156 -0.4669 -0.2395
   80SLPC   C21 7373   0.255   3.023   6.734  0.6448  0.3084 -0.3518
   80SLPC   O22 7374   0.228   3.133   6.682  0.8617  0.2470  0.5251
   80SLPC   C22 7375   0.253   2.995   6.887 -0.1024  0.0438  0.7424
   80SLPC   H2R 7376   0.174   2.921   6.913  0.5165 -1.0050 -0.2368
   80SLPC   H2S 7377   0.357   2.958   6.903  0.5842 -0.4061 -3.4237
   80SLPC    C3 7378   0.071   2.898   6.521  0.2084  0.6134 -0.1632
   80SLPC    HX 7379   0.049   2.912   6.413  0.4766  0.0692 -0.2927
   80SLPC    HY 7380   0.013   2.972   6.580 -0.7805 -1.3261  1.4005
   80SLPC   O31 7381   0.025   2.760   6.562 -0.1756  0.4622  0.0201
   80SLPC   C31 7382   0.004   2.744   6.692 -0.6923  0.1275 -0.3258
   80SLPC   O32 7383   0.015   2.834   6.772  0.1945 -0.4039 -0.0428
   80SLPC   C32 7384  -0.053   2.605   6.716  0.0405  0.1396  0.4385
   80SLPC   H2X 7385  -0.006   2.534   6.646 -2.7866 -1.6118  0.1542
   80SLPC   H2Y 7386  -0.163   2.597   6.706  0.1259 -1.3261  0.4792
   80SLPC   C23 7387   0.211   3.119   6.956  0.0722 -0.2848 -1.1113
   80SLPC   H3R 7388   0.109   3.147   6.920 -1.0088 -1.7534  0.6390
   80SLPC   H3S 7389   0.285   3.197   6.932 -0.4912  0.3422 -0.8456
   80SLPC   C24 7390   0.189   3.089   7.107 -0.5236  0.2954 -0.4779
   80SLPC   H4R 7391   0.281   3.040   7.148  0.8006  2.1271 -1.1308
   80SLPC   H4S 7392   0.098   3.028   7.124  0.0300 -0.7638 -1.2106
   80SLPC   C25 7393   0.178   3.218   7.187  1.1731 -0.3812 -0.4127
   80SLPC   H5R 7394   0.097   3.289   7.159  1.0290  0.7146  2.4059
   80SLPC   H5S 7395   0.269   3.282   7.186  0.5654  0.7640  3.0505
   80SLPC   C26 7396   0.133   3.198   7.342 -1.3009 -0.5580  0.0482
   80SLPC   H6R 7397   0.216   3.144   7.393 -2.3871 -1.8826  0.4551
   80SLPC   H6S 7398   0.047   3.129   7.354  0.8308 -3.2423  1.0100
   80SLPC   C27 7399   0.104   3.327   7.407 -0.1184 -0.2401  0.3792
   80SLPC   H7R 7400   0.018   3.369   7.351 -0.6644 -1.9382 -0.1165
   80SLPC   H7S 7401   0.202   3.380   7.404 -0.7870  1.0218  0.3867
   80SLPC   C28 7402   0.056   3.301   7.552  0.5295 -0.2629  0.1755
   80SLPC   H8R 7403  -0.011   3.213   7.548  1.2810 -0.9094  1.2378
   80SLPC   H8S 7404   0.002   3.388   7.596  0.4722 -0.8976  1.4288
   80SLPC   C29 7405   0.168   3.265   7.640  0.5652 -0.1755 -0.3736
   80SLPC   H9R 7406   0.267   3.264   7.591  0.4992 -0.8905 -0.5161
   80SLPC  C210 7407   0.160   3.217   7.763  0.0262  0.1649  0.1116
   80SLPC  H10R 7408   0.253   3.202   7.820  0.6132  1.0363 -0.5887
   80SLPC  C211 7409   0.042   3.203   7.850  0.4350 -0.6068 -0.2545
   80SLPC  H11R 7410   0.032   3.099   7.886 -3.1037 -0.2396  0.2631
   80SLPC  H11S 7411  -0.047   3.226   7.786  1.2096 -2.5231 -2.1344
   80SLPC  C212 7412   0.041   3.303   7.961 -0.7317  0.0366  0.4299
   80SLPC  H12R 7413   0.043   3.406   7.920  0.4128  0.5222  1.6292
   80SLPC  C213 7414   0.037   3.283   8.096 -0.4209  0.1796 -0.9165
   80SLPC  H13R 7415   0.031   3.371   8.161 -1.9196  0.5053 -1.4546
   80SLPC  C214 7416   0.031   3.154   8.172 -0.3240 -0.2686 -0.9129
   80SLPC  H14R 7417   0.136   3.134   8.203 -0.2000  0.1270 -1.0619
   80SLPC  H14S 7418   0.004   3.072   8.102 -0.1714 -1.5851  0.5104
   80SLPC  C215 7419  -0.061   3.159   8.294  0.7139 -0.4186 -0.1269
   80SLPC  H15R 7420  -0.164   3.168   8.254  1.6854 -1.4657 -3.1190
   80SLPC  H15S 7421  -0.037   3.247   8.356  0.0384 -2.5247  3.4260
   80SLPC  C216 7422  -0.038   3.038   8.386 -0.1255  0.3633 -0.0209
   80SLPC  H16R 7423  -0.105   3.040   8.475 -0.6802 -5.6695  0.1434
   80SLPC  H16S 7424   0.068   3.039   8.419 -0.8114 -0.4532  2.4843
   80SLPC  C217 7425  -0.070   2.900   8.320 -0.1768 -0.4368  0.1157
   80SLPC  H17R 7426  -0.002   2.883   8.233  1.0560 -0.4356  1.0538
   80SLPC  H17S 7427  -0.167   2.908   8.265 -0.1943  0.3623  0.2421
   80SLPC  C218 7428  -0.087   2.788   8.413 -0.7459 -0.0773  0.4127
   80SLPC  H18R 7429  -0.078   2.694   8.354 -0.7360 -0.6047  1.2444
   80SLPC  H18S 7430  -0.186   2.798   8.462 -0.8613 -0.4660  0.2665
   80SLPC  H18T 7431  -0.016   2.795   8.498 -1.2352  2.0928  0.6776
   80SLPC   C33 7432  -0.020   2.573   6.866 -0.0506  0.5166  0.1128
   80SLPC   H3X 7433  -0.056   2.471   6.893  1.3799 -0.4900 -1.5687
   80SLPC   H3Y 7434  -0.071   2.647   6.931 -2.3755 -0.7436 -0.1863
   80SLPC   C34 7435   0.132   2.573   6.896  0.0859 -0.6093  0.6915
   80SLPC   H4X 7436   0.173   2.676   6.885 -0.5721 -0.3586  0.4974
   80SLPC   H4Y 7437   0.175   2.501   6.823 -1.0574 -2.4313  1.7245
   80SLPC   C35 7438   0.155   2.546   7.048  0.8545 -0.5830  0.5550
   80SLPC   H5X 7439   0.257   2.509   7.070  1.4872  0.9356  0.3078
   80SLPC   H5Y 7440   0.084   2.468   7.082  0.5944 -0.1075  1.1128
   80SLPC   C36 7441   0.137   2.671   7.137 -0.3120  0.2368  0.8198
   80SLPC   H6X 7442   0.035   2.715   7.131 -1.5074 -2.1043  2.4264
   80SLPC   H6Y 7443   0.215   2.741   7.099 -0.3878 -0.0492  0.1056
   80SLPC   C37 7444   0.163   2.639   7.284 -0.4130 -0.1918  0.1048
   80SLPC   H7X 7445   0.264   2.601   7.309 -0.3037  0.9225  1.5373
   80SLPC   H7Y 7446   0.088   2.561   7.307  0.0877 -0.3633  1.2099
   80SLPC   C38 7447   0.142   2.752   7.384 -0.5459  0.0242 -0.1772
   80SLPC   H8X 7448   0.058   2.817   7.353 -0.0389  1.8553  2.0007
   80SLPC   H8Y 7449   0.225   2.823   7.366 -1.1982  1.0387  0.7019
   80SLPC   C39 7450   0.133   2.709   7.529  0.0038 -0.9940  0.3064
   80SLPC   H9X 7451   0.225   2.656   7.560  1.0572  0.1385 -0.7505
   80SLPC   H9Y 7452   0.042   2.646   7.530 -0.1963 -0.7198 -0.0415
   80SLPC  C310 7453   0.119   2.834   7.619  0.0213  0.3634  0.0439
   80SLPC  H10X 7454   0.032   2.899   7.594 -2.2710 -2.6885 -0.6212
   80SLPC  H10Y 7455   0.217   2.885   7.618 -1.1396  2.7451 -0.3041
   80SLPC  C311 7456   0.085   2.793   7.764 -0.0510 -0.6614 -0.1302
   80SLPC  H11X 7457   0.123   2.870   7.835 -1.8430  0.3219 -0.1699
   80SLPC  H11Y 7458   0.138   2.700   7.795  1.5512  0.9414  2.3111
   80SLPC  C312 7459  -0.062   2.740   7.781 -0.6822  0.3048  0.0916
   80SLPC  H12X 7460  -0.074   2.647   7.721  0.1568  0.1160  0.2015
   80SLPC  H12Y 7461  -0.125   2.820   7.737  1.6924  1.4655 -1.4335
   80SLPC  C313 7462  -0.085   2.702   7.925 -0.7154 -0.3546 -0.5316
   80SLPC  H13X 7463  -0.039   2.783   7.986  0.3228 -2.2138  1.2763
   80SLPC  H13Y 7464  -0.035   2.606   7.949 -0.5564  0.2659  1.8861
   80SLPC  C314 7465  -0.233   2.677   7.963  0.1609  0.5607  0.5809
   80SLPC  H14X 7466  -0.264   2.602   7.887  1.4267  0.2042  0.3808
   80SLPC  H14Y 7467  -0.301   2.763   7.948  1.4416  1.1637 -2.6755
   80SLPC  C315 7468  -0.237   2.625   8.104 -0.0301 -0.1847 -0.4401
   80SLPC  H15X 7469  -0.255   2.722   8.156 -0.8416 -0.4136 -0.2744
   80SLPC  H15Y 7470  -0.140   2.576   8.125  1.5656  2.9711  0.1871
   80SLPC  C316 7471  -0.344   2.517   8.130  0.8339 -0.5097  0.5056
   80SLPC  H16X 7472  -0.326   2.470   8.229 -1.3537  0.6145  1.5167
   80SLPC  H16Y 7473  -0.339   2.430   8.062  0.1458 -1.4167  1.5879
   80SLPC  C317 7474  -0.495   2.569   8.119 -0.1045 -0.1698 -0.7493
   80SLPC  H17X 7475  -0.505   2.575   8.009  4.5161 -1.0865 -1.3985
   80SLPC  H17Y 7476  -0.504   2.662   8.179  2.3361 -0.9787  1.0312
   80SLPC  C318 7477  -0.597   2.468   8.190 -0.0481 -0.3951  0.3353
   80SLPC  H18X 7478  -0.561   2.445   8.292 -0.0887  2.6589  1.1386
   80SLPC  H18Y 7479  -0.601   2.377   8.126 -0.7413 -0.8463  0.9994
   80SLPC  H18Z 7480  -0.698   2.514   8.189  0.4362  0.6870 -0.0737
   81SAPS     N 7481   4.547   0.233  11.148  0.0712 -0.3174 -0.7437
   81SAPS   HN1 7482   4.576   0.328  11.115 -0.6726  1.1846  2.5232
   81SAPS   HN2 7483   4.524   0.169  11.069 -0.3554 -0.0152 -0.8684
   81SAPS   HN3 7484   4.462   0.252  11.205  0.6285  0.8480 -0.2545
   81SAPS   C12 7485   4.651   0.170  11.235 -0.0221 -0.4531 -0.7451
   81SAPS  H12A 7486   4.653   0.228  11.327  0.4400 -0.5368 -0.7015
   81SAPS   C13 7487   4.631   0.024  11.270  0.0606  0.4979  0.3037
   81SAPS  O13A 7488   4.543  -0.049  11.226 -0.1141 -0.6173 -0.2877
   81SAPS  O13B 7489   4.724  -0.025  11.348 -0.3248  0.2635  0.0838
   81SAPS   C11 7490   4.787   0.170  11.154 -0.8510  0.4611  0.1394
   81SAPS  H11A 7491   4.783   0.120  11.055  4.2662 -1.1812  0.4837
   81SAPS  H11B 7492   4.872   0.113  11.198  0.2713  0.1168 -2.2763
   81SAPS     P 7493   4.803   0.422  11.051  0.0026 -0.3968 -0.0321
   81SAPS   O13 7494   4.684   0.481  11.110 -0.6862 -0.1870  0.1325
   81SAPS   O14 7495   4.924   0.511  11.053 -0.4208  0.3772  0.1358
   81SAPS   O12 7496   4.839   0.303  11.148  0.0543  0.1980 -0.0821
   81SAPS   O11 7497   4.775   0.345  10.915  0.4655  0.0697 -0.4430
   81SAPS    C1 7498   4.792   0.418  10.789 -0.1804 -0.5575 -0.4412
   81SAPS    HA 7499   4.782   0.528  10.802  2.5073 -0.2577 -0.5394
   81SAPS    HB 7500   4.896   0.404  10.754  0.1342  2.0130 -0.7370
   81SAPS    C2 7501   4.693   0.357  10.687  0.5539 -0.1636  0.8595
   81SAPS    HS 7502   4.596   0.394  10.726 -0.4664 -0.6061 -1.1333
   81SAPS   O21 7503   4.707   0.218  10.686  0.1101  0.4940 -0.1894
   81SAPS   C21 7504   4.598   0.149  10.666  0.1243 -0.0813  0.4761
   81SAPS   O22 7505   4.486   0.194  10.638  0.1665 -0.9926  0.2233
   81SAPS   C22 7506   4.615  -0.001  10.690 -0.7948  0.0442  0.6206
   81SAPS   H2R 7507   4.699  -0.026  10.759 -0.3704 -1.8405 -0.5241
   81SAPS   H2S 7508   4.514  -0.027  10.727 -0.0502 -0.7792  2.1749
   81SAPS    C3 7509   4.718   0.418  10.542 -0.2098  0.4197  0.4714
   81SAPS    HX 7510   4.824   0.393  10.518 -0.5157 -1.3065  0.7995
   81SAPS    HY 7511   4.720   0.529  10.553 -0.9199  0.3701  1.1256
   81SAPS   O31 7512   4.638   0.362  10.436 -0.8645  0.0484  0.3426
   81SAPS   C31 7513   4.517   0.413  10.421 -0.6687 -0.2925  0.0365
   81SAPS   O32 7514   4.468   0.500  10.492 -0.2823 -0.6700 -0.1288
   81SAPS   C32 7515   4.451   0.351  10.305  0.0986 -0.7262 -0.0736
   81SAPS   H2X 7516   4.367   0.294  10.350 -0.9159  0.6685 -0.1195
   81SAPS   H2Y 7517   4.528   0.285  10.261 -0.2482 -0.2543 -1.4225
   81SAPS   C23 7518   4.633  -0.067  10.548 -0.2740  0.3803 -0.5843
   81SAPS   H3R 7519   4.563  -0.011  10.483  1.7650  1.7990 -1.6930
   81SAPS   H3S 7520   4.611  -0.176  10.546  0.0426  0.3175 -0.8393
   81SAPS   C24 7521   4.779  -0.071  10.482  0.4940  0.2302  0.2748
   81SAPS   H4R 7522   4.775  -0.141  10.396 -2.7364  0.1236  0.3660
   81SAPS   H4S 7523   4.845  -0.113  10.561  0.9329 -0.4630 -0.4513
   81SAPS   C25 7524   4.836   0.067  10.430  0.1522  0.2902 -0.0598
   81SAPS   H5R 7525   4.892   0.113  10.514  1.0109 -0.8886  0.0415
   81SAPS   C26 7526   4.814   0.117  10.306  0.4521 -0.3196 -0.0047
   81SAPS   H6R 7527   4.849   0.220  10.289 -0.9320  0.3721  1.1613
   81SAPS   C27 7528   4.746   0.032  10.200 -0.5412 -0.5074  0.2709
   81SAPS   H7R 7529   4.662  -0.019  10.252 -0.9449  0.9349  1.0808
   81SAPS   H7S 7530   4.818  -0.045  10.164  1.4383  1.2852  0.1995
   81SAPS   C28 7531   4.708   0.108  10.071 -0.4088 -0.2208 -0.3014
   81SAPS   H8R 7532   4.666   0.209  10.081 -0.3107 -0.2157  0.0605
   81SAPS   C29 7533   4.733   0.066   9.943  0.4226 -0.4064 -0.5584
   81SAPS   H9R 7534   4.677   0.126   9.871 -0.0945  0.6253  0.6622
   81SAPS  C210 7535   4.798  -0.061   9.897 -0.0263  0.1109  0.6645
   81SAPS  H10R 7536   4.860  -0.107   9.977 -1.0120 -1.8368  0.3613
   81SAPS  H10S 7537   4.861  -0.027   9.812 -1.7528 -0.1316 -0.7651
   81SAPS  C211 7538   4.700  -0.162   9.861 -0.3733  0.6742 -0.5973
   81SAPS  H11R 7539   4.622  -0.176   9.936  1.3287 -0.1732  1.1015
   81SAPS  C212 7540   4.720  -0.241   9.753 -0.0375  0.4882  0.1396
   81SAPS  H12R 7541   4.645  -0.320   9.738  1.3453 -0.8515 -0.0405
   81SAPS  C213 7542   4.843  -0.244   9.660 -0.0512 -0.4926 -0.1549
   81SAPS  H13R 7543   4.936  -0.209   9.711 -1.1555  2.4543  0.0476
   81SAPS  H13S 7544   4.823  -0.164   9.586 -1.4914  0.7987  1.5182
   81SAPS  C214 7545   4.878  -0.370   9.594  0.2645 -0.0358 -0.0522
   81SAPS  H14R 7546   4.943  -0.442   9.647 -0.6683 -1.5170 -0.8542
   81SAPS  C215 7547   4.842  -0.413   9.471 -0.3123 -0.0368 -0.1565
   81SAPS  H15R 7548   4.883  -0.509   9.437 -0.7482  0.3179 -1.7728
   81SAPS  C216 7549   4.766  -0.338   9.364 -0.3097  0.4335  0.1964
   81SAPS  H16R 7550   4.680  -0.278   9.402 -0.1090  0.2974  0.8903
   81SAPS  H16S 7551   4.734  -0.413   9.289 -0.6158 -2.2562  2.8008
   81SAPS  C217 7552   4.849  -0.231   9.288  0.3375 -1.4917  0.1108
   81SAPS  H17R 7553   4.949  -0.274   9.267  1.2116 -0.4092  1.9146
   81SAPS  H17S 7554   4.884  -0.152   9.357  1.6469 -0.9113 -1.1597
   81SAPS  C218 7555   4.792  -0.188   9.153 -0.1466  0.6313  0.0657
   81SAPS  H18R 7556   4.739  -0.276   9.111  0.0982  1.0933 -1.2679
   81SAPS  H18S 7557   4.868  -0.157   9.079  1.3881  0.7955  1.6521
   81SAPS  C219 7558   4.693  -0.072   9.160  0.0275 -0.8048  0.4668
   81SAPS  H19R 7559   4.746   0.018   9.197  1.3419 -1.0724 -0.6522
   81SAPS  H19S 7560   4.605  -0.107   9.217 -1.1590  0.7232 -0.3856
   81SAPS  C220 7561   4.632  -0.017   9.020 -0.3040  0.6035  0.4571
   81SAPS  H20R 7562   4.591  -0.095   8.953 -4.0479  1.4421  1.5372
   81SAPS  H20S 7563   4.712   0.037   8.966  0.3895 -0.9882 -0.1449
   81SAPS  H20T 7564   4.546   0.050   9.042 -0.8583  0.3910 -0.9871
   81SAPS   C33 7565   4.396   0.455  10.207 -0.1406  0.0260 -0.4812
   81SAPS   H3X 7566   4.471   0.536  10.198 -2.0569  1.8176 -1.0557
   81SAPS   H3Y 7567   4.308   0.505  10.253 -0.0318  0.0514 -0.3014
   81SAPS   C34 7568   4.350   0.405  10.076  0.2036 -0.0435  1.0192
   81SAPS   H4X 7569   4.266   0.334  10.079  0.2699 -0.3131 -1.4703
   81SAPS   H4Y 7570   4.439   0.355  10.032  1.2783  2.9645 -0.5739
   81SAPS   C35 7571   4.312   0.517   9.982 -0.1910 -0.2976  0.9065
   81SAPS   H5X 7572   4.407   0.573   9.968 -1.4397  1.5538 -0.8456
   81SAPS   H5Y 7573   4.233   0.578  10.032  1.6964  1.3320  2.0272
   81SAPS   C36 7574   4.273   0.457   9.849  0.0867 -0.1704  0.9467
   81SAPS   H6X 7575   4.199   0.375   9.860 -0.8257  0.3899 -0.7347
   81SAPS   H6Y 7576   4.368   0.416   9.808  0.3548 -0.9443  2.2902
   81SAPS   C37 7577   4.217   0.554   9.739 -0.3479  0.5368 -0.4453
   81SAPS   H7X 7578   4.285   0.640   9.722 -1.1203  1.2852  0.1493
   81SAPS   H7Y 7579   4.119   0.583   9.782 -0.0976 -0.1618  0.6412
   81SAPS   C38 7580   4.200   0.491   9.596 -0.7335  0.3810 -0.4773
   81SAPS   H8X 7581   4.119   0.415   9.603 -0.8589  0.4847 -0.7854
   81SAPS   H8Y 7582   4.295   0.435   9.583 -0.3842  0.7857  0.2868
   81SAPS   C39 7583   4.168   0.585   9.481  0.0528 -0.2483  0.6267
   81SAPS   H9X 7584   4.254   0.654   9.479 -0.8014  0.8930  1.8561
   81SAPS   H9Y 7585   4.080   0.651   9.494  0.0325 -0.1723  0.1092
   81SAPS  C310 7586   4.143   0.503   9.355 -0.4045  0.3645 -0.8185
   81SAPS  H10X 7587   4.085   0.413   9.382  0.0904 -0.0144 -0.9950
   81SAPS  H10Y 7588   4.240   0.454   9.329  0.1549  0.1603  1.4354
   81SAPS  C311 7589   4.089   0.596   9.245 -0.5281 -0.6792 -0.4447
   81SAPS  H11X 7590   4.164   0.677   9.232  0.1113 -0.8407  1.8893
   81SAPS  H11Y 7591   4.000   0.644   9.290 -0.5506  0.5676 -1.7457
   81SAPS  C312 7592   4.063   0.533   9.108 -0.6034 -0.4065 -0.0522
   81SAPS  H12X 7593   3.976   0.465   9.120 -0.8586  0.1765  1.6960
   81SAPS  H12Y 7594   4.156   0.478   9.083 -1.5020 -1.0784 -2.1464
   81SAPS  C313 7595   4.038   0.629   8.995 -0.2563 -0.2601  0.2744
   81SAPS  H13X 7596   4.117   0.708   8.994 -0.0766 -0.3470  2.6366
   81SAPS  H13Y 7597   3.947   0.689   9.013  1.2284  2.3941 -0.4705
   81SAPS  C314 7598   4.032   0.553   8.861  0.6668 -0.3133  0.2254
   81SAPS  H14X 7599   3.952   0.477   8.868 -0.9629  1.2524 -0.7864
   81SAPS  H14Y 7600   4.124   0.494   8.838  1.2297  0.1475  1.2359
   81SAPS  C315 7601   3.985   0.637   8.738 -0.7882  0.0787 -0.2327
   81SAPS  H15X 7602   3.893   0.695   8.760  0.5399  1.6609  1.6393
   81SAPS  H15Y 7603   3.954   0.587   8.644  1.4122  2.8712 -2.6347
   81SAPS  C316 7604   4.094   0.733   8.697 -0.4083  0.2962 -0.2518
   81SAPS  H16X 7605   4.180   0.665   8.676  0.3641  1.4888 -1.1140
   81SAPS  H16Y 7606   4.131   0.796   8.781  2.0273  2.0504 -2.4672
   81SAPS  C317 7607   4.072   0.821   8.576  0.5569 -0.4425 -0.3810
   81SAPS  H17X 7608   4.137   0.911   8.575 -2.3507  1.8072 -1.9149
   81SAPS  H17Y 7609   3.976   0.875   8.574  2.0856  2.4567 -1.8289
   81SAPS  C318 7610   4.083   0.750   8.437  0.6024 -0.1523  0.1189
   81SAPS  H18X 7611   4.182   0.701   8.428  0.6471  0.2958 -2.3353
   81SAPS  H18Y 7612   4.071   0.813   8.346 -0.2631 -1.9399 -1.0409
   81SAPS  H18Z 7613   4.002   0.676   8.426 -0.3701  1.2028 -2.7111
   82SAPS     N 7614   3.780   5.534  10.787 -0.4097 -0.1163  0.3122
   82SAPS   HN1 7615   3.696   5.592  10.768  1.2751  2.4683  0.1597
   82SAPS   HN2 7616   3.855   5.565  10.722 -1.3916  2.4645  0.2802
   82SAPS   HN3 7617   3.765   5.432  10.775  1.3200 -0.5529  1.4141
   82SAPS   C12 7618   3.819   5.558  10.931 -0.2328 -0.4167 -0.2120
   82SAPS  H12A 7619   3.830   5.663  10.952  2.5288 -0.1747 -2.3199
   82SAPS   C13 7620   3.716   5.499  11.038 -0.7956 -0.0119 -0.2824
   82SAPS  O13A 7621   3.593   5.478  11.011 -0.1522 -0.0345 -0.1896
   82SAPS  O13B 7622   3.746   5.502  11.162  0.0496 -1.2030  0.4193
   82SAPS   C11 7623   3.957   5.481  10.962 -1.1146  0.9184  0.5277
   82SAPS  H11A 7624   3.932   5.373  10.953 -1.2691  0.9961 -0.0402
   82SAPS  H11B 7625   3.974   5.486  11.072  0.6508 -2.2266  0.5168
   82SAPS     P 7626   4.207   5.446  10.901 -0.1421  0.1841 -0.0449
   82SAPS   O13 7627   4.296   5.499  11.008 -0.3889  0.4205  0.5522
   82SAPS   O14 7628   4.159   5.305  10.915 -0.2016 -0.6192  0.4688
   82SAPS   O12 7629   4.073   5.529  10.889  0.2431 -0.3407 -0.2961
   82SAPS   O11 7630   4.280   5.454  10.763 -0.2959  0.1424 -0.5426
   82SAPS    C1 7631   4.333   5.577  10.709 -0.4703  0.3702  0.0314
   82SAPS    HA 7632   4.375   5.644  10.788  1.2499 -1.3775  0.6782
   82SAPS    HB 7633   4.416   5.559  10.637 -0.3993 -0.7785  0.3902
   82SAPS    C2 7634   4.231   5.662  10.620 -0.1052 -0.3733 -0.0781
   82SAPS    HS 7635   4.154   5.706  10.688 -0.8241  0.5053 -1.4139
   82SAPS   O21 7636   4.176   5.585  10.521 -0.4519  0.6202 -0.0769
   82SAPS   C21 7637   4.048   5.569  10.515 -0.2381 -0.2478 -0.1210
   82SAPS   O22 7638   3.971   5.602  10.604  0.0244  0.1254  0.7542
   82SAPS   C22 7639   4.015   5.480  10.397  0.7723  0.5227  0.1891
   82SAPS   H2R 7640   4.077   5.520  10.315 -1.7716  0.0762 -2.1186
   82SAPS   H2S 7641   4.054   5.378  10.418 -0.7378  0.2662  2.0060
   82SAPS    C3 7642   4.311   5.764  10.550 -0.3490  0.4378  0.6628
   82SAPS    HX 7643   4.395   5.712  10.500  1.2629  1.9791  1.6543
   82SAPS    HY 7644   4.367   5.819  10.628  0.2167 -0.3994  0.8614
   82SAPS   O31 7645   4.233   5.854  10.467  0.2657  0.3158  0.0820
   82SAPS   C31 7646   4.299   5.926  10.379  0.0182  0.6837  0.0432
   82SAPS   O32 7647   4.419   5.949  10.379  0.1637  0.5526 -0.0854
   82SAPS   C32 7648   4.207   5.968  10.269  0.2854 -0.6517  0.1047
   82SAPS   H2X 7649   4.116   6.013  10.314  1.5422  0.9764  1.1406
   82SAPS   H2Y 7650   4.181   5.875  10.214 -0.2398 -0.0531 -0.6948
   82SAPS   C23 7651   3.863   5.484  10.369 -0.5944 -0.5946 -0.0315
   82SAPS   H3R 7652   3.823   5.588  10.359 -0.3485 -0.6666 -2.2934
   82SAPS   H3S 7653   3.821   5.427  10.455  0.5568 -1.9928 -0.3627
   82SAPS   C24 7654   3.829   5.417  10.239 -0.0005 -0.5111  0.4776
   82SAPS   H4R 7655   3.902   5.465  10.170  0.1154 -1.1753  0.1325
   82SAPS   H4S 7656   3.728   5.459  10.217  0.8172  1.0380 -0.5223
   82SAPS   C25 7657   3.831   5.272  10.229 -0.0362 -0.0431  0.8838
   82SAPS   H5R 7658   3.843   5.215  10.323  1.5217 -1.6678 -0.2269
   82SAPS   C26 7659   3.818   5.206  10.114 -0.1772 -0.2294 -0.5094
   82SAPS   H6R 7660   3.809   5.097  10.119 -1.1908 -0.0960  1.1891
   82SAPS   C27 7661   3.787   5.255   9.975 -0.5570 -0.9650  0.0992
   82SAPS   H7R 7662   3.839   5.194   9.898  0.0164 -1.3471  0.7834
   82SAPS   H7S 7663   3.836   5.353   9.964  0.9939 -1.8197 -0.8663
   82SAPS   C28 7664   3.643   5.290   9.951  0.2704  0.1654  0.8337
   82SAPS   H8R 7665   3.575   5.269  10.035  0.0252 -1.4319  0.2647
   82SAPS   C29 7666   3.601   5.329   9.824 -0.0143 -0.7726  0.2358
   82SAPS   H9R 7667   3.497   5.364   9.817 -0.2557 -1.3156  0.9381
   82SAPS  C210 7668   3.698   5.349   9.707 -0.3408 -0.6212 -0.3965
   82SAPS  H10R 7669   3.797   5.300   9.723 -0.5905 -0.9704  0.1032
   82SAPS  H10S 7670   3.731   5.456   9.712  1.7355 -1.2632  1.1594
   82SAPS  C211 7671   3.640   5.301   9.575  0.3975 -0.7541 -0.9629
   82SAPS  H11R 7672   3.583   5.207   9.581 -1.3906  0.3611  1.3710
   82SAPS  C212 7673   3.666   5.369   9.460  0.6164  0.8162  0.1606
   82SAPS  H12R 7674   3.618   5.324   9.372 -0.9441 -0.4327  1.5737
   82SAPS  C213 7675   3.761   5.486   9.437 -0.3662  0.1237 -0.4838
   82SAPS  H13R 7676   3.853   5.458   9.382  1.8550  2.5745  1.7285
   82SAPS  H13S 7677   3.797   5.533   9.531 -0.4178  0.8580 -0.8279
   82SAPS  C214 7678   3.702   5.599   9.357 -0.2004 -0.3830 -0.7629
   82SAPS  H14R 7679   3.643   5.665   9.422  0.5868  0.4116 -0.8351
   82SAPS  C215 7680   3.710   5.636   9.227 -0.5010 -0.0151 -0.0916
   82SAPS  H15R 7681   3.654   5.725   9.194 -0.3292  1.3847  3.0480
   82SAPS  C216 7682   3.788   5.573   9.119  0.5135  0.0715 -0.4921
   82SAPS  H16R 7683   3.854   5.491   9.157 -1.1166 -1.1781 -0.2628
   82SAPS  H16S 7684   3.857   5.645   9.070 -0.3120  0.5156 -1.0325
   82SAPS  C217 7685   3.685   5.520   9.022  0.1205 -0.6631 -0.0837
   82SAPS  H17R 7686   3.617   5.604   9.001 -0.5124 -1.2022 -0.2266
   82SAPS  H17S 7687   3.620   5.439   9.062  0.1347 -0.2667  0.7481
   82SAPS  C218 7688   3.761   5.459   8.906  0.0309 -0.4609  0.5752
   82SAPS  H18R 7689   3.821   5.371   8.938 -1.2683 -2.7198 -2.6113
   82SAPS  H18S 7690   3.828   5.536   8.863 -1.1257  0.0868 -0.2970
   82SAPS  C219 7691   3.661   5.400   8.804 -1.0363  0.3870 -0.3831
   82SAPS  H19R 7692   3.713   5.399   8.706 -0.2870 -0.6254 -0.0003
   82SAPS  H19S 7693   3.567   5.457   8.794 -2.7670 -2.4968 -1.6605
   82SAPS  C220 7694   3.622   5.251   8.827 -0.4156  0.6153 -0.4393
   82SAPS  H20R 7695   3.559   5.239   8.918  0.6650  0.7874  0.3486
   82SAPS  H20S 7696   3.711   5.196   8.862 -0.8211  0.2336  0.0150
   82SAPS  H20T 7697   3.566   5.217   8.737 -2.0649  0.1034  0.7292
   82SAPS   C33 7698   4.272   6.064  10.173  0.1510 -0.2978  0.6117
   82SAPS   H3X 7699   4.382   6.056  10.170  0.2938  1.4065  0.1040
   82SAPS   H3Y 7700   4.258   6.169  10.205 -1.2065 -0.0505 -0.6569
   82SAPS   C34 7701   4.224   6.047  10.029  0.4206  0.1766 -0.9449
   82SAPS   H4X 7702   4.113   6.048  10.039  0.5691 -0.1781  1.0080
   82SAPS   H4Y 7703   4.252   5.953   9.977 -0.9011 -0.3228 -0.7803
   82SAPS   C35 7704   4.259   6.153   9.926 -0.1492 -0.0038 -0.7939
   82SAPS   H5X 7705   4.369   6.166   9.936 -0.3983  0.3135  5.3647
   82SAPS   H5Y 7706   4.213   6.244   9.970 -3.1773 -2.4985  1.6948
   82SAPS   C36 7707   4.200   6.131   9.787 -0.3129 -0.1349  0.1024
   82SAPS   H6X 7708   4.090   6.134   9.801 -0.3808 -1.5073  0.0344
   82SAPS   H6Y 7709   4.227   6.027   9.758 -1.6540 -0.5026  0.1059
   82SAPS   C37 7710   4.254   6.215   9.680  0.2151 -0.2206  0.4444
   82SAPS   H7X 7711   4.222   6.317   9.709 -1.4842 -0.2994 -0.9608
   82SAPS   H7Y 7712   4.192   6.183   9.593 -1.0703  1.9784  0.4751
   82SAPS   C38 7713   4.403   6.191   9.638 -0.2373 -0.2720 -0.1476
   82SAPS   H8X 7714   4.401   6.087   9.599 -4.1654  0.3854 -2.1937
   82SAPS   H8Y 7715   4.477   6.204   9.720 -0.5693 -0.8889  0.2515
   82SAPS   C39 7716   4.440   6.288   9.525 -0.0713 -0.0164  0.6124
   82SAPS   H9X 7717   4.542   6.266   9.487 -0.7641 -0.5607 -1.0584
   82SAPS   H9Y 7718   4.449   6.386   9.576  2.5816  0.1019  0.0418
   82SAPS  C310 7719   4.357   6.288   9.395  0.2934  0.0924 -0.7226
   82SAPS  H10X 7720   4.254   6.323   9.420  0.9518  0.4886  1.7183
   82SAPS  H10Y 7721   4.349   6.185   9.356  0.4573  0.2725 -1.2312
   82SAPS  C311 7722   4.416   6.374   9.279  0.0634  0.0363 -0.0400
   82SAPS  H11X 7723   4.504   6.315   9.246 -1.1462 -2.3391  0.8209
   82SAPS  H11Y 7724   4.443   6.478   9.309  1.9547  0.0395 -1.5245
   82SAPS  C312 7725   4.326   6.391   9.159  0.3406 -0.7692  0.4143
   82SAPS  H12X 7726   4.228   6.421   9.202  0.6768 -2.2236  2.3484
   82SAPS  H12Y 7727   4.305   6.294   9.110 -1.0650 -0.3901  0.2064
   82SAPS  C313 7728   4.357   6.494   9.051 -0.3816 -0.3620  0.2028
   82SAPS  H13X 7729   4.459   6.474   9.013 -0.4546 -2.9011  1.1921
   82SAPS  H13Y 7730   4.365   6.592   9.103  1.8739 -1.0326  1.2230
   82SAPS  C314 7731   4.269   6.494   8.922  0.0811 -0.4792 -0.2601
   82SAPS  H14X 7732   4.266   6.589   8.865 -0.4789 -1.2708 -1.5833
   82SAPS  H14Y 7733   4.167   6.476   8.961 -0.6429  2.2539 -0.6778
   82SAPS  C315 7734   4.306   6.381   8.822  0.4226  0.3258  0.7412
   82SAPS  H15X 7735   4.297   6.289   8.883 -1.4155 -1.5842 -2.1633
   82SAPS  H15Y 7736   4.410   6.383   8.782  0.2808 -2.3232  0.0582
   82SAPS  C316 7737   4.214   6.403   8.704 -0.7278  0.0541  0.2161
   82SAPS  H16X 7738   4.211   6.508   8.669  0.8333 -0.3413 -1.2137
   82SAPS  H16Y 7739   4.115   6.374   8.747  0.9716 -1.4621  3.4485
   82SAPS  C317 7740   4.238   6.304   8.585 -0.4286  0.7719  1.3064
   82SAPS  H17X 7741   4.152   6.305   8.515  0.6796 -0.9156 -0.1361
   82SAPS  H17Y 7742   4.229   6.202   8.627 -1.3893 -0.3671 -1.4558
   82SAPS  C318 7743   4.371   6.325   8.506  0.1988 -0.1542  0.1550
   82SAPS  H18X 7744   4.361   6.425   8.460 -2.4587  0.6070  2.1333
   82SAPS  H18Y 7745   4.392   6.249   8.428  0.8650  0.8226 -0.6451
   82SAPS  H18Z 7746   4.458   6.341   8.573  1.7804  2.1960 -2.2716
   83SAPS     N 7747   5.091   1.379  10.881 -0.3575  0.3624  0.1135
   83SAPS   HN1 7748   5.131   1.473  10.902 -1.2551  0.6144  0.7750
   83SAPS   HN2 7749   5.160   1.304  10.861 -1.9671 -1.1026 -0.2038
   83SAPS   HN3 7750   5.019   1.385  10.807 -0.7802  0.1221  0.5014
   83SAPS   C12 7751   5.021   1.343  11.009  0.3640 -0.0904 -0.7810
   83SAPS  H12A 7752   5.093   1.334  11.089 -0.3066  0.1654 -0.1384
   83SAPS   C13 7753   4.908   1.434  11.055 -0.6764 -0.7265 -0.1970
   83SAPS  O13A 7754   4.885   1.546  11.004  0.6338 -0.4516  0.0198
   83SAPS  O13B 7755   4.865   1.410  11.169  0.1717 -0.4714  0.2649
   83SAPS   C11 7756   4.949   1.208  10.977  0.7012 -0.3136  0.4795
   83SAPS  H11A 7757   4.856   1.227  10.920  0.4543 -1.0644  0.6197
   83SAPS  H11B 7758   4.908   1.171  11.073 -1.3861  2.3113  0.7176
   83SAPS     P 7759   5.011   0.952  10.901 -0.1060  0.1622 -0.1078
   83SAPS   O13 7760   5.130   0.879  10.854  0.4545 -0.2492 -0.5399
   83SAPS   O14 7761   4.962   0.911  11.032  0.7458 -0.0610 -0.1965
   83SAPS   O12 7762   5.032   1.112  10.906  0.2679  0.2873 -0.0463
   83SAPS   O11 7763   4.889   0.948  10.798 -0.4475 -0.2234  0.0661
   83SAPS    C1 7764   4.841   0.823  10.734  0.0756  0.2611 -0.2479
   83SAPS    HA 7765   4.872   0.728  10.783  1.1331  0.4447 -0.5402
   83SAPS    HB 7766   4.732   0.812  10.756 -0.2782  3.4921  0.0639
   83SAPS    C2 7767   4.878   0.811  10.581 -0.6988 -0.2887  0.7128
   83SAPS    HS 7768   4.844   0.713  10.541  1.0512  0.0997 -1.9835
   83SAPS   O21 7769   5.019   0.832  10.568 -0.1591  0.9421 -0.0619
   83SAPS   C21 7770   5.095   0.720  10.555  0.1717 -0.4337 -0.2220
   83SAPS   O22 7771   5.050   0.608  10.572  0.1264 -0.0178 -0.5208
   83SAPS   C22 7772   5.230   0.766  10.505 -0.1884  1.1532  0.3937
   83SAPS   H2R 7773   5.223   0.848  10.430  0.3614 -0.6758 -1.7651
   83SAPS   H2S 7774   5.285   0.804  10.594  0.4888  0.0967  0.4339
   83SAPS    C3 7775   4.809   0.914  10.491  0.8213  0.0488  0.1227
   83SAPS    HX 7776   4.793   1.019  10.525  0.7115  0.2195 -0.4558
   83SAPS    HY 7777   4.701   0.888  10.482  1.0521 -0.7258 -0.5544
   83SAPS   O31 7778   4.855   0.909  10.355 -0.1118 -0.2799 -0.1104
   83SAPS   C31 7779   4.823   0.798  10.294 -0.1964 -0.0052 -0.2463
   83SAPS   O32 7780   4.723   0.727  10.321 -0.4832  0.0322 -0.4486
   83SAPS   C32 7781   4.931   0.774  10.189  0.0140  0.5890 -0.1623
   83SAPS   H2X 7782   5.031   0.778  10.236 -0.7575 -0.7092  1.6622
   83SAPS   H2Y 7783   4.934   0.855  10.112  1.2760  2.3859  1.6959
   83SAPS   C23 7784   5.313   0.646  10.454 -0.8313 -1.1473  0.2061
   83SAPS   H3R 7785   5.278   0.615  10.353  1.6933  0.1458 -1.1623
   83SAPS   H3S 7786   5.304   0.560  10.524 -0.9130 -0.9470  0.4414
   83SAPS   C24 7787   5.456   0.698  10.429 -0.1846 -0.0449  0.5191
   83SAPS   H4R 7788   5.503   0.611  10.378 -1.5816  0.9211 -2.6942
   83SAPS   H4S 7789   5.516   0.716  10.521 -1.7189  0.1653  1.5208
   83SAPS   C25 7790   5.454   0.817  10.331 -0.2356  0.4863 -0.4944
   83SAPS   H5R 7791   5.472   0.912  10.384  0.8478  0.0784 -0.0960
   83SAPS   C26 7792   5.448   0.831  10.197 -0.4962  0.3938  0.5602
   83SAPS   H6R 7793   5.448   0.931  10.153  0.5386  0.0333 -0.2855
   83SAPS   C27 7794   5.438   0.710  10.100  0.9205  0.2693  1.4670
   83SAPS   H7R 7795   5.330   0.689  10.087  0.7130  0.0360  3.3046
   83SAPS   H7S 7796   5.501   0.622  10.128  0.6338 -0.3278  0.2727
   83SAPS   C28 7797   5.502   0.755   9.972 -0.2059 -0.3701 -0.0285
   83SAPS   H8R 7798   5.606   0.723   9.955 -0.6531 -0.8699 -2.0566
   83SAPS   C29 7799   5.455   0.828   9.872 -0.1425 -0.5975  0.1947
   83SAPS   H9R 7800   5.510   0.839   9.777 -0.4313  1.3640  0.2119
   83SAPS  C210 7801   5.317   0.884   9.857  0.5070 -0.0318  0.3179
   83SAPS  H10R 7802   5.314   0.979   9.799  0.0462  0.4849  1.1731
   83SAPS  H10S 7803   5.280   0.917   9.956 -0.3239 -1.4860  0.5038
   83SAPS  C211 7804   5.213   0.789   9.811  0.3477  0.3588  0.5159
   83SAPS  H11R 7805   5.126   0.782   9.878 -1.1069  1.9559 -1.0946
   83SAPS  C212 7806   5.206   0.730   9.683  0.7410  0.0372 -0.3864
   83SAPS  H12R 7807   5.120   0.667   9.654  0.1661  1.5808 -2.2110
   83SAPS  C213 7808   5.309   0.744   9.574  0.3173 -0.3333  0.2581
   83SAPS  H13R 7809   5.390   0.668   9.586  0.3902 -0.6710 -1.9467
   83SAPS  H13S 7810   5.363   0.838   9.596  0.0983  0.2291 -1.5159
   83SAPS  C214 7811   5.251   0.739   9.438 -0.4871 -0.1651  0.7241
   83SAPS  H14R 7812   5.167   0.671   9.420 -1.3890  1.4818 -1.9601
   83SAPS  C215 7813   5.291   0.819   9.329  0.2370  0.3316 -0.6466
   83SAPS  H15R 7814   5.243   0.799   9.232  0.6880 -0.7487 -0.6598
   83SAPS  C216 7815   5.400   0.926   9.330  0.1341 -0.2572  0.1561
   83SAPS  H16R 7816   5.448   0.936   9.430 -1.1296  1.7588  0.6373
   83SAPS  H16S 7817   5.359   1.027   9.310  1.2134  0.4209  1.2189
   83SAPS  C217 7818   5.511   0.894   9.223 -0.4182 -0.3323  0.5817
   83SAPS  H17R 7819   5.569   0.986   9.198 -1.4693  0.6921  1.7672
   83SAPS  H17S 7820   5.455   0.868   9.131 -1.1554  2.7107  0.0709
   83SAPS  C218 7821   5.602   0.774   9.249 -0.0654 -1.4495  0.3272
   83SAPS  H18R 7822   5.648   0.756   9.149  0.2749  0.4331  0.1055
   83SAPS  H18S 7823   5.540   0.689   9.283  0.6540 -1.5405  1.4740
   83SAPS  C219 7824   5.720   0.792   9.347  0.5248  0.2536  0.5933
   83SAPS  H19R 7825   5.722   0.901   9.373 -2.8210  0.3285  0.9824
   83SAPS  H19S 7826   5.822   0.778   9.304  0.6145  2.8729 -0.2580
   83SAPS  C220 7827   5.702   0.710   9.476 -0.1806  0.8545  0.0034
   83SAPS  H20R 7828   5.702   0.599   9.465 -2.1529  0.5779  1.9681
   83SAPS  H20S 7829   5.603   0.737   9.520  0.2519 -0.0990  1.6809
   83SAPS  H20T 7830   5.779   0.747   9.547 -1.0379  1.7669  0.4882
   83SAPS   C33 7831   4.928   0.632  10.126  0.4695 -0.0937  0.1131
   83SAPS   H3X 7832   4.928   0.550  10.201 -1.9942  1.4364  1.9709
   83SAPS   H3Y 7833   5.020   0.618  10.065 -0.1314  1.4220 -1.2298
   83SAPS   C34 7834   4.810   0.606  10.036  0.1925 -0.1915 -0.5792
   83SAPS   H4X 7835   4.715   0.625  10.090  0.6104  2.2132 -0.5674
   83SAPS   H4Y 7836   4.813   0.500  10.001  0.1218  0.4315 -2.6360
   83SAPS   C35 7837   4.815   0.694   9.909 -0.4306 -0.3203  0.0768
   83SAPS   H5X 7838   4.911   0.672   9.858 -0.3764  0.1253 -0.0155
   83SAPS   H5Y 7839   4.797   0.801   9.933 -0.2734  0.1760 -1.9155
   83SAPS   C36 7840   4.703   0.648   9.819  0.9557  0.0566  0.3163
   83SAPS   H6X 7841   4.624   0.726   9.827  1.7043  0.7064  1.8833
   83SAPS   H6Y 7842   4.655   0.563   9.872  0.6153  0.2223  0.2790
   83SAPS   C37 7843   4.749   0.625   9.673 -0.5277  0.8094  0.3107
   83SAPS   H7X 7844   4.817   0.537   9.680 -4.6802 -2.8316 -0.0854
   83SAPS   H7Y 7845   4.796   0.717   9.633 -1.1845  1.4279  0.9172
   83SAPS   C38 7846   4.625   0.588   9.597  0.8900 -0.4043  0.0875
   83SAPS   H8X 7847   4.555   0.673   9.616 -1.2145 -2.0836  0.1969
   83SAPS   H8Y 7848   4.580   0.496   9.638  1.1005  0.1885  1.7410
   83SAPS   C39 7849   4.655   0.540   9.458  0.0248  0.0199 -0.3104
   83SAPS   H9X 7850   4.717   0.448   9.469  0.8936  0.5192 -0.8937
   83SAPS   H9Y 7851   4.712   0.631   9.428 -2.1397  2.5642  2.5567
   83SAPS  C310 7852   4.538   0.528   9.361  0.5439 -0.0154  0.6864
   83SAPS  H10X 7853   4.499   0.631   9.345  0.1710  0.2171  2.7486
   83SAPS  H10Y 7854   4.459   0.467   9.408  3.3482 -2.1497  2.9934
   83SAPS  C311 7855   4.568   0.466   9.221 -0.1412 -0.8191  0.7048
   83SAPS  H11X 7856   4.614   0.369   9.250 -2.3944 -1.5004  2.2760
   83SAPS  H11Y 7857   4.646   0.535   9.182 -0.7960 -1.0238 -1.0895
   83SAPS  C312 7858   4.458   0.454   9.125 -0.3516 -0.3267  0.3618
   83SAPS  H12X 7859   4.388   0.540   9.132 -1.9072 -1.5416  0.3081
   83SAPS  H12Y 7860   4.402   0.359   9.142  0.9315 -1.7445 -2.6208
   83SAPS  C313 7861   4.511   0.455   8.978  0.1872 -0.2024 -0.2871
   83SAPS  H13X 7862   4.585   0.372   8.971 -1.8467 -2.0334 -1.3237
   83SAPS  H13Y 7863   4.556   0.554   8.953  3.2302 -1.4473 -0.1703
   83SAPS  C314 7864   4.403   0.418   8.877 -0.1229 -0.1361 -0.2998
   83SAPS  H14X 7865   4.313   0.482   8.888  1.2181  1.6081  1.3061
   83SAPS  H14Y 7866   4.373   0.315   8.905 -0.5397  0.1913  0.4919
   83SAPS  C315 7867   4.453   0.413   8.733 -0.0911 -0.8046 -0.3776
   83SAPS  H15X 7868   4.556   0.374   8.718 -0.5102 -1.4877 -1.6672
   83SAPS  H15Y 7869   4.456   0.519   8.699  1.5563 -0.5484  0.4892
   83SAPS  C316 7870   4.360   0.343   8.632 -0.5587  0.8746 -0.5709
   83SAPS  H16X 7871   4.393   0.360   8.528  0.8329 -0.6552 -0.4134
   83SAPS  H16Y 7872   4.256   0.381   8.637 -0.7417  0.2932  0.3219
   83SAPS  C317 7873   4.349   0.195   8.665 -0.2776  0.0937  0.8443
   83SAPS  H17X 7874   4.304   0.153   8.572  1.0411  1.4972 -0.5037
   83SAPS  H17Y 7875   4.286   0.159   8.749  0.8773 -2.0549  0.8550
   83SAPS  C318 7876   4.490   0.122   8.670  0.4332  0.5911 -0.2809
   83SAPS  H18X 7877   4.542   0.145   8.766 -0.5077 -2.0983  0.9744
   83SAPS  H18Y 7878   4.549   0.147   8.580 -1.6167  0.9076 -1.5968
   83SAPS  H18Z 7879   4.461   0.015   8.668 -2.0732  1.2281 -1.4526
   84SAPS     N 7880   6.405   6.343  11.329 -0.0848  0.0747  0.5129
   84SAPS   HN1 7881   6.389   6.241  11.322 -0.1903 -0.1592  3.0868
   84SAPS   HN2 7882   6.409   6.362  11.431  0.1956  0.8226  0.3709
   84SAPS   HN3 7883   6.322   6.377  11.276  0.7905  0.0823 -0.8808
   84SAPS   C12 7884   6.528   6.387  11.254  0.1141 -0.3067  0.3459
   84SAPS  H12A 7885   6.544   6.494  11.255 -1.7370  0.0015  0.2993
   84SAPS   C13 7886   6.664   6.320  11.301  0.3311 -0.1062  0.3922
   84SAPS  O13A 7887   6.653   6.224  11.379 -0.7713 -0.1089  0.2221
   84SAPS  O13B 7888   6.774   6.353  11.246  0.1634  0.1495  0.0613
   84SAPS   C11 7889   6.503   6.358  11.096  0.1236 -0.5804 -0.2601
   84SAPS  H11A 7890   6.487   6.248  11.094 -2.4027 -0.2767 -1.6205
   84SAPS  H11B 7891   6.589   6.399  11.040 -0.1079  2.3317  1.3362
   84SAPS     P 7892   6.374   6.577  11.000  0.0042  0.0390  0.2572
   84SAPS   O13 7893   6.232   6.604  10.962 -0.8315 -0.6937 -0.2369
   84SAPS   O14 7894   6.441   6.663  11.102 -0.2359  0.0725 -0.0119
   84SAPS   O12 7895   6.380   6.424  11.053  0.0306  0.0901  0.3465
   84SAPS   O11 7896   6.465   6.569  10.870 -0.9436  0.0387  0.1308
   84SAPS    C1 7897   6.437   6.493  10.752  0.3782 -0.6364 -0.4485
   84SAPS    HA 7898   6.515   6.414  10.745  0.3473 -0.7469  0.4119
   84SAPS    HB 7899   6.335   6.448  10.753  1.3051 -2.9626 -1.8978
   84SAPS    C2 7900   6.425   6.594  10.636  0.3432 -0.1217  0.0499
   84SAPS    HS 7901   6.527   6.637  10.645  0.4061 -0.4332  0.8817
   84SAPS   O21 7902   6.317   6.691  10.660  0.2952 -0.3294  0.2354
   84SAPS   C21 7903   6.322   6.792  10.573 -0.7439 -0.7019  0.0606
   84SAPS   O22 7904   6.429   6.824  10.516 -0.1128  0.1915 -0.5225
   84SAPS   C22 7905   6.191   6.863  10.557 -0.3365  0.4132  0.0161
   84SAPS   H2R 7906   6.119   6.830  10.634 -1.4382  1.8133 -0.3551
   84SAPS   H2S 7907   6.210   6.973  10.560 -2.5930  0.8228  1.8015
   84SAPS    C3 7908   6.412   6.513  10.501  0.3858  0.5771  0.8635
   84SAPS    HX 7909   6.314   6.463  10.490  0.0721  1.0892  1.2443
   84SAPS    HY 7910   6.484   6.429  10.510  1.4108  1.4474  1.0844
   84SAPS   O31 7911   6.436   6.594  10.385 -0.0644 -0.1375 -0.0025
   84SAPS   C31 7912   6.562   6.585  10.339  0.6169  1.1266  1.0877
   84SAPS   O32 7913   6.662   6.533  10.388  0.1633  0.0713  0.0267
   84SAPS   C32 7914   6.570   6.649  10.203  0.0308 -0.0571 -0.0699
   84SAPS   H2X 7915   6.659   6.715  10.213  0.5704 -0.8086  0.1837
   84SAPS   H2Y 7916   6.473   6.699  10.184 -0.5713 -1.0183  0.3967
   84SAPS   C23 7917   6.124   6.820  10.428  0.3681  0.4987  0.0735
   84SAPS   H3R 7918   6.018   6.854  10.420 -0.2562 -1.0447  1.1735
   84SAPS   H3S 7919   6.099   6.711  10.432  0.5444  0.4270 -0.6490
   84SAPS   C24 7920   6.193   6.862  10.298 -0.6622 -0.4202  0.0212
   84SAPS   H4R 7921   6.148   6.823  10.204 -1.2162 -0.8368  0.4552
   84SAPS   H4S 7922   6.285   6.800  10.306 -0.1533 -0.2174 -3.0525
   84SAPS   C25 7923   6.223   7.008  10.287 -0.2738  0.0533  0.3175
   84SAPS   H5R 7924   6.230   7.063  10.382 -1.0600  0.6725  0.0220
   84SAPS   C26 7925   6.260   7.076  10.177 -0.4129  0.1128 -0.7119
   84SAPS   H6R 7926   6.295   7.179  10.188 -0.2535 -0.1291  1.3059
   84SAPS   C27 7927   6.271   7.028  10.032  0.5663 -0.2546 -0.1920
   84SAPS   H7R 7928   6.359   6.960  10.031  1.5228  0.9491 -0.5669
   84SAPS   H7S 7929   6.307   7.118   9.978  0.7285 -2.1989 -3.5733
   84SAPS   C28 7930   6.147   6.971   9.970  0.2854  0.0760 -0.2557
   84SAPS   H8R 7931   6.050   6.996  10.017  0.6487 -0.1532  0.6236
   84SAPS   C29 7932   6.141   6.914   9.848  0.5470 -0.4131  0.1783
   84SAPS   H9R 7933   6.051   6.859   9.817  0.5733 -1.4071  1.7213
   84SAPS  C210 7934   6.261   6.884   9.764 -0.1735 -0.4563 -0.7579
   84SAPS  H10R 7935   6.242   6.800   9.695  0.9613  0.5500 -2.3662
   84SAPS  H10S 7936   6.348   6.852   9.826 -0.6667  0.4846  0.4510
   84SAPS  C211 7937   6.302   7.012   9.691 -0.0192  0.9584 -0.4183
   84SAPS  H11R 7938   6.320   7.096   9.758  0.6340 -0.7948  1.7298
   84SAPS  C212 7939   6.333   7.015   9.561 -0.8758 -0.1740  0.7987
   84SAPS  H12R 7940   6.350   7.112   9.513 -1.1247 -0.6388 -0.2702
   84SAPS  C213 7941   6.333   6.903   9.457  0.4616 -0.0717 -0.3744
   84SAPS  H13R 7942   6.359   6.808   9.508  2.5680  1.8832  2.4880
   84SAPS  H13S 7943   6.411   6.909   9.378  0.8194 -0.3947 -0.0431
   84SAPS  C214 7944   6.197   6.879   9.388 -0.0279  0.1768 -0.0922
   84SAPS  H14R 7945   6.110   6.915   9.445 -0.3031 -0.0195 -0.3856
   84SAPS  C215 7946   6.172   6.815   9.274 -0.1292 -0.0497  0.6523
   84SAPS  H15R 7947   6.072   6.792   9.236  0.7248 -0.7524 -1.2955
   84SAPS  C216 7948   6.278   6.764   9.172 -0.6532  0.2532 -0.3046
   84SAPS  H16R 7949   6.271   6.654   9.158  1.2862  0.2810 -1.9774
   84SAPS  H16S 7950   6.385   6.784   9.197 -0.0519 -1.0989 -1.5764
   84SAPS  C217 7951   6.259   6.833   9.034  0.2926 -0.2517 -0.2218
   84SAPS  H17R 7952   6.270   6.943   9.044  0.8947 -0.2262 -1.0687
   84SAPS  H17S 7953   6.159   6.811   8.991  0.3457  0.2667 -0.6169
   84SAPS  C218 7954   6.362   6.785   8.936 -0.4482  0.6014  0.1137
   84SAPS  H18R 7955   6.353   6.675   8.938  0.2947  0.5342  0.0295
   84SAPS  H18S 7956   6.469   6.799   8.962  0.6255 -0.5554 -3.1377
   84SAPS  C219 7957   6.359   6.840   8.795  0.0838  0.3306  0.9007
   84SAPS  H19R 7958   6.347   6.949   8.810  2.4346  0.5669  1.5112
   84SAPS  H19S 7959   6.273   6.793   8.743 -0.9901  0.2296  2.6948
   84SAPS  C220 7960   6.488   6.815   8.718 -0.2754  0.6383 -0.4566
   84SAPS  H20R 7961   6.581   6.855   8.764  1.2783 -0.9036 -2.1322
   84SAPS  H20S 7962   6.481   6.864   8.618 -1.6693 -0.3229 -0.8707
   84SAPS  H20T 7963   6.501   6.709   8.689 -0.1207  1.1590 -2.4159
   84SAPS   C33 7964   6.607   6.533  10.107 -0.0718 -0.1767  0.1806
   84SAPS   H3X 7965   6.533   6.451  10.114  1.6868 -1.8450  0.2027
   84SAPS   H3Y 7966   6.709   6.489  10.112 -0.1962 -0.7199 -1.4261
   84SAPS   C34 7967   6.589   6.560   9.954  0.0992  0.4814 -0.5316
   84SAPS   H4X 7968   6.487   6.597   9.927 -0.1180  1.1857  1.1691
   84SAPS   H4Y 7969   6.603   6.468   9.893 -1.5595  0.7354 -1.3726
   84SAPS   C35 7970   6.707   6.658   9.902 -0.3650 -0.2519  0.5432
   84SAPS   H5X 7971   6.800   6.617   9.948 -0.1434 -0.8653 -0.4267
   84SAPS   H5Y 7972   6.688   6.760   9.942  1.0456  1.2735 -2.3851
   84SAPS   C36 7973   6.705   6.678   9.749 -0.4033 -0.0918  0.3550
   84SAPS   H6X 7974   6.797   6.739   9.744 -0.7358  0.4134  0.3452
   84SAPS   H6Y 7975   6.612   6.734   9.725 -1.2628 -0.6374  2.1707
   84SAPS   C37 7976   6.723   6.550   9.671 -0.6947 -0.3735  0.3143
   84SAPS   H7X 7977   6.734   6.565   9.561 -3.0437 -3.9157 -0.5785
   84SAPS   H7Y 7978   6.638   6.479   9.676 -0.4052 -0.6920  0.7869
   84SAPS   C38 7979   6.856   6.487   9.702 -1.3288  0.1047  0.9358
   84SAPS   H8X 7980   6.856   6.436   9.800  1.1427 -2.9627 -0.4947
   84SAPS   H8Y 7981   6.935   6.565   9.703  0.2405 -1.4329  0.5256
   84SAPS   C39 7982   6.910   6.370   9.614  0.7592 -0.7803 -0.8797
   84SAPS   H9X 7983   6.826   6.314   9.567  0.7787 -1.4550 -0.1536
   84SAPS   H9Y 7984   6.973   6.290   9.661 -2.0947 -2.3100  0.6213
   84SAPS  C310 7985   6.989   6.429   9.491 -0.2456 -0.3781  0.2777
   84SAPS  H10X 7986   7.073   6.495   9.520 -0.6907  0.1712  0.3402
   84SAPS  H10Y 7987   6.926   6.494   9.427  1.4179  0.0326 -0.9830
   84SAPS  C311 7988   7.040   6.321   9.398  0.3701 -0.2672 -0.2140
   84SAPS  H11X 7989   6.967   6.239   9.381  0.2065 -0.1784  0.0463
   84SAPS  H11Y 7990   7.134   6.291   9.448  0.7495  0.5673 -0.4179
   84SAPS  C312 7991   7.091   6.383   9.258 -0.0628 -0.1359 -0.2473
   84SAPS  H12X 7992   7.161   6.463   9.290  0.9138 -1.5293  1.2507
   84SAPS  H12Y 7993   7.012   6.429   9.196  0.7905 -0.2512 -1.4568
   84SAPS  C313 7994   7.170   6.291   9.164  0.6175  0.2569 -0.7417
   84SAPS  H13X 7995   7.262   6.259   9.217 -0.2354  0.5358  0.9536
   84SAPS  H13Y 7996   7.201   6.344   9.071  0.7004 -1.2417 -1.6132
   84SAPS  C314 7997   7.084   6.169   9.133  0.1220  0.0710  0.5046
   84SAPS  H14X 7998   6.992   6.205   9.082  0.0461 -0.7927  0.0034
   84SAPS  H14Y 7999   7.040   6.112   9.218 -1.8201  0.7468  0.0121
   84SAPS  C315 8000   7.157   6.072   9.034  0.7828  0.2244  0.0048
   84SAPS  H15X 8001   7.193   5.982   9.089 -2.3524 -1.3526 -0.3023
   84SAPS  H15Y 8002   7.254   6.121   9.010  0.0549  2.0227  0.5642
   84SAPS  C316 8003   7.077   6.027   8.909 -0.1208  0.4110  0.7226
   84SAPS  H16X 8004   7.049   6.123   8.861  1.9634  0.6381 -0.1835
   84SAPS  H16Y 8005   6.988   5.979   8.953  0.7413 -2.0019 -0.0271
   84SAPS  C317 8006   7.146   5.925   8.810 -0.3405 -0.6242  0.6149
   84SAPS  H17X 8007   7.079   5.916   8.722  1.4712  0.4644 -0.9580
   84SAPS  H17Y 8008   7.160   5.831   8.868 -3.1312  0.4192  3.2445
   84SAPS  C318 8009   7.273   5.982   8.743 -0.3292 -0.1719 -0.3970
   84SAPS  H18X 8010   7.361   5.979   8.811 -2.3629 -2.1639  2.4034
   84SAPS  H18Y 8011   7.247   6.082   8.701 -1.0950 -1.3113 -2.8110
   84SAPS  H18Z 8012   7.297   5.903   8.669  1.5574 -2.3060  2.2720
   85SAPS     N 8013   4.595   1.531  11.049 -0.0231  0.4848  0.3943
   85SAPS   HN1 8014   4.542   1.465  10.989 -1.9085  0.1514  2.3004
   85SAPS   HN2 8015   4.577   1.626  11.011  1.9446  0.4531 -0.7289
   85SAPS   HN3 8016   4.697   1.514  11.048 -0.4049 -2.3971 -1.0091
   85SAPS   C12 8017   4.545   1.518  11.194  0.3947 -0.5599 -0.4323
   85SAPS  H12A 8018   4.588   1.430  11.238 -0.1646 -0.9131 -0.5809
   85SAPS   C13 8019   4.598   1.636  11.285  0.2211  0.7173  0.5577
   85SAPS  O13A 8020   4.648   1.735  11.229 -0.5668  0.6308  0.4113
   85SAPS  O13B 8021   4.573   1.635  11.410  0.9607 -0.4325  0.7987
   85SAPS   C11 8022   4.386   1.534  11.205 -0.5319 -0.2331  0.6539
   85SAPS  H11A 8023   4.350   1.636  11.181 -0.7833 -0.7187 -1.1737
   85SAPS  H11B 8024   4.362   1.521  11.313 -2.2038 -2.8127  0.0712
   85SAPS     P 8025   4.164   1.414  11.144 -0.1714 -0.3059 -0.1794
   85SAPS   O13 8026   4.142   1.293  11.222 -0.2304  0.4662 -0.8827
   85SAPS   O14 8027   4.111   1.550  11.185  0.1623 -0.3741 -0.0541
   85SAPS   O12 8028   4.322   1.430  11.125 -0.2282 -1.0412 -0.3118
   85SAPS   O11 8029   4.115   1.384  11.002 -0.2040 -0.5627 -0.0486
   85SAPS    C1 8030   4.186   1.294  10.907 -0.2924  0.5302 -0.4267
   85SAPS    HA 8031   4.258   1.234  10.968 -1.8153  0.2462  1.1607
   85SAPS    HB 8032   4.111   1.225  10.863 -2.7593  2.4304  0.5570
   85SAPS    C2 8033   4.255   1.373  10.796  0.5363  0.6208 -0.5197
   85SAPS    HS 8034   4.308   1.455  10.849 -1.5817  0.9776  1.1882
   85SAPS   O21 8035   4.154   1.435  10.712 -0.0417  0.0661  0.4244
   85SAPS   C21 8036   4.190   1.550  10.655 -0.1235 -0.5539  0.3199
   85SAPS   O22 8037   4.289   1.612  10.693  0.1649  0.0940 -0.2184
   85SAPS   C22 8038   4.084   1.597  10.553 -1.2797  0.4249  0.1191
   85SAPS   H2R 8039   4.023   1.508  10.527  0.0040 -0.1164 -1.2386
   85SAPS   H2S 8040   4.028   1.680  10.601 -0.7458 -0.2165  1.9233
   85SAPS    C3 8041   4.350   1.278  10.716 -0.0532 -0.1252 -0.1608
   85SAPS    HX 8042   4.280   1.225  10.648 -0.5956  0.7365 -0.2875
   85SAPS    HY 8043   4.407   1.212  10.784  0.9887  2.4425  1.6156
   85SAPS   O31 8044   4.436   1.352  10.632 -0.3354  0.0522  0.3313
   85SAPS   C31 8045   4.551   1.409  10.683 -0.1612 -0.0120 -0.5267
   85SAPS   O32 8046   4.593   1.407  10.798  1.0097 -0.3605 -0.5453
   85SAPS   C32 8047   4.624   1.482  10.564 -0.8097 -0.0579  0.4812
   85SAPS   H2X 8048   4.734   1.477  10.579 -0.4630 -0.8271 -1.9132
   85SAPS   H2Y 8049   4.590   1.587  10.556  0.4263  0.2130 -2.9338
   85SAPS   C23 8050   4.160   1.664  10.439 -0.5628 -0.0608  0.8540
   85SAPS   H3R 8051   4.217   1.751  10.479  0.0112  0.6232 -1.3148
   85SAPS   H3S 8052   4.094   1.714  10.365  0.3030 -0.0543  0.0714
   85SAPS   C24 8053   4.260   1.577  10.359  0.0670 -0.5149  0.0614
   85SAPS   H4R 8054   4.208   1.490  10.314 -1.1142  1.3165 -2.3584
   85SAPS   H4S 8055   4.332   1.543  10.436  1.9486  0.5193 -1.1672
   85SAPS   C25 8056   4.330   1.660  10.254  0.5129 -0.1619  0.1916
   85SAPS   H5R 8057   4.366   1.752  10.303 -1.7482  0.2622  1.1470
   85SAPS   C26 8058   4.350   1.644  10.123 -0.2468 -0.3501  0.6339
   85SAPS   H6R 8059   4.415   1.723  10.082  1.3888 -1.6169  0.6902
   85SAPS   C27 8060   4.304   1.534  10.036 -0.4679 -0.0007 -0.5322
   85SAPS   H7R 8061   4.229   1.473  10.090 -0.8159 -0.6825 -1.7504
   85SAPS   H7S 8062   4.398   1.476  10.020  0.9273  2.3496 -1.4744
   85SAPS   C28 8063   4.233   1.586   9.921  0.3233 -0.6010  0.0711
   85SAPS   H8R 8064   4.138   1.638   9.942 -0.3809 -2.0143  0.5345
   85SAPS   C29 8065   4.269   1.582   9.791 -0.3320  0.1087  0.0822
   85SAPS   H9R 8066   4.197   1.605   9.712  1.2768  0.3039 -1.3663
   85SAPS  C210 8067   4.396   1.521   9.744 -0.0847 -0.2725  0.9649
   85SAPS  H10R 8068   4.477   1.484   9.810  0.8248 -2.5882 -1.2931
   85SAPS  H10S 8069   4.449   1.591   9.675  0.1936 -3.2469 -2.0777
   85SAPS  C211 8070   4.382   1.394   9.667  0.4115 -0.4344 -0.1777
   85SAPS  H11R 8071   4.423   1.311   9.726 -0.7431 -0.0663  1.1854
   85SAPS  C212 8072   4.344   1.374   9.543 -0.3180  0.3373  0.3336
   85SAPS  H12R 8073   4.317   1.270   9.517 -1.0738  0.3546  1.0032
   85SAPS  C213 8074   4.307   1.481   9.447 -0.0732 -0.3440  0.2488
   85SAPS  H13R 8075   4.287   1.582   9.489  2.9132  0.9648 -1.1570
   85SAPS  H13S 8076   4.214   1.453   9.393  1.1373 -1.9022 -1.1591
   85SAPS  C214 8077   4.420   1.498   9.345 -0.4293 -0.2283  0.2576
   85SAPS  H14R 8078   4.520   1.497   9.391 -0.1154  1.6125 -0.2997
   85SAPS  C215 8079   4.413   1.513   9.212  0.4088  0.2142  0.5384
   85SAPS  H15R 8080   4.504   1.522   9.151  0.4699  0.6219  0.6852
   85SAPS  C216 8081   4.286   1.528   9.125 -0.4969 -0.2163 -0.2499
   85SAPS  H16R 8082   4.291   1.630   9.080  2.2500 -0.6626 -1.1384
   85SAPS  H16S 8083   4.195   1.516   9.188 -0.4069  0.1614 -0.0381
   85SAPS  C217 8084   4.282   1.447   9.005 -0.0994  0.5161 -0.1758
   85SAPS  H17R 8085   4.182   1.469   8.962 -0.0730  2.1027  0.5206
   85SAPS  H17S 8086   4.287   1.340   9.035  2.6289  0.4289 -0.6689
   85SAPS  C218 8087   4.393   1.484   8.903 -0.1431 -0.3631 -0.1204
   85SAPS  H18R 8088   4.492   1.480   8.953 -1.2263  0.2502  2.1855
   85SAPS  H18S 8089   4.367   1.585   8.865 -1.7554 -0.2148  1.2936
   85SAPS  C219 8090   4.394   1.405   8.772  0.3526  0.4543 -0.0145
   85SAPS  H19R 8091   4.305   1.446   8.719  0.8244  2.2509  0.5079
   85SAPS  H19S 8092   4.381   1.296   8.788  2.7332  0.2095  0.6782
   85SAPS  C220 8093   4.523   1.436   8.686 -0.3308  0.8518 -0.1565
   85SAPS  H20R 8094   4.619   1.406   8.731  0.0782 -1.5330 -2.3938
   85SAPS  H20S 8095   4.518   1.547   8.675  2.9916  1.4236  2.4836
   85SAPS  H20T 8096   4.517   1.395   8.582 -0.3324  0.2865  0.0639
   85SAPS   C33 8097   4.611   1.406  10.425 -0.3445 -0.5302 -0.7693
   85SAPS   H3X 8098   4.503   1.391  10.401 -0.6076  1.4124 -1.0292
   85SAPS   H3Y 8099   4.651   1.303  10.427 -1.3682 -0.9594  1.9711
   85SAPS   C34 8100   4.689   1.480  10.314 -0.0159 -0.5309  1.0468
   85SAPS   H4X 8101   4.798   1.473  10.334  0.8203 -1.5380 -2.9370
   85SAPS   H4Y 8102   4.659   1.585  10.329  1.2886 -0.1077  0.8102
   85SAPS   C35 8103   4.668   1.416  10.173  0.8946 -0.3425  0.0937
   85SAPS   H5X 8104   4.559   1.402  10.154  1.1793 -2.0787 -0.4247
   85SAPS   H5Y 8105   4.710   1.314  10.186  1.7110  0.2220  2.5792
   85SAPS   C36 8106   4.757   1.496  10.078 -1.4719 -0.0408 -0.7258
   85SAPS   H6X 8107   4.860   1.484  10.118 -1.3152  0.0197 -1.1024
   85SAPS   H6Y 8108   4.732   1.604  10.079 -0.0360  0.3179 -1.3764
   85SAPS   C37 8109   4.770   1.456   9.928  0.1219  0.1467  0.2413
   85SAPS   H7X 8110   4.669   1.456   9.882 -1.7681  0.0309  3.9725
   85SAPS   H7Y 8111   4.797   1.349   9.913 -1.6249 -0.3084  0.1076
   85SAPS   C38 8112   4.869   1.539   9.839 -0.5813 -0.9664  0.7679
   85SAPS   H8X 8113   4.971   1.535   9.882  0.4848  1.2671 -1.3105
   85SAPS   H8Y 8114   4.827   1.642   9.844 -1.9980 -1.5372  1.0942
   85SAPS   C39 8115   4.880   1.504   9.688  0.1384 -0.7111 -0.4908
   85SAPS   H9X 8116   4.942   1.411   9.692  2.0224  0.3430 -2.6250
   85SAPS   H9Y 8117   4.945   1.570   9.627 -1.8483 -0.5366 -2.5244
   85SAPS  C310 8118   4.749   1.482   9.612  0.0936  0.1521 -0.0381
   85SAPS  H10X 8119   4.711   1.577   9.569 -2.5208 -0.5962  0.4375
   85SAPS  H10Y 8120   4.674   1.444   9.685 -1.0319 -1.7782 -2.0819
   85SAPS  C311 8121   4.753   1.381   9.492  0.4969 -0.0059  0.8068
   85SAPS  H11X 8122   4.659   1.325   9.469 -1.1060  2.3508  1.3015
   85SAPS  H11Y 8123   4.829   1.304   9.517 -0.0287 -0.0684  2.3058
   85SAPS  C312 8124   4.799   1.444   9.353  0.1256  0.3565 -1.0234
   85SAPS  H12X 8125   4.910   1.451   9.356  0.1477 -0.1197  1.9821
   85SAPS  H12Y 8126   4.747   1.541   9.336 -1.2800 -0.2377 -0.2035
   85SAPS  C313 8127   4.771   1.362   9.219  0.8688  0.1052  0.2719
   85SAPS  H13X 8128   4.664   1.333   9.212  1.1399 -0.6560 -1.0227
   85SAPS  H13Y 8129   4.836   1.271   9.215  0.2639 -0.3027 -0.4052
   85SAPS  C314 8130   4.811   1.449   9.100  0.4387 -0.0191 -0.0499
   85SAPS  H14X 8131   4.920   1.467   9.117  0.6629 -1.1982 -0.2047
   85SAPS  H14Y 8132   4.745   1.539   9.105  0.1523 -0.2896  2.5852
   85SAPS  C315 8133   4.774   1.385   8.969  0.0697  0.2167 -0.2928
   85SAPS  H15X 8134   4.742   1.464   8.898  1.8600  2.0260  0.8035
   85SAPS  H15Y 8135   4.684   1.320   8.973  0.1014  0.1590 -0.4972
   85SAPS  C316 8136   4.893   1.307   8.910  0.9235  0.2791  0.6187
   85SAPS  H16X 8137   4.921   1.225   8.979 -0.3589 -1.2360 -0.5673
   85SAPS  H16Y 8138   4.976   1.377   8.887  0.1653  0.5702 -1.4176
   85SAPS  C317 8139   4.862   1.240   8.772  0.6566  0.3119  0.3678
   85SAPS  H17X 8140   4.814   1.317   8.708 -1.2930 -0.7036  0.5109
   85SAPS  H17Y 8141   4.799   1.149   8.774  1.1572 -0.0298  0.6732
   85SAPS  C318 8142   4.996   1.194   8.706 -0.7730  0.4267  0.1794
   85SAPS  H18X 8143   5.058   1.282   8.677 -1.7032  0.5346 -1.6246
   85SAPS  H18Y 8144   4.975   1.132   8.616 -3.0231 -0.3905  1.2157
   85SAPS  H18Z 8145   5.051   1.140   8.786 -0.0795  0.2966 -0.3631
   86SAPS     N 8146   5.872   2.209  11.123 -0.5339 -0.2685 -0.2937
   86SAPS   HN1 8147   5.921   2.246  11.207 -2.7807  0.9751  0.5559
   86SAPS   HN2 8148   5.898   2.282  11.054 -1.5927  2.1112  1.6709
   86SAPS   HN3 8149   5.769   2.219  11.132 -0.3158  0.5591  2.3664
   86SAPS   C12 8150   5.915   2.062  11.104 -0.8880  0.5234 -0.2722
   86SAPS  H12A 8151   5.991   2.032  11.174 -0.3825  0.4898 -0.8225
   86SAPS   C13 8152   5.794   1.967  11.115 -0.3651  1.0480 -0.6031
   86SAPS  O13A 8153   5.678   2.012  11.127 -0.3029  0.0588  0.3088
   86SAPS  O13B 8154   5.806   1.844  11.108  0.0671 -0.2456  0.2189
   86SAPS   C11 8155   5.980   2.048  10.968 -0.5801 -0.1810  0.2595
   86SAPS  H11A 8156   5.900   2.074  10.896 -1.1531 -1.9331  0.2215
   86SAPS  H11B 8157   6.003   1.942  10.941 -0.7962  0.0175 -0.7213
   86SAPS     P 8158   6.234   2.093  10.978  0.3208 -0.1638 -0.0179
   86SAPS   O13 8159   6.263   2.092  11.118  0.1188  0.0951 -0.3193
   86SAPS   O14 8160   6.251   1.967  10.900  0.0930 -0.4430 -0.2241
   86SAPS   O12 8161   6.087   2.142  10.954  0.4997  0.3746  0.1954
   86SAPS   O11 8162   6.331   2.201  10.919 -0.3796 -0.5569 -0.2638
   86SAPS    C1 8163   6.281   2.281  10.810  0.3491  0.7629  0.8943
   86SAPS    HA 8164   6.190   2.340  10.836  0.4513  1.6357 -0.6200
   86SAPS    HB 8165   6.359   2.349  10.771 -0.6651  0.3897 -1.9898
   86SAPS    C2 8166   6.256   2.206  10.673  0.8112  0.1599 -0.1184
   86SAPS    HS 8167   6.259   2.098  10.698 -2.3470  0.0628  0.3113
   86SAPS   O21 8168   6.351   2.239  10.568  0.0673 -0.4052  0.2107
   86SAPS   C21 8169   6.382   2.137  10.496 -0.7132 -0.2560  0.4560
   86SAPS   O22 8170   6.381   2.015  10.522  0.5007 -0.0136  0.1401
   86SAPS   C22 8171   6.436   2.197  10.363  0.4450 -0.3185  0.4698
   86SAPS   H2R 8172   6.337   2.220  10.318 -0.3593 -2.2054  1.1728
   86SAPS   H2S 8173   6.484   2.296  10.382  1.0232 -0.2875 -1.0127
   86SAPS    C3 8174   6.108   2.228  10.622 -0.0104  0.2370  0.3803
   86SAPS    HX 8175   6.084   2.336  10.621 -0.8892  0.0835 -2.3449
   86SAPS    HY 8176   6.037   2.182  10.694  0.9072 -1.5347  0.2077
   86SAPS   O31 8177   6.081   2.173  10.486 -0.1746 -0.1388 -1.0509
   86SAPS   C31 8178   6.037   2.053  10.477  0.2430  0.2560 -0.0757
   86SAPS   O32 8179   6.024   1.973  10.564  0.3198 -0.0081  0.0866
   86SAPS   C32 8180   5.996   2.031  10.329 -1.1883 -0.2112  0.1418
   86SAPS   H2X 8181   5.897   2.081  10.318 -0.5852  1.0213  0.1001
   86SAPS   H2Y 8182   5.986   1.920  10.324 -1.9670 -0.1150 -1.1046
   86SAPS   C23 8183   6.531   2.112  10.273  0.0477  0.1407  0.1952
   86SAPS   H3R 8184   6.474   2.030  10.225 -0.6993  0.8973 -0.2549
   86SAPS   H3S 8185   6.611   2.073  10.340  1.0848 -0.0220 -1.1009
   86SAPS   C24 8186   6.608   2.204  10.168 -0.4743  1.3127  0.6405
   86SAPS   H4R 8187   6.690   2.142  10.126 -0.4440  0.6515  1.6421
   86SAPS   H4S 8188   6.660   2.289  10.218 -0.0561  1.5314 -0.1351
   86SAPS   C25 8189   6.506   2.243  10.058 -0.0156 -0.9187 -0.1653
   86SAPS   H5R 8190   6.420   2.297  10.103 -0.2423 -2.3591  1.2181
   86SAPS   C26 8191   6.497   2.238   9.921  0.0621 -0.2328 -0.0544
   86SAPS   H6R 8192   6.401   2.274   9.882  0.2284 -0.0269 -0.2727
   86SAPS   C27 8193   6.595   2.168   9.827 -0.3741  0.0796 -0.2836
   86SAPS   H7R 8194   6.547   2.071   9.802 -0.1376 -0.4165  1.0837
   86SAPS   H7S 8195   6.686   2.137   9.883 -0.2495 -0.5268 -0.8034
   86SAPS   C28 8196   6.640   2.236   9.705 -0.3487  0.1091 -1.0826
   86SAPS   H8R 8197   6.662   2.342   9.723  0.9537 -0.4506  0.8536
   86SAPS   C29 8198   6.683   2.176   9.593 -0.4043  0.3748  0.1983
   86SAPS   H9R 8199   6.724   2.232   9.508 -0.8758  0.6266  0.1360
   86SAPS  C210 8200   6.688   2.030   9.574 -0.2422  0.6268  0.0127
   86SAPS  H10R 8201   6.729   1.978   9.663  0.4226  1.8574  0.4515
   86SAPS  H10S 8202   6.766   2.007   9.498 -2.7950 -3.2637 -1.7264
   86SAPS  C211 8203   6.547   1.977   9.531  0.4642 -0.2743 -0.3666
   86SAPS  H11R 8204   6.465   2.050   9.523  0.8975  0.9606  3.8560
   86SAPS  C212 8205   6.506   1.849   9.524 -0.1641 -0.1875  0.1264
   86SAPS  H12R 8206   6.398   1.831   9.522  0.1220 -2.0429 -0.1656
   86SAPS  C213 8207   6.587   1.726   9.544 -0.1570  0.4726  0.2886
   86SAPS  H13R 8208   6.678   1.744   9.607 -0.0371  0.9460 -0.0182
   86SAPS  H13S 8209   6.635   1.704   9.447  3.0266  0.9233  1.6139
   86SAPS  C214 8210   6.500   1.605   9.591 -0.9114 -0.5521  0.6361
   86SAPS  H14R 8211   6.465   1.534   9.515  0.2370 -1.0403  0.5504
   86SAPS  C215 8212   6.464   1.591   9.720  0.5609 -0.9456  0.2100
   86SAPS  H15R 8213   6.388   1.514   9.739 -0.0618 -1.1614 -2.6287
   86SAPS  C216 8214   6.495   1.687   9.835 -0.2758 -0.0725 -0.2720
   86SAPS  H16R 8215   6.562   1.764   9.792 -1.9703  1.1416 -0.8411
   86SAPS  H16S 8216   6.551   1.630   9.912 -0.9232 -1.5992 -0.8944
   86SAPS  C217 8217   6.371   1.761   9.883 -0.8877 -0.0680  0.2827
   86SAPS  H17R 8218   6.317   1.804   9.796 -0.2213  0.5742  0.1708
   86SAPS  H17S 8219   6.395   1.849   9.948 -1.3819 -0.0500  0.4448
   86SAPS  C218 8220   6.275   1.664   9.966 -0.2924 -0.1623 -0.3130
   86SAPS  H18R 8221   6.250   1.568   9.915 -0.2332 -0.9493  1.0935
   86SAPS  H18S 8222   6.173   1.710   9.970 -0.4789 -0.6505  0.7133
   86SAPS  C219 8223   6.319   1.635  10.106  0.1941 -0.1771 -0.6097
   86SAPS  H19R 8224   6.332   1.733  10.157 -0.9850 -0.7208  0.8229
   86SAPS  H19S 8225   6.413   1.577  10.098 -0.1894 -0.9986  0.4936
   86SAPS  C220 8226   6.210   1.554  10.173  0.3872 -0.2442 -0.6040
   86SAPS  H20R 8227   6.176   1.471  10.106  0.2379 -1.7302  1.2439
   86SAPS  H20S 8228   6.126   1.622  10.198  1.3513  0.8565 -0.3054
   86SAPS  H20T 8229   6.229   1.507  10.271 -0.5146 -3.6277 -1.8875
   86SAPS   C33 8230   6.105   2.076  10.226  0.7767  0.5035 -0.1291
   86SAPS   H3X 8231   6.203   2.028  10.246  0.7255  1.1571  1.9613
   86SAPS   H3Y 8232   6.138   2.179  10.251 -1.4159  1.4057 -0.7734
   86SAPS   C34 8233   6.060   2.037  10.086  0.5375 -0.0539  0.3454
   86SAPS   H4X 8234   5.957   2.078  10.080  0.8724  0.5465 -2.8628
   86SAPS   H4Y 8235   6.060   1.926  10.082  2.5712 -0.0987  0.5360
   86SAPS   C35 8236   6.150   2.102   9.981  0.3123  0.1826 -0.1445
   86SAPS   H5X 8237   6.257   2.081  10.001  0.2622  0.1096  0.0488
   86SAPS   H5Y 8238   6.133   2.212   9.989 -0.0250  0.0408  1.2489
   86SAPS   C36 8239   6.101   2.053   9.842 -0.1363 -0.2998 -0.2999
   86SAPS   H6X 8240   5.991   2.070   9.834 -0.1217 -0.0092  0.0397
   86SAPS   H6Y 8241   6.112   1.943   9.844  0.7758 -0.2466 -1.5131
   86SAPS   C37 8242   6.175   2.125   9.722 -0.0003  0.1054 -0.5839
   86SAPS   H7X 8243   6.283   2.145   9.736  0.0077  0.7619 -1.4797
   86SAPS   H7Y 8244   6.132   2.227   9.706  0.3924  0.3162 -0.3173
   86SAPS   C38 8245   6.147   2.048   9.600 -0.8695  0.0239 -0.7165
   86SAPS   H8X 8246   6.037   2.035   9.602 -0.7558 -0.9209 -0.0325
   86SAPS   H8Y 8247   6.190   1.946   9.605  0.9374  0.7962  2.5806
   86SAPS   C39 8248   6.166   2.119   9.458 -0.2848 -0.3324 -0.0805
   86SAPS   H9X 8249   6.275   2.143   9.457 -0.1120 -1.1003 -0.6845
   86SAPS   H9Y 8250   6.107   2.213   9.450 -0.1498 -0.1533  0.8928
   86SAPS  C310 8251   6.134   2.032   9.346 -0.4552  0.0060  0.4139
   86SAPS  H10X 8252   6.032   1.989   9.354 -0.8780  0.8824 -0.1037
   86SAPS  H10Y 8253   6.209   1.950   9.353 -0.5707 -0.1712 -0.3296
   86SAPS  C311 8254   6.155   2.102   9.207 -1.2800  0.0543  0.7936
   86SAPS  H11X 8255   6.249   2.161   9.211 -2.4457  1.9816  1.1747
   86SAPS  H11Y 8256   6.065   2.165   9.189  0.0798  2.0288  0.5277
   86SAPS  C312 8257   6.177   2.010   9.082  0.1978  0.1670  0.1995
   86SAPS  H12X 8258   6.086   1.951   9.058  1.9452 -1.2305 -3.8822
   86SAPS  H12Y 8259   6.254   1.935   9.110 -0.0773  0.3788  1.5961
   86SAPS  C313 8260   6.225   2.076   8.950 -0.0093  0.3646  0.1917
   86SAPS  H13X 8261   6.287   2.008   8.887  1.0057 -0.4143  1.9497
   86SAPS  H13Y 8262   6.295   2.156   8.983 -0.7366  0.8825  0.4936
   86SAPS  C314 8263   6.116   2.141   8.871  0.2676 -0.0028  0.0304
   86SAPS  H14X 8264   6.048   2.196   8.941  0.1282 -1.4207  1.0545
   86SAPS  H14Y 8265   6.063   2.068   8.806 -2.5605  0.8171  1.2777
   86SAPS  C315 8266   6.170   2.235   8.765  0.0205 -0.7761 -0.1433
   86SAPS  H15X 8267   6.253   2.174   8.724  0.5935 -1.2325  1.5847
   86SAPS  H15Y 8268   6.210   2.331   8.804  2.4831 -1.2421 -1.3294
   86SAPS  C316 8269   6.079   2.258   8.648 -0.2185 -0.4956  0.6681
   86SAPS  H16X 8270   6.071   2.165   8.588 -2.0507  0.9085 -1.4031
   86SAPS  H16Y 8271   6.138   2.328   8.584  0.2935  0.3388  2.0065
   86SAPS  C317 8272   5.938   2.330   8.675 -0.4510 -0.1409 -0.2356
   86SAPS  H17X 8273   5.873   2.258   8.729  0.6962 -0.5121  0.6853
   86SAPS  H17Y 8274   5.889   2.353   8.577 -1.0455 -1.1548 -0.1912
   86SAPS  C318 8275   5.936   2.457   8.763  0.9616  0.2005 -0.1201
   86SAPS  H18X 8276   5.975   2.446   8.867  0.1772  1.3494  0.3197
   86SAPS  H18Y 8277   5.833   2.489   8.790  0.0771 -0.9778 -1.9112
   86SAPS  H18Z 8278   5.991   2.541   8.715 -0.6572  2.4634  1.7399
   87SAPS     N 8279   4.905   1.775  11.124  0.0852  0.1133  0.0255
   87SAPS   HN1 8280   4.947   1.690  11.166  2.2474  1.4953  0.8300
   87SAPS   HN2 8281   4.814   1.795  11.169 -0.4707  1.1637 -1.4747
   87SAPS   HN3 8282   4.878   1.753  11.026  1.5009  0.8203 -0.5579
   87SAPS   C12 8283   4.990   1.898  11.149 -0.4148  0.2316  0.2620
   87SAPS  H12A 8284   4.955   1.978  11.086 -2.0960  0.5294  1.4995
   87SAPS   C13 8285   4.975   1.960  11.297 -0.2530  0.7938 -1.1655
   87SAPS  O13A 8286   4.931   1.885  11.389  0.5258  0.3671 -0.3078
   87SAPS  O13B 8287   5.056   2.055  11.331  0.2170  0.2667  0.8721
   87SAPS   C11 8288   5.142   1.871  11.108  0.1138  0.0060 -0.0736
   87SAPS  H11A 8289   5.188   1.792  11.171  2.3859  1.6282  0.4093
   87SAPS  H11B 8290   5.198   1.963  11.133  1.8481 -0.6239 -1.4241
   87SAPS     P 8291   5.246   1.747  10.906 -0.2863  0.0914 -0.0596
   87SAPS   O13 8292   5.376   1.792  10.950  0.3727 -0.0290  1.1961
   87SAPS   O14 8293   5.203   1.610  10.932  0.5460 -0.2651 -0.0834
   87SAPS   O12 8294   5.139   1.844  10.966 -0.5270  0.1752 -0.6858
   87SAPS   O11 8295   5.232   1.773  10.753  0.5475  0.0552 -1.1318
   87SAPS    C1 8296   5.207   1.902  10.699 -0.0811  0.3184  0.0660
   87SAPS    HA 8297   5.165   1.973  10.773 -1.4362 -1.2347  0.8458
   87SAPS    HB 8298   5.304   1.941  10.661  0.5227 -2.4079 -1.4927
   87SAPS    C2 8299   5.107   1.904  10.581  0.1931  0.3606  0.5977
   87SAPS    HS 8300   5.010   1.871  10.624  0.2599  2.8149  2.8877
   87SAPS   O21 8301   5.163   1.816  10.480 -0.1047  0.1691  0.4983
   87SAPS   C21 8302   5.068   1.770  10.394 -0.2271 -0.7427 -0.1756
   87SAPS   O22 8303   4.949   1.771  10.412  0.3089 -0.0750 -0.0040
   87SAPS   C22 8304   5.135   1.717  10.264 -0.2292 -0.6948  0.3502
   87SAPS   H2R 8305   5.245   1.715  10.278 -0.2117  0.1048  0.3641
   87SAPS   H2S 8306   5.089   1.619  10.238 -1.0435 -0.7852  1.9565
   87SAPS    C3 8307   5.082   2.038  10.517 -0.0410 -0.1405 -0.4907
   87SAPS    HX 8308   5.031   2.097  10.597 -0.6995  0.5438 -1.3971
   87SAPS    HY 8309   5.012   2.032  10.431 -2.3521  0.4879  1.2390
   87SAPS   O31 8310   5.218   2.086  10.474  0.4819  0.3196  0.0292
   87SAPS   C31 8311   5.225   2.145  10.360  0.0769 -0.1227 -0.0914
   87SAPS   O32 8312   5.133   2.144  10.280  0.4192  0.1522 -0.6016
   87SAPS   C32 8313   5.367   2.213  10.354  0.0658 -0.3992  0.5084
   87SAPS   H2X 8314   5.411   2.189  10.453  0.1795  0.4681  0.6802
   87SAPS   H2Y 8315   5.349   2.323  10.350  0.7684 -0.2922 -2.2443
   87SAPS   C23 8316   5.115   1.814  10.143 -0.5567  0.4995 -0.1099
   87SAPS   H3R 8317   5.114   1.921  10.173  1.5231  0.0821  1.6890
   87SAPS   H3S 8318   5.021   1.801  10.085  0.0277  0.1450 -0.9802
   87SAPS   C24 8319   5.233   1.793  10.041 -0.5607 -0.0376  0.1484
   87SAPS   H4R 8320   5.324   1.787  10.104 -0.9521 -0.1910  0.7000
   87SAPS   H4S 8321   5.245   1.889   9.986  0.6767  0.7066  1.6463
   87SAPS   C25 8322   5.222   1.670   9.951 -0.3783  0.2321  0.0161
   87SAPS   H5R 8323   5.226   1.567   9.991 -0.9786  0.0634 -0.3436
   87SAPS   C26 8324   5.211   1.666   9.820  0.5670 -0.5045 -0.1978
   87SAPS   H6R 8325   5.201   1.573   9.761  1.1601 -1.3790  1.0437
   87SAPS   C27 8326   5.192   1.786   9.728  0.4635  0.2858 -0.2966
   87SAPS   H7R 8327   5.207   1.882   9.782 -1.0806 -0.1829  1.0529
   87SAPS   H7S 8328   5.086   1.774   9.697  0.3805 -2.3331  0.7166
   87SAPS   C28 8329   5.285   1.781   9.602 -0.4306  0.6330 -0.1871
   87SAPS   H8R 8330   5.386   1.740   9.612  0.3164  1.3135 -3.6342
   87SAPS   C29 8331   5.235   1.812   9.480 -0.0109 -0.2300 -0.1061
   87SAPS   H9R 8332   5.307   1.819   9.398 -0.1750 -0.6520 -0.2854
   87SAPS  C210 8333   5.094   1.860   9.444  0.9015  0.2836  0.1341
   87SAPS  H10R 8334   5.066   1.933   9.524  0.4656  0.4030 -0.1219
   87SAPS  H10S 8335   5.016   1.782   9.459 -0.6919  1.7208 -0.3308
   87SAPS  C211 8336   5.085   1.923   9.304  0.6884  0.3795  0.4684
   87SAPS  H11R 8337   5.095   2.032   9.311  0.3103  0.3540  1.6639
   87SAPS  C212 8338   5.108   1.857   9.185  0.0882 -0.1946  0.1474
   87SAPS  H12R 8339   5.101   1.922   9.096  0.6480 -1.6480 -1.0098
   87SAPS  C213 8340   5.149   1.712   9.156 -0.0519  0.2689 -0.4675
   87SAPS  H13R 8341   5.079   1.660   9.087 -0.1900 -2.2627  1.4323
   87SAPS  H13S 8342   5.122   1.651   9.245 -0.6955 -2.1318 -2.2196
   87SAPS  C214 8343   5.284   1.706   9.104 -0.5971  0.4851  0.0236
   87SAPS  H14R 8344   5.359   1.674   9.178  0.3606  2.7298  0.1038
   87SAPS  C215 8345   5.309   1.731   8.974 -0.5072  0.0017  1.4913
   87SAPS  H15R 8346   5.407   1.736   8.925 -1.5868  0.0703 -0.7933
   87SAPS  C216 8347   5.210   1.760   8.860 -0.5079  0.1025 -1.0268
   87SAPS  H16R 8348   5.248   1.852   8.811  0.3645 -0.2364 -1.0176
   87SAPS  H16S 8349   5.110   1.787   8.900 -0.5191  1.1338 -1.7072
   87SAPS  C217 8350   5.189   1.641   8.768  0.5969 -0.2648 -0.6549
   87SAPS  H17R 8351   5.162   1.552   8.829  1.7854  0.4156  0.9611
   87SAPS  H17S 8352   5.277   1.617   8.705  0.6057  1.1296 -1.2001
   87SAPS  C218 8353   5.070   1.667   8.672 -0.5144  0.7051  0.5618
   87SAPS  H18R 8354   5.062   1.774   8.642 -1.6475 -0.0945 -2.3504
   87SAPS  H18S 8355   4.972   1.651   8.721 -0.7239  1.6881  0.4893
   87SAPS  C219 8356   5.072   1.565   8.557 -0.0482  0.0643 -0.2700
   87SAPS  H19R 8357   5.069   1.472   8.618 -2.5803  1.5216  2.0152
   87SAPS  H19S 8358   5.173   1.573   8.512 -0.0004 -2.2473 -0.7063
   87SAPS  C220 8359   4.955   1.579   8.462  0.0968  0.6989  0.4025
   87SAPS  H20R 8360   4.857   1.592   8.512  0.6370 -0.6403  1.8747
   87SAPS  H20S 8361   4.947   1.494   8.391 -0.0935  0.6085  0.5307
   87SAPS  H20T 8362   4.978   1.659   8.388  0.3810  0.5065  0.2829
   87SAPS   C33 8363   5.453   2.149  10.236  0.1220  0.0446  1.1916
   87SAPS   H3X 8364   5.443   2.038  10.234  0.9105 -0.0318  0.9119
   87SAPS   H3Y 8365   5.562   2.160  10.254  0.8964 -1.2523 -2.0589
   87SAPS   C34 8366   5.415   2.207  10.106  0.3320 -0.8192  0.0619
   87SAPS   H4X 8367   5.424   2.318  10.114 -1.0857 -0.7430  0.9629
   87SAPS   H4Y 8368   5.309   2.186  10.080 -0.0474  0.1151  0.7541
   87SAPS   C35 8369   5.492   2.150   9.990 -0.5077 -0.1284 -0.5999
   87SAPS   H5X 8370   5.481   2.041  10.011 -1.0268  0.0032 -0.1871
   87SAPS   H5Y 8371   5.599   2.181   9.991 -0.3163 -0.7534  0.8425
   87SAPS   C36 8372   5.446   2.168   9.848  0.6596 -0.0051  0.2168
   87SAPS   H6X 8373   5.368   2.092   9.823 -1.8994  3.0743 -2.0559
   87SAPS   H6Y 8374   5.535   2.154   9.783  0.3777 -0.7800 -0.0236
   87SAPS   C37 8375   5.377   2.302   9.820 -0.0712 -0.1028  0.2568
   87SAPS   H7X 8376   5.447   2.388   9.815 -1.7951  1.3598  0.1998
   87SAPS   H7Y 8377   5.306   2.328   9.902 -0.2898  1.0844 -0.2903
   87SAPS   C38 8378   5.288   2.302   9.690 -0.4456 -0.1537  0.3944
   87SAPS   H8X 8379   5.211   2.222   9.693 -1.2063  0.2487 -3.3895
   87SAPS   H8Y 8380   5.348   2.272   9.602 -2.5434 -0.9637 -0.8473
   87SAPS   C39 8381   5.222   2.445   9.654  0.9231  0.2568  0.2913
   87SAPS   H9X 8382   5.300   2.504   9.603 -0.2270  1.4064 -0.1679
   87SAPS   H9Y 8383   5.172   2.485   9.745 -0.5102 -1.3822  0.2834
   87SAPS  C310 8384   5.112   2.434   9.544  0.3031 -0.4478  0.0457
   87SAPS  H10X 8385   5.073   2.534   9.514  2.0870  0.1277 -0.4610
   87SAPS  H10Y 8386   5.026   2.376   9.584 -0.1146 -0.6713 -1.1316
   87SAPS  C311 8387   5.165   2.374   9.412 -0.6890  0.6559  0.1554
   87SAPS  H11X 8388   5.221   2.280   9.427  0.0012  0.5039 -2.7967
   87SAPS  H11Y 8389   5.236   2.448   9.371 -1.6544  0.8968 -1.1565
   87SAPS  C312 8390   5.066   2.361   9.297  0.6647  0.8178  0.1117
   87SAPS  H12X 8391   4.991   2.443   9.287 -1.1006 -0.7745 -0.3246
   87SAPS  H12Y 8392   5.000   2.275   9.321 -1.5232  1.9853 -1.3720
   87SAPS  C313 8393   5.147   2.343   9.168  0.4654 -0.2981  0.0862
   87SAPS  H13X 8394   5.227   2.271   9.197 -0.3415 -0.3156  2.4493
   87SAPS  H13Y 8395   5.185   2.447   9.157  0.7546 -0.0869  2.5802
   87SAPS  C314 8396   5.063   2.287   9.050  0.7451 -0.0422  0.4357
   87SAPS  H14X 8397   4.962   2.332   9.059  0.2480 -0.7127 -1.4763
   87SAPS  H14Y 8398   5.037   2.180   9.063 -1.3429  0.4961  0.9906
   87SAPS  C315 8399   5.127   2.317   8.915 -0.4479 -0.6853 -0.1952
   87SAPS  H15X 8400   5.220   2.256   8.921 -0.9625 -1.3538  2.4227
   87SAPS  H15Y 8401   5.153   2.424   8.898  1.8169 -1.1934 -0.3236
   87SAPS  C316 8402   5.029   2.280   8.802 -0.5716 -0.3624  0.7357
   87SAPS  H16X 8403   4.965   2.368   8.779  1.0672  0.3506 -1.3490
   87SAPS  H16Y 8404   4.965   2.194   8.833 -1.6904 -0.0598 -0.6257
   87SAPS  C317 8405   5.105   2.229   8.673  0.1469 -0.2337 -0.0220
   87SAPS  H17X 8406   5.154   2.135   8.708 -0.5022 -0.0809  1.3663
   87SAPS  H17Y 8407   5.163   2.318   8.641 -2.1199  0.5415 -2.2699
   87SAPS  C318 8408   4.998   2.191   8.561  0.3543  0.3901  0.3205
   87SAPS  H18X 8409   5.034   2.157   8.462  0.2449 -0.2722  0.5000
   87SAPS  H18Y 8410   4.930   2.279   8.549 -0.6053 -0.3239  0.4029
   87SAPS  H18Z 8411   4.936   2.103   8.590  0.1344  0.2791 -0.4634
   88SAPS     N 8412   2.121   6.577  10.806 -0.6085 -0.2218 -0.4225
   88SAPS   HN1 8413   2.164   6.483  10.811 -2.3798 -1.2960 -2.9967
   88SAPS   HN2 8414   2.019   6.556  10.807 -0.2022 -2.5107 -1.1358
   88SAPS   HN3 8415   2.137   6.616  10.711  0.1775  0.0655 -0.1812
   88SAPS   C12 8416   2.169   6.667  10.916 -0.4759  0.0154  0.1478
   88SAPS  H12A 8417   2.201   6.597  10.992 -0.4115  0.4137  0.4876
   88SAPS   C13 8418   2.304   6.745  10.880  0.2496  0.5249  0.9785
   88SAPS  O13A 8419   2.360   6.720  10.767  0.4911  0.7183 -0.6798
   88SAPS  O13B 8420   2.357   6.825  10.953 -0.3441  0.2694  0.3966
   88SAPS   C11 8421   2.058   6.759  10.959 -0.0591 -0.7312  0.4212
   88SAPS  H11A 8422   2.095   6.819  11.045 -1.4713  0.3678  0.3014
   88SAPS  H11B 8423   1.976   6.694  10.998  0.4267  0.2245  3.2427
   88SAPS     P 8424   1.897   6.957  10.880 -0.2711 -0.0204  0.0115
   88SAPS   O13 8425   1.772   6.907  10.942 -0.1731 -0.0780 -0.4498
   88SAPS   O14 8426   1.959   7.069  10.959 -0.4149  0.2344  0.6110
   88SAPS   O12 8427   1.993   6.838  10.856  0.1553 -0.2171  0.1236
   88SAPS   O11 8428   1.872   7.012  10.739  0.3435  0.0239  0.5235
   88SAPS    C1 8429   1.932   6.975  10.618 -0.2962 -0.0876  0.2258
   88SAPS    HA 8430   1.925   7.060  10.547 -1.4505  0.0720  0.5073
   88SAPS    HB 8431   2.039   6.951  10.635 -0.3796  0.7126  2.1155
   88SAPS    C2 8432   1.872   6.847  10.561  0.2706  0.7443  0.5121
   88SAPS    HS 8433   1.886   6.761  10.630  1.0081  1.1655  0.8948
   88SAPS   O21 8434   1.926   6.812  10.431  0.0142 -0.1761 -0.3039
   88SAPS   C21 8435   2.045   6.752  10.429  0.5023 -0.0498  0.1098
   88SAPS   O22 8436   2.090   6.685  10.525 -0.4762  0.7552  0.2958
   88SAPS   C22 8437   2.093   6.759  10.283 -0.1252 -0.3721 -0.1440
   88SAPS   H2R 8438   2.015   6.731  10.209 -0.3109  0.4736 -0.2806
   88SAPS   H2S 8439   2.106   6.869  10.272 -2.4347  0.0447  0.7523
   88SAPS    C3 8440   1.717   6.868  10.546 -0.2532  0.0363 -0.0191
   88SAPS    HX 8441   1.704   6.954  10.477 -3.0903  0.5415  0.9995
   88SAPS    HY 8442   1.663   6.884  10.641  0.6312  0.6728  0.3833
   88SAPS   O31 8443   1.657   6.747  10.482 -0.2639  0.3918 -0.3876
   88SAPS   C31 8444   1.535   6.765  10.426  0.0173  0.8416  0.0229
   88SAPS   O32 8445   1.488   6.876  10.406 -0.4260 -0.7295  0.0479
   88SAPS   C32 8446   1.461   6.630  10.404  0.1467  0.1853  0.1749
   88SAPS   H2X 8447   1.467   6.575  10.500 -0.9711  2.3132  1.5335
   88SAPS   H2Y 8448   1.503   6.563  10.326 -1.5538 -0.0176 -0.6075
   88SAPS   C23 8449   2.218   6.684  10.262 -0.0910 -0.1758  0.1578
   88SAPS   H3R 8450   2.195   6.575  10.266 -0.0826 -0.1709  0.3448
   88SAPS   H3S 8451   2.302   6.699  10.333  0.2357 -0.0524 -0.2469
   88SAPS   C24 8452   2.281   6.706  10.117 -0.1834 -0.4924  0.5786
   88SAPS   H4R 8453   2.206   6.682  10.038 -3.0302  1.0268  2.6286
   88SAPS   H4S 8454   2.357   6.626  10.112  0.4624  0.1792 -1.5790
   88SAPS   C25 8455   2.349   6.839  10.104 -0.3490 -1.0812 -1.2388
   88SAPS   H5R 8456   2.445   6.837  10.159 -2.1524 -0.1698  2.2467
   88SAPS   C26 8457   2.324   6.937  10.021 -0.4050 -0.3455 -0.0055
   88SAPS   H6R 8458   2.385   7.029  10.017 -0.6621 -0.2120 -0.9264
   88SAPS   C27 8459   2.215   6.927   9.915  0.0680 -0.6015 -0.3700
   88SAPS   H7R 8460   2.197   7.027   9.871 -0.2304 -0.8331 -0.7867
   88SAPS   H7S 8461   2.115   6.902   9.957 -0.8950  1.7658 -1.0863
   88SAPS   C28 8462   2.237   6.834   9.797 -0.3758  0.4328 -0.0955
   88SAPS   H8R 8463   2.254   6.728   9.822 -0.1249  0.9990  2.4785
   88SAPS   C29 8464   2.258   6.869   9.667  0.2189  0.0575  0.9430
   88SAPS   H9R 8465   2.292   6.792   9.596  0.0971 -0.2434  1.2145
   88SAPS  C210 8466   2.248   7.005   9.606 -1.0315  0.0423 -0.1716
   88SAPS  H10R 8467   2.348   7.028   9.563 -1.9296  2.5527 -1.1078
   88SAPS  H10S 8468   2.229   7.087   9.679 -0.6111  1.2500 -1.3649
   88SAPS  C211 8469   2.146   7.018   9.493 -0.6657  0.0680  0.5312
   88SAPS  H11R 8470   2.052   7.065   9.524 -0.9897  0.1673 -0.5473
   88SAPS  C212 8471   2.162   6.987   9.365 -0.0818 -0.7723  0.5068
   88SAPS  H12R 8472   2.080   7.000   9.293  0.1190  0.6018  0.5051
   88SAPS  C213 8473   2.287   6.922   9.306 -0.1680  0.2093  0.4704
   88SAPS  H13R 8474   2.371   6.924   9.379  1.0071  2.1455 -0.8422
   88SAPS  H13S 8475   2.329   6.984   9.224  1.9185  1.5612  2.4465
   88SAPS  C214 8476   2.264   6.783   9.255  1.2092 -1.0277  0.0308
   88SAPS  H14R 8477   2.285   6.702   9.327  2.8927  0.8839  1.8215
   88SAPS  C215 8478   2.234   6.756   9.127  0.5501 -0.3468 -0.7617
   88SAPS  H15R 8479   2.222   6.654   9.090 -3.9157  0.2010 -1.3676
   88SAPS  C216 8480   2.214   6.862   9.030 -0.5794 -0.1351 -0.1803
   88SAPS  H16R 8481   2.313   6.892   8.991 -0.1495  0.2505  1.1637
   88SAPS  H16S 8482   2.171   6.957   9.068  0.9626  1.4669 -2.2157
   88SAPS  C217 8483   2.130   6.814   8.908 -0.3925  0.2802 -0.0735
   88SAPS  H17R 8484   2.070   6.902   8.876 -0.6226  0.0822 -0.1809
   88SAPS  H17S 8485   2.056   6.744   8.952  1.2669 -1.3054  0.3264
   88SAPS  C218 8486   2.198   6.752   8.787  0.2651 -0.5323  0.5342
   88SAPS  H18R 8487   2.249   6.657   8.815 -0.0085 -0.3859  1.5568
   88SAPS  H18S 8488   2.281   6.820   8.756  1.3709 -0.8508  2.6084
   88SAPS  C219 8489   2.098   6.720   8.674  0.2335 -0.4758 -0.4552
   88SAPS  H19R 8490   2.149   6.676   8.586  0.3176  0.5847 -0.9545
   88SAPS  H19S 8491   2.055   6.817   8.643 -0.4350 -0.1419  1.4079
   88SAPS  C220 8492   1.977   6.634   8.712 -0.3610 -0.2970 -0.3210
   88SAPS  H20R 8493   1.905   6.701   8.762 -0.2864  0.4236 -1.1602
   88SAPS  H20S 8494   2.011   6.543   8.767  1.2101  1.4292  1.7270
   88SAPS  H20T 8495   1.939   6.596   8.614  0.3514  0.3232 -0.8486
   88SAPS   C33 8496   1.306   6.649  10.371  0.1292 -0.1369 -0.8428
   88SAPS   H3X 8497   1.272   6.755  10.373 -1.8838 -0.7376  0.1007
   88SAPS   H3Y 8498   1.246   6.599  10.451 -2.2526  1.4571 -1.5254
   88SAPS   C34 8499   1.268   6.578  10.240  0.3250 -0.3489 -0.3794
   88SAPS   H4X 8500   1.157   6.586  10.238  0.3447  0.5241  0.8051
   88SAPS   H4Y 8501   1.295   6.470  10.236  0.3167 -0.3369 -0.7955
   88SAPS   C35 8502   1.331   6.643  10.118 -0.7695 -0.0873  0.4790
   88SAPS   H5X 8503   1.441   6.656  10.127 -1.0430  1.9980  1.4622
   88SAPS   H5Y 8504   1.301   6.750  10.110 -0.6146 -0.1450 -1.2294
   88SAPS   C36 8505   1.296   6.574   9.991  0.8122 -0.5075 -0.2023
   88SAPS   H6X 8506   1.189   6.596   9.975  1.2929  2.5164  0.1103
   88SAPS   H6Y 8507   1.317   6.466  10.008  1.7855 -0.0168  2.2409
   88SAPS   C37 8508   1.379   6.613   9.865  0.8142  0.6103 -0.0984
   88SAPS   H7X 8509   1.487   6.590   9.878  0.6031 -0.0975  0.4546
   88SAPS   H7Y 8510   1.355   6.716   9.830  0.6351  1.1148  1.4505
   88SAPS   C38 8511   1.342   6.520   9.744  0.3053  0.2548  0.6422
   88SAPS   H8X 8512   1.242   6.546   9.704  0.2120  0.8235  1.2286
   88SAPS   H8Y 8513   1.343   6.415   9.779 -2.4356 -0.4866 -1.2126
   88SAPS   C39 8514   1.444   6.534   9.627  0.2181 -0.4633  0.2974
   88SAPS   H9X 8515   1.534   6.479   9.663 -0.5555 -1.9189  0.1187
   88SAPS   H9Y 8516   1.466   6.642   9.617 -1.1108 -0.3655 -2.9050
   88SAPS  C310 8517   1.408   6.488   9.486 -0.0222 -0.3952 -0.1847
   88SAPS  H10X 8518   1.315   6.428   9.476 -0.7901  0.7339 -0.0724
   88SAPS  H10Y 8519   1.485   6.420   9.444  0.4239  1.1467 -2.0059
   88SAPS  C311 8520   1.407   6.610   9.387  0.2654 -0.7198 -0.1593
   88SAPS  H11X 8521   1.510   6.650   9.374 -0.2481  0.8861  0.5000
   88SAPS  H11Y 8522   1.342   6.688   9.431 -0.6827 -0.9623 -1.0908
   88SAPS  C312 8523   1.369   6.578   9.240 -0.2667  0.0956  1.1894
   88SAPS  H12X 8524   1.272   6.526   9.221 -0.3200  1.0065 -1.4982
   88SAPS  H12Y 8525   1.447   6.517   9.190 -0.3987  0.1908  0.8617
   88SAPS  C313 8526   1.331   6.705   9.157 -0.8067 -0.3197  0.3805
   88SAPS  H13X 8527   1.429   6.753   9.134 -1.7754  1.3905 -0.3823
   88SAPS  H13Y 8528   1.264   6.775   9.211 -1.0243 -1.2544  1.3446
   88SAPS  C314 8529   1.266   6.659   9.021 -1.1581 -0.2607 -0.5384
   88SAPS  H14X 8530   1.175   6.602   9.048 -1.1542  0.0933  0.2527
   88SAPS  H14Y 8531   1.343   6.604   8.962  0.8351  1.7309  0.0377
   88SAPS  C315 8532   1.226   6.780   8.935  0.3026  0.1073 -0.2344
   88SAPS  H15X 8533   1.300   6.862   8.941  1.4382 -0.8978 -0.1285
   88SAPS  H15Y 8534   1.128   6.811   8.977 -0.3430 -1.6019 -0.4079
   88SAPS  C316 8535   1.206   6.732   8.791  0.0422  0.1160  0.5458
   88SAPS  H16X 8536   1.112   6.674   8.774  0.8493 -1.1683  0.3137
   88SAPS  H16Y 8537   1.286   6.661   8.759 -1.1643 -1.2119  0.3421
   88SAPS  C317 8538   1.183   6.846   8.693  0.0065 -0.3489  0.0689
   88SAPS  H17X 8539   1.261   6.923   8.711 -0.9217  0.3660  1.2149
   88SAPS  H17Y 8540   1.083   6.891   8.714 -1.0097 -0.7625 -3.2728
   88SAPS  C318 8541   1.181   6.798   8.546 -0.5292  0.0702 -0.5149
   88SAPS  H18X 8542   1.087   6.744   8.519 -1.6443  2.6171 -2.1576
   88SAPS  H18Y 8543   1.274   6.743   8.520  0.9247  1.4223  1.6077
   88SAPS  H18Z 8544   1.182   6.891   8.485  1.7589  0.2034 -0.3294
   89SAPS     N 8545   0.098   2.338  11.152  0.3352  0.0263  0.0500
   89SAPS   HN1 8546   0.016   2.399  11.132  1.9646  2.3372  0.1422
   89SAPS   HN2 8547   0.086   2.278  11.237 -0.6285  0.6158  0.3434
   89SAPS   HN3 8548   0.175   2.399  11.185 -0.5671  0.9810  0.4325
   89SAPS   C12 8549   0.144   2.246  11.049  0.0230  0.6995  0.6521
   89SAPS  H12A 8550   0.229   2.186  11.080 -0.5913 -0.8476 -0.4993
   89SAPS   C13 8551   0.043   2.126  11.013 -0.2879 -1.2714 -1.1804
   89SAPS  O13A 8552  -0.066   2.120  11.075  0.3368 -0.1140 -0.1890
   89SAPS  O13B 8553   0.070   2.030  10.935 -0.5581 -0.0091 -0.1276
   89SAPS   C11 8554   0.185   2.332  10.925  0.9898  0.6476  0.0511
   89SAPS  H11A 8555   0.102   2.404  10.909 -0.5173 -0.1169  3.5308
   89SAPS  H11B 8556   0.192   2.260  10.841 -0.1147  0.3084  0.2426
   89SAPS     P 8557   0.366   2.486  10.823 -0.6821 -0.1486  0.3953
   89SAPS   O13 8558   0.269   2.594  10.796 -0.2454  0.1261 -0.2423
   89SAPS   O14 8559   0.501   2.529  10.875 -0.0684 -0.2958  0.2986
   89SAPS   O12 8560   0.310   2.396  10.942  0.0207  0.2100 -0.6053
   89SAPS   O11 8561   0.391   2.385  10.698 -0.2415 -0.1588 -0.3850
   89SAPS    C1 8562   0.511   2.398  10.614 -0.0263  0.0002 -0.5389
   89SAPS    HA 8563   0.596   2.424  10.680 -2.2241 -0.1692  2.5807
   89SAPS    HB 8564   0.534   2.309  10.551  0.3406  1.6024 -2.8173
   89SAPS    C2 8565   0.494   2.507  10.512 -0.9091 -0.0825  0.7814
   89SAPS    HS 8566   0.474   2.595  10.577  1.3170  0.1303  1.2507
   89SAPS   O21 8567   0.383   2.475  10.430 -0.5041 -0.2255 -0.0199
   89SAPS   C21 8568   0.312   2.578  10.394  0.4085 -0.3754 -0.4262
   89SAPS   O22 8569   0.320   2.693  10.442  0.3422  0.4197  0.2231
   89SAPS   C22 8570   0.210   2.521  10.299 -0.3899 -0.5260  0.2358
   89SAPS   H2R 8571   0.228   2.412  10.285  1.6163 -0.3642  1.1680
   89SAPS   H2S 8572   0.105   2.528  10.336 -0.6443 -0.5531 -0.4587
   89SAPS    C3 8573   0.629   2.528  10.434  0.4771  0.3502  0.2214
   89SAPS    HX 8574   0.642   2.439  10.368  0.2524  3.1245 -3.9873
   89SAPS    HY 8575   0.700   2.528  10.520 -1.5926 -2.4856  2.1161
   89SAPS   O31 8576   0.621   2.644  10.350  0.2818 -0.6052 -0.1185
   89SAPS   C31 8577   0.627   2.756  10.419 -0.1750 -0.0194 -0.8936
   89SAPS   O32 8578   0.647   2.758  10.540  0.3288  0.3710  0.4556
   89SAPS   C32 8579   0.623   2.873  10.328  0.1240  0.1301 -0.6258
   89SAPS   H2X 8580   0.723   2.882  10.281  0.1124 -1.3940 -0.9840
   89SAPS   H2Y 8581   0.582   2.959  10.386  2.2698  0.8595 -0.1020
   89SAPS   C23 8582   0.190   2.594  10.161 -0.3984  0.1340 -0.2226
   89SAPS   H3R 8583   0.127   2.541  10.087  1.1752  1.0647 -2.3120
   89SAPS   H3S 8584   0.289   2.605  10.112 -0.7026 -0.4416 -0.9764
   89SAPS   C24 8585   0.126   2.729  10.178  1.2173  0.3160 -0.3795
   89SAPS   H4R 8586   0.156   2.775  10.081  0.2703  1.2362 -0.2500
   89SAPS   H4S 8587   0.172   2.782  10.264 -0.5833 -0.6520  1.2545
   89SAPS   C25 8588  -0.024   2.726  10.203  0.3904  0.1788 -0.5276
   89SAPS   H5R 8589  -0.062   2.729  10.306 -2.6725  0.7273 -1.5659
   89SAPS   C26 8590  -0.123   2.708  10.112  0.6374 -0.1085  0.2728
   89SAPS   H6R 8591  -0.230   2.708  10.137  0.4801 -0.3664 -0.3816
   89SAPS   C27 8592  -0.106   2.667   9.969  0.2783  0.1613 -0.0222
   89SAPS   H7R 8593  -0.138   2.560   9.969 -1.2940  0.5956  0.5484
   89SAPS   H7S 8594   0.004   2.662   9.953  0.2667  1.1759 -0.4896
   89SAPS   C28 8595  -0.176   2.741   9.856 -1.4448 -0.5133 -0.9122
   89SAPS   H8R 8596  -0.247   2.821   9.883  1.1237  0.9068  2.3989
   89SAPS   C29 8597  -0.153   2.733   9.720  0.6976  0.0227 -0.2801
   89SAPS   H9R 8598  -0.196   2.808   9.651 -1.9242 -0.1089  1.1000
   89SAPS  C210 8599  -0.052   2.644   9.655  0.1613  0.0100  0.5209
   89SAPS  H10R 8600  -0.105   2.599   9.568 -0.2357 -1.4018  1.4628
   89SAPS  H10S 8601  -0.016   2.553   9.709 -0.4954  0.1545  1.2109
   89SAPS  C211 8602   0.072   2.722   9.615  0.1562  0.0012  0.4954
   89SAPS  H11R 8603   0.117   2.795   9.684  0.3555  2.2260 -1.8535
   89SAPS  C212 8604   0.127   2.717   9.496  0.2907  0.1402  0.0028
   89SAPS  H12R 8605   0.216   2.778   9.472 -0.6334  0.6061 -2.4377
   89SAPS  C213 8606   0.076   2.642   9.374 -0.3826 -0.4821 -0.2572
   89SAPS  H13R 8607   0.075   2.709   9.286 -2.4963 -1.6348 -1.1643
   89SAPS  H13S 8608  -0.028   2.603   9.379 -0.2799 -1.0621 -2.0404
   89SAPS  C214 8609   0.172   2.527   9.355  0.6797 -0.2089  0.5195
   89SAPS  H14R 8610   0.174   2.464   9.445  1.0341  1.2562  1.5723
   89SAPS  C215 8611   0.261   2.505   9.252  0.1149 -0.2307 -0.3484
   89SAPS  H15R 8612   0.338   2.427   9.263  0.4571  0.1204 -0.2416
   89SAPS  C216 8613   0.279   2.586   9.119  0.0361  0.6076 -0.5522
   89SAPS  H16R 8614   0.381   2.620   9.092  0.5867 -0.3370  0.2646
   89SAPS  H16S 8615   0.223   2.681   9.131 -2.1385 -0.6191 -0.4622
   89SAPS  C217 8616   0.230   2.501   9.008 -0.3202 -0.2815 -0.2816
   89SAPS  H17R 8617   0.243   2.562   8.916  0.5899  0.8606  0.5732
   89SAPS  H17S 8618   0.123   2.474   9.021 -0.0260 -0.1942  2.9526
   89SAPS  C218 8619   0.323   2.378   8.984  0.1268 -0.4255 -0.3657
   89SAPS  H18R 8620   0.292   2.300   9.056  0.7002 -0.7309 -0.4435
   89SAPS  H18S 8621   0.430   2.408   8.995 -0.0612  0.8737 -1.6819
   89SAPS  C219 8622   0.302   2.321   8.847  0.3982  0.1138  0.1053
   89SAPS  H19R 8623   0.322   2.402   8.774  1.6139 -1.5167 -1.4642
   89SAPS  H19S 8624   0.199   2.280   8.844  0.4315 -0.1768  1.7528
   89SAPS  C220 8625   0.401   2.217   8.793 -0.1464 -0.3500 -0.1884
   89SAPS  H20R 8626   0.498   2.268   8.773 -0.6954  0.5037 -0.7055
   89SAPS  H20S 8627   0.371   2.173   8.696 -1.1335 -1.5819  0.6497
   89SAPS  H20T 8628   0.425   2.138   8.868  2.4293  0.7958  0.3229
   89SAPS   C33 8629   0.521   2.859  10.215 -0.0103 -0.0083 -0.5535
   89SAPS   H3X 8630   0.419   2.871  10.257  0.7497 -0.9891  1.7343
   89SAPS   H3Y 8631   0.531   2.760  10.166  0.1560 -1.6917  2.5714
   89SAPS   C34 8632   0.544   2.969  10.113  0.0521 -0.1189  0.4133
   89SAPS   H4X 8633   0.653   2.988  10.097  0.2556  0.2907  2.0657
   89SAPS   H4Y 8634   0.508   3.061  10.164  0.5478 -0.1304  0.7868
   89SAPS   C35 8635   0.465   2.951   9.982  0.1770 -0.5074 -0.2718
   89SAPS   H5X 8636   0.364   2.996   9.989 -0.2099 -1.4219  0.1896
   89SAPS   H5Y 8637   0.445   2.845   9.956  0.5044 -0.1841 -1.9900
   89SAPS   C36 8638   0.520   3.020   9.853  0.2498  0.1765  0.5334
   89SAPS   H6X 8639   0.623   2.983   9.834 -0.1998  0.0639 -2.1860
   89SAPS   H6Y 8640   0.534   3.128   9.873  1.2707 -0.3477  3.0928
   89SAPS   C37 8641   0.433   2.986   9.732 -0.1646 -0.5107  0.0731
   89SAPS   H7X 8642   0.349   3.059   9.735 -0.0230 -0.1844 -2.0565
   89SAPS   H7Y 8643   0.389   2.886   9.752 -0.7981 -1.0014 -3.1613
   89SAPS   C38 8644   0.513   2.979   9.605  0.2557  0.1748  0.7505
   89SAPS   H8X 8645   0.598   2.908   9.620 -1.0358 -1.3605  1.0743
   89SAPS   H8Y 8646   0.562   3.076   9.581  0.6692 -0.5104 -1.4415
   89SAPS   C39 8647   0.442   2.935   9.470 -0.8017  0.5154  0.3117
   89SAPS   H9X 8648   0.354   3.003   9.461 -0.3206  0.9856 -1.2173
   89SAPS   H9Y 8649   0.414   2.828   9.480 -1.8515  0.6090 -1.2101
   89SAPS  C310 8650   0.536   2.970   9.342 -0.1738  0.3984 -0.0556
   89SAPS  H10X 8651   0.634   2.921   9.359 -0.9962 -1.4574 -0.3844
   89SAPS  H10Y 8652   0.560   3.079   9.340 -0.5474  0.4923  0.4201
   89SAPS  C311 8653   0.477   2.925   9.209  0.1433 -0.8608  0.0826
   89SAPS  H11X 8654   0.395   2.991   9.175  0.7898 -0.2047 -0.2159
   89SAPS  H11Y 8655   0.419   2.834   9.236 -2.1203  0.1280 -1.1415
   89SAPS  C312 8656   0.572   2.899   9.091 -0.6125 -0.6889 -0.1092
   89SAPS  H12X 8657   0.513   2.884   8.998 -0.1598  1.9079 -0.9105
   89SAPS  H12Y 8658   0.643   2.817   9.114  1.0683  0.3864 -1.2054
   89SAPS  C313 8659   0.671   3.021   9.066 -0.7533 -1.1298 -0.4052
   89SAPS  H13X 8660   0.743   3.038   9.148 -0.8934 -1.6382 -0.1766
   89SAPS  H13Y 8661   0.611   3.114   9.053 -0.3595 -0.7088  0.7134
   89SAPS  C314 8662   0.754   3.002   8.933  0.6508  0.1958 -0.2062
   89SAPS  H14X 8663   0.784   2.896   8.925  0.1899  0.1916 -3.0739
   89SAPS  H14Y 8664   0.852   3.054   8.941  1.0782 -0.1554 -2.5139
   89SAPS  C315 8665   0.680   3.049   8.809  0.5965  0.1465 -0.8023
   89SAPS  H15X 8666   0.652   3.157   8.812 -1.5554 -0.3352 -1.8325
   89SAPS  H15Y 8667   0.589   2.986   8.805 -0.0889  0.8382  2.1713
   89SAPS  C316 8668   0.753   3.027   8.680 -0.5140 -0.2264  0.0768
   89SAPS  H16X 8669   0.850   3.082   8.681 -1.6369  1.9153  1.9487
   89SAPS  H16Y 8670   0.700   3.069   8.592  1.3776  0.4784 -0.7860
   89SAPS  C317 8671   0.776   2.879   8.651  0.5287 -0.1477 -0.1671
   89SAPS  H17X 8672   0.685   2.819   8.673  0.4166  0.6105  1.5977
   89SAPS  H17Y 8673   0.862   2.849   8.714  0.0329  0.9272  1.0569
   89SAPS  C318 8674   0.803   2.849   8.503 -0.1523  0.1893  1.1677
   89SAPS  H18X 8675   0.886   2.913   8.468 -3.5130  2.7848 -3.1337
   89SAPS  H18Y 8676   0.713   2.869   8.440  0.3939  0.2606  0.4012
   89SAPS  H18Z 8677   0.835   2.744   8.488 -1.5090 -0.1615  0.5569
   90SAPS     N 8678   2.676   2.201  10.962  0.0464  0.1153  1.0046
   90SAPS   HN1 8679   2.634   2.105  10.958 -2.5885  1.0891  2.4280
   90SAPS   HN2 8680   2.685   2.217  11.065 -1.7357  1.2313  1.0271
   90SAPS   HN3 8681   2.606   2.271  10.929  0.8621  0.7851  0.6775
   90SAPS   C12 8682   2.802   2.198  10.879 -0.1031  0.3484 -0.1016
   90SAPS  H12A 8683   2.871   2.272  10.917 -0.8379  1.8842 -1.6099
   90SAPS   C13 8684   2.880   2.061  10.874  0.4571  0.1203  0.3861
   90SAPS  O13A 8685   2.843   1.961  10.945  0.6138 -0.1013  0.2502
   90SAPS  O13B 8686   2.996   2.059  10.818 -0.0156  0.0308 -0.2316
   90SAPS   C11 8687   2.773   2.245  10.735 -0.0649 -0.1272 -0.2881
   90SAPS  H11A 8688   2.712   2.171  10.681 -1.8227  1.1589 -0.1577
   90SAPS  H11B 8689   2.871   2.258  10.685  1.0510  0.6848  1.9661
   90SAPS     P 8690   2.627   2.413  10.598  0.0670 -0.2813 -0.1358
   90SAPS   O13 8691   2.523   2.313  10.558  0.1436 -0.2856 -0.4913
   90SAPS   O14 8692   2.587   2.557  10.620  0.3808  0.2269 -0.7209
   90SAPS   O12 8693   2.707   2.372  10.729 -0.0204  0.1837 -0.0315
   90SAPS   O11 8694   2.728   2.424  10.475  0.3761  0.9000  0.2088
   90SAPS    C1 8695   2.787   2.311  10.408  0.6550 -0.7778 -0.2488
   90SAPS    HA 8696   2.897   2.304  10.427  1.1674  0.3243 -2.5009
   90SAPS    HB 8697   2.749   2.214  10.448 -0.7004  0.0770  0.6075
   90SAPS    C2 8698   2.763   2.315  10.250 -0.6109 -0.8325  1.0324
   90SAPS    HS 8699   2.805   2.220  10.211 -0.3156 -0.6329  0.8643
   90SAPS   O21 8700   2.802   2.442  10.193 -0.1107  0.1715 -0.6657
   90SAPS   C21 8701   2.900   2.430  10.101  0.1216  0.5850 -0.1029
   90SAPS   O22 8702   2.952   2.327  10.065 -0.4845 -0.1085 -0.5910
   90SAPS   C22 8703   2.933   2.568  10.046 -0.5181  0.2092  0.5423
   90SAPS   H2R 8704   2.852   2.643  10.058 -0.8844 -0.3616  1.8019
   90SAPS   H2S 8705   2.996   2.609  10.127  2.9615 -0.7683 -1.4459
   90SAPS    C3 8706   2.611   2.299  10.225  0.0628  0.3493 -0.1735
   90SAPS    HX 8707   2.558   2.371  10.291 -0.4170  0.3017 -0.5030
   90SAPS    HY 8708   2.586   2.198  10.264  1.2302  0.2862  0.4676
   90SAPS   O31 8709   2.572   2.307  10.090 -0.7250  0.0271  0.2350
   90SAPS   C31 8710   2.443   2.343  10.073  0.1153  0.0563  0.0221
   90SAPS   O32 8711   2.357   2.342  10.160  0.4207  0.1998  0.3169
   90SAPS   C32 8712   2.413   2.382   9.922  0.0541  0.2212  0.2532
   90SAPS   H2X 8713   2.326   2.319   9.892  0.2821 -1.4759  2.8142
   90SAPS   H2Y 8714   2.504   2.356   9.863 -1.0436  0.0532 -1.4327
   90SAPS   C23 8715   3.007   2.565   9.915 -0.4886 -0.7182  0.1649
   90SAPS   H3R 8716   3.082   2.485   9.896  0.9719  0.8292 -0.8007
   90SAPS   H3S 8717   3.068   2.657   9.904  1.4305 -1.9568  0.0598
   90SAPS   C24 8718   2.921   2.558   9.785  0.5838  0.3483  0.7317
   90SAPS   H4R 8719   2.885   2.454   9.769 -0.0878  0.7274 -0.3646
   90SAPS   H4S 8720   3.001   2.570   9.708 -1.4102 -2.5884 -2.0651
   90SAPS   C25 8721   2.809   2.655   9.762  0.1551 -0.1484  0.1069
   90SAPS   H5R 8722   2.739   2.660   9.846  0.4703  2.7086  0.2891
   90SAPS   C26 8723   2.780   2.729   9.656 -0.7115  0.4024 -0.4678
   90SAPS   H6R 8724   2.693   2.796   9.666  0.3466  1.6750  0.7468
   90SAPS   C27 8725   2.856   2.749   9.521  0.0321 -0.3288 -0.6965
   90SAPS   H7R 8726   2.960   2.777   9.547 -1.2193  2.6667  1.7738
   90SAPS   H7S 8727   2.815   2.838   9.469  1.4905  0.1293 -1.1160
   90SAPS   C28 8728   2.854   2.635   9.419 -0.2362  0.0182 -0.1070
   90SAPS   H8R 8729   2.954   2.596   9.396 -0.1319  1.1161 -1.6243
   90SAPS   C29 8730   2.754   2.564   9.375 -0.9282  0.0002  0.2497
   90SAPS   H9R 8731   2.780   2.487   9.300  1.1189 -1.3112  2.1541
   90SAPS  C210 8732   2.608   2.585   9.415  0.4518  0.1872 -0.9585
   90SAPS  H10R 8733   2.550   2.648   9.344  0.2524  0.3508 -0.6573
   90SAPS  H10S 8734   2.598   2.644   9.509  2.5124  0.1575 -0.6735
   90SAPS  C211 8735   2.546   2.455   9.450  0.2087 -0.1425  0.2296
   90SAPS  H11R 8736   2.609   2.382   9.503  0.0769 -0.8676 -0.5737
   90SAPS  C212 8737   2.419   2.426   9.423  0.1484 -0.7614  0.8445
   90SAPS  H12R 8738   2.391   2.322   9.446 -1.2687 -0.6556 -0.2908
   90SAPS  C213 8739   2.311   2.508   9.355  0.1497 -0.3656 -0.4845
   90SAPS  H13R 8740   2.363   2.589   9.300 -0.8468  2.2158  2.0862
   90SAPS  H13S 8741   2.246   2.558   9.431 -0.5144 -1.2647 -0.4505
   90SAPS  C214 8742   2.221   2.428   9.268 -0.5255  0.4737 -0.4007
   90SAPS  H14R 8743   2.127   2.404   9.319  0.5550  0.7559  1.8381
   90SAPS  C215 8744   2.250   2.388   9.140 -0.5587 -0.5404 -0.1168
   90SAPS  H15R 8745   2.176   2.322   9.092  1.4088 -3.4029  0.4993
   90SAPS  C216 8746   2.376   2.425   9.072 -0.4606  0.3114  0.0499
   90SAPS  H16R 8747   2.458   2.452   9.142  0.2630 -1.2819 -0.1558
   90SAPS  H16S 8748   2.353   2.505   8.999 -0.7855  0.4571  0.3089
   90SAPS  C217 8749   2.427   2.293   8.991  0.2638  0.1591  0.3201
   90SAPS  H17R 8750   2.356   2.266   8.910  2.0023  0.8002 -1.5275
   90SAPS  H17S 8751   2.444   2.204   9.055  1.3037 -0.7199 -1.1058
   90SAPS  C218 8752   2.553   2.331   8.917  0.4667  0.1639 -0.0556
   90SAPS  H18R 8753   2.626   2.372   8.990 -0.1684  0.4844  0.4114
   90SAPS  H18S 8754   2.533   2.415   8.847  0.9672  0.3675  0.0361
   90SAPS  C219 8755   2.615   2.205   8.858  0.1128 -0.6690 -0.9140
   90SAPS  H19R 8756   2.534   2.170   8.790 -0.4266 -0.3280 -0.4592
   90SAPS  H19S 8757   2.623   2.125   8.934  0.5027  1.8597  1.9094
   90SAPS  C220 8758   2.744   2.211   8.775  0.9931  0.0953  0.3060
   90SAPS  H20R 8759   2.829   2.195   8.844 -0.7072  0.1820  2.5232
   90SAPS  H20S 8760   2.772   2.305   8.723 -0.6391  0.4737  0.0545
   90SAPS  H20T 8761   2.751   2.125   8.704  1.7749 -0.3484  0.9050
   90SAPS   C33 8762   2.378   2.534   9.914 -0.0202  0.2161  0.8522
   90SAPS   H3X 8763   2.463   2.603   9.933  1.2638 -0.4505 -2.0264
   90SAPS   H3Y 8764   2.296   2.564   9.982  1.6589  2.0556  2.1748
   90SAPS   C34 8765   2.321   2.564   9.776  0.5422  0.7896 -0.1825
   90SAPS   H4X 8766   2.216   2.529   9.775  0.6465  0.2271  2.3289
   90SAPS   H4Y 8767   2.378   2.509   9.698  1.3944 -2.2615  2.3753
   90SAPS   C35 8768   2.325   2.719   9.752  0.0281 -0.2913  0.4677
   90SAPS   H5X 8769   2.424   2.764   9.777  0.4189  0.9519 -2.7853
   90SAPS   H5Y 8770   2.262   2.762   9.833 -1.9108 -0.4165 -0.8982
   90SAPS   C36 8771   2.276   2.770   9.620  0.1172  0.6210  0.1185
   90SAPS   H6X 8772   2.172   2.733   9.605  0.3058  0.0549  0.1715
   90SAPS   H6Y 8773   2.343   2.735   9.539 -0.2715 -0.4755  0.2565
   90SAPS   C37 8774   2.267   2.922   9.606  0.3906 -0.4103 -0.4159
   90SAPS   H7X 8775   2.218   2.962   9.698 -0.2806  2.2123 -1.8179
   90SAPS   H7Y 8776   2.189   2.943   9.530 -0.0848  0.4457  0.2877
   90SAPS   C38 8777   2.391   3.001   9.584 -0.5208 -0.2843 -0.2240
   90SAPS   H8X 8778   2.454   2.937   9.518  0.3855 -0.1276  0.4638
   90SAPS   H8Y 8779   2.445   3.007   9.681  0.7462 -0.8939 -0.8520
   90SAPS   C39 8780   2.379   3.140   9.519 -0.6791 -0.5700  0.2341
   90SAPS   H9X 8781   2.426   3.213   9.588 -0.7168 -1.7246  1.5317
   90SAPS   H9Y 8782   2.272   3.170   9.519 -0.6667 -0.4888 -1.0299
   90SAPS  C310 8783   2.428   3.155   9.367 -0.1340  0.2768 -0.6991
   90SAPS  H10X 8784   2.394   3.065   9.310 -0.1025 -1.0939  1.3634
   90SAPS  H10Y 8785   2.539   3.151   9.371 -0.1176 -0.0022 -1.2323
   90SAPS  C311 8786   2.378   3.273   9.293 -0.1356 -0.8357  0.3549
   90SAPS  H11X 8787   2.410   3.358   9.357 -1.3578 -1.6314  2.1246
   90SAPS  H11Y 8788   2.267   3.275   9.291 -0.1368 -0.7868  0.4716
   90SAPS  C312 8789   2.440   3.296   9.154 -0.7390 -0.2299 -0.2238
   90SAPS  H12X 8790   2.416   3.214   9.083 -1.1763 -1.1378  0.9393
   90SAPS  H12Y 8791   2.550   3.294   9.171 -0.9043  0.9586  1.1341
   90SAPS  C313 8792   2.402   3.436   9.091  0.0010  0.7427  0.1864
   90SAPS  H13X 8793   2.414   3.512   9.171  1.4723  0.4311  0.2771
   90SAPS  H13Y 8794   2.300   3.428   9.048  0.8413 -0.7742 -1.6695
   90SAPS  C314 8795   2.492   3.467   8.976 -0.3472 -0.4639 -0.3000
   90SAPS  H14X 8796   2.472   3.394   8.895 -2.8902 -2.8378  2.2425
   90SAPS  H14Y 8797   2.598   3.467   9.010 -0.2521  0.6179 -0.5522
   90SAPS  C315 8798   2.473   3.610   8.912 -0.8063  0.6452  0.4971
   90SAPS  H15X 8799   2.542   3.619   8.826 -1.9948  2.2517 -0.3462
   90SAPS  H15Y 8800   2.488   3.683   8.996  0.5320  1.4572 -0.3931
   90SAPS  C316 8801   2.332   3.630   8.853  0.4398  0.2199 -0.5718
   90SAPS  H16X 8802   2.315   3.740   8.853 -0.1713  0.1420 -1.4838
   90SAPS  H16Y 8803   2.260   3.584   8.924  2.2020 -2.6137 -0.4945
   90SAPS  C317 8804   2.316   3.573   8.711  0.1477  0.0408  0.0541
   90SAPS  H17X 8805   2.321   3.463   8.721  2.1259  0.0488 -0.5364
   90SAPS  H17Y 8806   2.398   3.625   8.656 -0.0319 -0.2653 -0.5073
   90SAPS  C318 8807   2.186   3.618   8.643 -0.2979 -0.1250  0.5759
   90SAPS  H18X 8808   2.169   3.728   8.638  1.6083  0.1468 -1.0637
   90SAPS  H18Y 8809   2.102   3.586   8.708 -0.8722 -0.9588 -0.5432
   90SAPS  H18Z 8810   2.188   3.573   8.541  0.5068 -2.1026  1.4251
   91SAPS     N 8811   4.229   6.383   6.162 -0.3539 -0.4257 -0.1677
   91SAPS   HN1 8812   4.169   6.402   6.244 -0.4585 -0.3587 -0.2585
   91SAPS   HN2 8813   4.173   6.314   6.108 -0.7427  1.1009 -1.8023
   91SAPS   HN3 8814   4.319   6.343   6.194 -1.0801 -1.1093  1.0951
   91SAPS   C12 8815   4.251   6.510   6.090 -0.5518  0.2794 -1.0448
   91SAPS  H12A 8816   4.291   6.564   6.175 -0.3443 -0.5215 -0.6306
   91SAPS   C13 8817   4.342   6.501   5.968  0.0659 -0.4564 -0.1854
   91SAPS  O13A 8818   4.391   6.393   5.943 -0.2566  0.4818  0.8471
   91SAPS  O13B 8819   4.349   6.599   5.889 -0.2337 -0.1085  0.4659
   91SAPS   C11 8820   4.119   6.574   6.050  0.0575 -0.1541 -0.2834
   91SAPS  H11A 8821   4.069   6.500   5.984  0.4700 -0.4132 -0.3130
   91SAPS  H11B 8822   4.134   6.671   5.997 -1.6794  2.0593  2.8821
   91SAPS     P 8823   3.900   6.676   6.137 -0.1284 -0.0431  0.0934
   91SAPS   O13 8824   3.842   6.642   6.012  0.0105  0.0038 -0.3144
   91SAPS   O14 8825   3.814   6.672   6.255  0.7286 -0.3703 -0.3652
   91SAPS   O12 8826   4.032   6.591   6.160  0.4078 -0.4271  0.0185
   91SAPS   O11 8827   3.955   6.831   6.126 -0.9796 -0.1674 -0.6251
   91SAPS    C1 8828   4.061   6.882   6.211 -0.4080  0.6129  0.5324
   91SAPS    HA 8829   4.123   6.796   6.245  2.0717  1.8643 -0.5751
   91SAPS    HB 8830   4.124   6.953   6.153  0.2141  0.5888  1.1588
   91SAPS    C2 8831   4.013   6.955   6.337  0.4320  0.5324  0.8342
   91SAPS    HS 8832   3.934   6.885   6.374 -0.1182  0.7118  0.0240
   91SAPS   O21 8833   3.954   7.085   6.309  0.0947 -0.2716  0.6668
   91SAPS   C21 8834   3.881   7.123   6.413  1.0788 -0.3307  0.3406
   91SAPS   O22 8835   3.822   7.050   6.490 -0.5138 -0.2446  0.0990
   91SAPS   C22 8836   3.874   7.278   6.405  0.6539  0.1849 -1.0062
   91SAPS   H2R 8837   3.975   7.312   6.373  1.2844  0.2990  0.9667
   91SAPS   H2S 8838   3.798   7.301   6.327  0.2583  1.7835 -0.1904
   91SAPS    C3 8839   4.127   6.965   6.445  0.2902 -0.0600 -0.0480
   91SAPS    HX 8840   4.202   7.029   6.395  0.1149 -0.4189 -0.8069
   91SAPS    HY 8841   4.188   6.872   6.456  1.6422  1.0064  1.8790
   91SAPS   O31 8842   4.088   7.016   6.573  0.0431 -0.3000 -0.1827
   91SAPS   C31 8843   4.053   6.926   6.663 -0.4854  0.4546 -0.6006
   91SAPS   O32 8844   4.073   6.809   6.666  0.2917  0.8017 -0.3480
   91SAPS   C32 8845   3.986   6.992   6.779 -0.0279 -0.6002  0.4569
   91SAPS   H2X 8846   3.893   7.044   6.747 -0.3292 -2.3933 -1.8255
   91SAPS   H2Y 8847   4.046   7.074   6.824 -0.4775 -0.0753  0.1113
   91SAPS   C23 8848   3.842   7.358   6.535 -0.4908 -0.3523  0.3046
   91SAPS   H3R 8849   3.841   7.469   6.527  2.2003  0.1929  4.4294
   91SAPS   H3S 8850   3.932   7.335   6.596  1.4440 -0.9138 -2.5751
   91SAPS   C24 8851   3.703   7.326   6.598 -0.4209 -0.7050 -0.1045
   91SAPS   H4R 8852   3.705   7.221   6.632 -2.0588 -1.3938 -1.9283
   91SAPS   H4S 8853   3.612   7.327   6.534 -1.0300  1.1386  0.6824
   91SAPS   C25 8854   3.679   7.423   6.714 -0.3753 -0.4619  0.3801
   91SAPS   H5R 8855   3.653   7.526   6.685 -1.9115 -0.9689 -0.1450
   91SAPS   C26 8856   3.682   7.399   6.848 -0.4792 -0.0694 -0.1215
   91SAPS   H6R 8857   3.651   7.481   6.915 -1.3191 -0.1124 -0.4500
   91SAPS   C27 8858   3.722   7.271   6.911 -0.3577  0.5223 -0.2860
   91SAPS   H7R 8859   3.789   7.287   6.999  0.1750 -0.6429 -0.4551
   91SAPS   H7S 8860   3.788   7.214   6.842 -2.2754  0.5728 -2.2340
   91SAPS   C28 8861   3.590   7.191   6.922 -0.1764 -0.0590 -0.0232
   91SAPS   H8R 8862   3.537   7.177   6.827  2.0309 -1.6770 -1.1243
   91SAPS   C29 8863   3.532   7.144   7.034  0.3468 -0.5899  0.6158
   91SAPS   H9R 8864   3.432   7.099   7.020 -0.2771  1.0140 -0.3390
   91SAPS  C210 8865   3.586   7.144   7.172  0.0954 -0.5454 -0.8380
   91SAPS  H10R 8866   3.693   7.173   7.180  0.5317 -2.1074 -0.6583
   91SAPS  H10S 8867   3.588   7.046   7.224  0.7283  0.5349  1.2840
   91SAPS  C211 8868   3.502   7.252   7.245  0.0077  1.1544 -0.3359
   91SAPS  H11R 8869   3.441   7.325   7.189 -1.0835  1.6786  1.4580
   91SAPS  C212 8870   3.499   7.269   7.379 -0.0726  0.8503 -0.1036
   91SAPS  H12R 8871   3.430   7.341   7.424 -0.8526 -0.4299  0.8148
   91SAPS  C213 8872   3.581   7.187   7.479  0.5219 -0.6354  0.3420
   91SAPS  H13R 8873   3.676   7.245   7.490  0.0136  0.2677  0.0811
   91SAPS  H13S 8874   3.615   7.093   7.432 -2.0524 -0.9780 -1.0138
   91SAPS  C214 8875   3.509   7.162   7.612 -0.8316 -0.3219  0.0820
   91SAPS  H14R 8876   3.403   7.132   7.607 -0.7579 -0.5331 -0.2402
   91SAPS  C215 8877   3.548   7.158   7.742  0.1860  0.4117  0.2979
   91SAPS  H15R 8878   3.475   7.109   7.808  0.7331  0.6316  1.0840
   91SAPS  C216 8879   3.687   7.181   7.803  1.0420  0.0815  0.2858
   91SAPS  H16R 8880   3.757   7.143   7.725 -1.2141 -2.4640 -0.6297
   91SAPS  H16S 8881   3.702   7.111   7.887 -1.9999 -0.1546  0.7462
   91SAPS  C217 8882   3.718   7.330   7.828 -0.1754  0.0012 -0.0696
   91SAPS  H17R 8883   3.697   7.403   7.747 -0.3187  1.2752  1.0749
   91SAPS  H17S 8884   3.826   7.336   7.853  0.1931  0.7395 -1.6966
   91SAPS  C218 8885   3.641   7.386   7.951 -0.1444  1.0762 -0.6707
   91SAPS  H18R 8886   3.646   7.319   8.039 -1.5303  2.6359  0.6552
   91SAPS  H18S 8887   3.533   7.392   7.925 -0.7601  0.1885  1.4375
   91SAPS  C219 8888   3.692   7.518   8.002 -0.4515 -0.3728  0.1362
   91SAPS  H19R 8889   3.666   7.596   7.927  1.5129 -0.3458 -0.5627
   91SAPS  H19S 8890   3.803   7.519   8.000 -0.4498 -0.4469  0.1888
   91SAPS  C220 8891   3.636   7.554   8.146  0.2052 -0.1646  0.2279
   91SAPS  H20R 8892   3.679   7.486   8.223 -1.1345  0.1914  1.3303
   91SAPS  H20S 8893   3.525   7.544   8.145  0.2862 -1.2305 -0.6543
   91SAPS  H20T 8894   3.644   7.662   8.170 -1.4122 -0.4618  2.4359
   91SAPS   C33 8895   3.953   6.895   6.893 -0.3440 -0.7004 -0.1166
   91SAPS   H3X 8896   4.034   6.821   6.912  1.2865  1.0458  0.0783
   91SAPS   H3Y 8897   3.865   6.830   6.874 -1.6349  0.8691  0.2810
   91SAPS   C34 8898   3.927   6.958   7.031  0.2012  0.1461 -0.1496
   91SAPS   H4X 8899   3.838   7.025   7.024  0.1002  0.2924  2.0616
   91SAPS   H4Y 8900   4.004   7.030   7.064 -2.1440  2.4933  0.6188
   91SAPS   C35 8901   3.906   6.857   7.148  0.0778 -0.8815  0.4496
   91SAPS   H5X 8902   4.007   6.812   7.137  1.0202  0.8945  1.4950
   91SAPS   H5Y 8903   3.826   6.781   7.133  0.2639 -0.7505 -1.4541
   91SAPS   C36 8904   3.885   6.925   7.283  0.2662 -0.1253 -0.4291
   91SAPS   H6X 8905   3.789   6.981   7.281  1.1135  1.3303 -2.3349
   91SAPS   H6Y 8906   3.968   6.994   7.310 -0.0015  0.0555 -0.0614
   91SAPS   C37 8907   3.885   6.830   7.404  0.0760  0.4297  0.4939
   91SAPS   H7X 8908   3.978   6.772   7.391  0.0115  0.2532  0.8198
   91SAPS   H7Y 8909   3.794   6.766   7.398 -0.2058  0.8295  0.4140
   91SAPS   C38 8910   3.880   6.900   7.534  0.5637 -0.8205  0.5216
   91SAPS   H8X 8911   3.792   6.967   7.548 -1.0770 -3.0084  1.2855
   91SAPS   H8Y 8912   3.970   6.964   7.540 -0.3129  0.5718 -0.5212
   91SAPS   C39 8913   3.881   6.796   7.648 -0.0991  0.5850 -0.5384
   91SAPS   H9X 8914   3.974   6.734   7.645  0.9047  2.0102  0.0682
   91SAPS   H9Y 8915   3.795   6.726   7.655  0.6036 -0.1056  4.1123
   91SAPS  C310 8916   3.896   6.867   7.776  0.0813  0.3607 -0.2146
   91SAPS  H10X 8917   3.816   6.936   7.811  1.2859  0.7459  1.9619
   91SAPS  H10Y 8918   3.998   6.910   7.772  0.5256 -0.6668 -0.2033
   91SAPS  C311 8919   3.899   6.760   7.880  0.2901  0.6433 -0.2193
   91SAPS  H11X 8920   3.988   6.696   7.864  0.0985  0.6236 -1.2721
   91SAPS  H11Y 8921   3.817   6.688   7.861 -0.9046  1.2721  2.0971
   91SAPS  C312 8922   3.866   6.821   8.021 -0.5574  0.2450  0.0631
   91SAPS  H12X 8923   3.921   6.918   8.021 -0.2187  0.0829  2.2034
   91SAPS  H12Y 8924   3.908   6.757   8.101  0.0878  1.6615  0.8927
   91SAPS  C313 8925   3.714   6.832   8.044 -0.7783 -0.0937 -0.3936
   91SAPS  H13X 8926   3.652   6.744   8.071 -1.9937 -0.0931 -2.8520
   91SAPS  H13Y 8927   3.665   6.870   7.952 -0.0855  0.2776 -0.6173
   91SAPS  C314 8928   3.680   6.940   8.143  0.2210  0.0538 -0.3223
   91SAPS  H14X 8929   3.713   7.037   8.099  0.3904 -0.6767 -1.8941
   91SAPS  H14Y 8930   3.737   6.929   8.237  2.7833 -0.2630 -1.8242
   91SAPS  C315 8931   3.530   6.939   8.182  0.8513  0.4360 -0.2816
   91SAPS  H15X 8932   3.508   6.849   8.243  1.3336  0.3423 -0.2474
   91SAPS  H15Y 8933   3.456   6.936   8.099  0.3030  3.2710 -0.0015
   91SAPS  C316 8934   3.492   7.068   8.263  0.2623  0.4989 -0.3109
   91SAPS  H16X 8935   3.532   7.155   8.207 -0.4865  0.8639 -0.3023
   91SAPS  H16Y 8936   3.540   7.073   8.363  0.9685  3.7025 -0.7098
   91SAPS  C317 8937   3.342   7.054   8.286  0.7661  0.3714  0.4974
   91SAPS  H17X 8938   3.311   6.958   8.332 -1.7339  0.8913  0.0114
   91SAPS  H17Y 8939   3.288   7.038   8.190  3.2644  0.8342 -1.0788
   91SAPS  C318 8940   3.282   7.167   8.371  0.1885  0.1138  0.4600
   91SAPS  H18X 8941   3.341   7.257   8.344  1.1838 -0.4781  0.5954
   91SAPS  H18Y 8942   3.300   7.136   8.476 -0.0086 -2.8423 -0.2955
   91SAPS  H18Z 8943   3.172   7.176   8.356 -0.0353 -0.2614  1.7219
   92SAPS     N 8944   2.057   5.496   6.460  0.8389 -1.2732 -0.4266
   92SAPS   HN1 8945   1.967   5.544   6.439  1.1353  0.1348  1.3385
   92SAPS   HN2 8946   2.055   5.392   6.449  0.4486 -1.2200 -0.8601
   92SAPS   HN3 8947   2.078   5.532   6.555 -2.9077  3.1244 -0.9254
   92SAPS   C12 8948   2.162   5.539   6.369  0.1513 -0.0162 -0.1636
   92SAPS  H12A 8949   2.127   5.507   6.272  0.5328  1.4219 -0.8048
   92SAPS   C13 8950   2.179   5.699   6.372  0.1417  0.4772  0.6253
   92SAPS  O13A 8951   2.105   5.767   6.449  0.1314 -0.2387 -0.2413
   92SAPS  O13B 8952   2.270   5.745   6.296 -0.7578 -0.3103  0.6406
   92SAPS   C11 8953   2.290   5.473   6.420 -0.0411 -0.2974  0.4803
   92SAPS  H11A 8954   2.316   5.527   6.513 -1.7177  0.7174  0.3893
   92SAPS  H11B 8955   2.373   5.477   6.346 -1.2675  0.5369 -0.8898
   92SAPS     P 8956   2.368   5.256   6.551  0.0673  0.2775  0.2067
   92SAPS   O13 8957   2.333   5.114   6.568 -0.5403  0.3722 -0.0535
   92SAPS   O14 8958   2.504   5.281   6.505  0.4402  0.5292  0.3628
   92SAPS   O12 8959   2.273   5.335   6.445 -0.1445 -0.2804 -0.4404
   92SAPS   O11 8960   2.336   5.334   6.684  0.3702  0.4707  0.9439
   92SAPS    C1 8961   2.423   5.297   6.797 -0.2455  0.0099  0.2470
   92SAPS    HA 8962   2.430   5.188   6.815 -2.6197 -0.8725 -3.1686
   92SAPS    HB 8963   2.527   5.327   6.769 -0.9855  2.1030 -0.5005
   92SAPS    C2 8964   2.391   5.380   6.928 -0.1376 -0.1591  0.4711
   92SAPS    HS 8965   2.436   5.332   7.017 -0.2120  1.6464  1.5413
   92SAPS   O21 8966   2.252   5.386   6.941  0.3276 -0.2251  0.1891
   92SAPS   C21 8967   2.193   5.271   6.968  0.0645  0.9622  0.2612
   92SAPS   O22 8968   2.253   5.168   6.998  0.1087 -0.6480  0.3857
   92SAPS   C22 8969   2.043   5.276   6.947 -0.2120  0.5574 -0.6240
   92SAPS   H2R 8970   2.010   5.374   6.989  1.1245  0.8825 -0.2587
   92SAPS   H2S 8971   2.030   5.289   6.837  1.3745  1.0377 -0.7970
   92SAPS    C3 8972   2.441   5.532   6.925 -0.1304 -0.0179  0.1247
   92SAPS    HX 8973   2.432   5.580   7.025  1.4662 -0.2222  0.3941
   92SAPS    HY 8974   2.375   5.598   6.865  1.0335  1.5256  0.4642
   92SAPS   O31 8975   2.582   5.543   6.883  0.3640  0.3233 -0.2602
   92SAPS   C31 8976   2.615   5.674   6.863 -0.5710 -0.3467  0.0328
   92SAPS   O32 8977   2.552   5.769   6.893  0.5065  0.1002  0.2748
   92SAPS   C32 8978   2.744   5.671   6.789  0.2746 -0.2725 -0.2636
   92SAPS   H2X 8979   2.722   5.709   6.687  0.2798 -2.3970 -1.1009
   92SAPS   H2Y 8980   2.788   5.570   6.778  1.6481 -0.1281  2.8006
   92SAPS   C23 8981   1.968   5.158   7.012  0.5726  0.0963  0.2611
   92SAPS   H3R 8982   2.015   5.064   6.977  2.1234  0.9724 -0.0694
   92SAPS   H3S 8983   1.864   5.149   6.974  0.7046  0.0451 -0.0861
   92SAPS   C24 8984   1.954   5.161   7.166 -1.1033  0.2398  0.3234
   92SAPS   H4R 8985   2.051   5.184   7.216  1.1782  0.0997 -3.6412
   92SAPS   H4S 8986   1.921   5.059   7.196  1.1066 -1.0280 -1.2295
   92SAPS   C25 8987   1.857   5.271   7.201  0.4892 -0.4353 -0.3471
   92SAPS   H5R 8988   1.764   5.265   7.142  0.0343  1.3491  0.1246
   92SAPS   C26 8989   1.874   5.380   7.283  0.2643 -0.0647  0.0334
   92SAPS   H6R 8990   1.793   5.452   7.297 -0.5345 -0.9838  0.2056
   92SAPS   C27 8991   1.998   5.411   7.364 -0.5361 -1.1383  0.3009
   92SAPS   H7R 8992   2.046   5.316   7.398 -2.8564 -2.3607  0.3278
   92SAPS   H7S 8993   1.964   5.467   7.454 -0.2613  0.9936 -0.8698
   92SAPS   C28 8994   2.093   5.486   7.279 -0.1900  0.2999 -0.4137
   92SAPS   H8R 8995   2.058   5.555   7.201  1.3477  3.3847  1.4181
   92SAPS   C29 8996   2.230   5.470   7.283 -0.0782 -0.7874  0.3690
   92SAPS   H9R 8997   2.295   5.535   7.222 -0.2791 -0.1320  0.8430
   92SAPS  C210 8998   2.304   5.385   7.380  0.5603 -0.1997 -0.3694
   92SAPS  H10R 8999   2.272   5.279   7.364 -1.9909  0.2712  1.0878
   92SAPS  H10S 9000   2.269   5.405   7.484  1.2158  0.1853 -0.2214
   92SAPS  C211 9001   2.453   5.391   7.387 -0.2870 -0.2144  0.4582
   92SAPS  H11R 9002   2.490   5.426   7.289 -3.0035 -0.4843 -0.7539
   92SAPS  C212 9003   2.537   5.369   7.490  0.0666  0.6164 -0.1217
   92SAPS  H12R 9004   2.645   5.384   7.481  0.2296  1.5567  2.5319
   92SAPS  C213 9005   2.491   5.315   7.624 -0.5258 -0.0112  0.1806
   92SAPS  H13R 9006   2.558   5.233   7.658  1.9208  2.4335  1.6998
   92SAPS  H13S 9007   2.390   5.268   7.629 -1.5381  1.9679 -0.7432
   92SAPS  C214 9008   2.488   5.425   7.727  0.7659  0.5573  0.2434
   92SAPS  H14R 9009   2.449   5.524   7.699  1.8870  0.7639 -0.6378
   92SAPS  C215 9010   2.510   5.416   7.861  0.6992 -0.9250  0.2256
   92SAPS  H15R 9011   2.491   5.507   7.920 -1.2192  1.0700 -3.0993
   92SAPS  C216 9012   2.553   5.287   7.932  0.4219 -0.2568 -0.2733
   92SAPS  H16R 9013   2.660   5.264   7.913 -0.0758 -1.0913 -2.4050
   92SAPS  H16S 9014   2.495   5.201   7.891 -0.9070  0.4539  0.0347
   92SAPS  C217 9015   2.517   5.307   8.085 -0.0043  0.6350 -0.2704
   92SAPS  H17R 9016   2.580   5.389   8.126 -1.9495  1.0426  2.1027
   92SAPS  H17S 9017   2.541   5.206   8.126 -3.3231  0.7817  2.4457
   92SAPS  C218 9018   2.372   5.332   8.114  0.2280 -0.4758  0.4809
   92SAPS  H18R 9019   2.319   5.242   8.076  0.2134  0.2969 -1.4367
   92SAPS  H18S 9020   2.337   5.414   8.048 -0.5322  0.4880  2.0305
   92SAPS  C219 9021   2.326   5.348   8.262 -0.3716  0.3861  0.2186
   92SAPS  H19R 9022   2.230   5.404   8.259  0.2309  1.4239  0.1021
   92SAPS  H19S 9023   2.393   5.417   8.315 -0.9092  1.3188 -0.2886
   92SAPS  C220 9024   2.305   5.220   8.340  0.7145  0.7386 -0.2710
   92SAPS  H20R 9025   2.399   5.164   8.363  0.8370 -0.1239 -2.6333
   92SAPS  H20S 9026   2.251   5.155   8.268  2.2690 -0.2328 -0.6217
   92SAPS  H20T 9027   2.251   5.217   8.437  1.0873 -0.8052 -0.0702
   92SAPS   C33 9028   2.839   5.771   6.850 -0.0110  0.6534  0.0259
   92SAPS   H3X 9029   2.797   5.874   6.852  0.3683  0.8077  0.1686
   92SAPS   H3Y 9030   2.921   5.784   6.777 -0.2037 -1.9396 -0.7646
   92SAPS   C34 9031   2.916   5.719   6.976  0.6119  0.5308 -0.6308
   92SAPS   H4X 9032   2.999   5.789   6.999  0.4318  0.3519  0.6148
   92SAPS   H4Y 9033   2.952   5.615   6.955  0.3723  0.8543 -2.9161
   92SAPS   C35 9034   2.839   5.724   7.106  0.3215  0.7918  0.1582
   92SAPS   H5X 9035   2.739   5.677   7.093  0.1744  0.8165  1.1426
   92SAPS   H5Y 9036   2.798   5.825   7.130  2.0011  1.4552  0.3136
   92SAPS   C36 9037   2.905   5.659   7.217 -0.1349 -0.1278 -0.4897
   92SAPS   H6X 9038   3.011   5.688   7.235 -0.3675  1.3085 -1.2748
   92SAPS   H6Y 9039   2.913   5.549   7.205  1.3228 -0.5481  3.0355
   92SAPS   C37 9040   2.829   5.675   7.350 -0.4646  0.5059  0.1987
   92SAPS   H7X 9041   2.727   5.631   7.343 -0.3745  0.0187  1.7150
   92SAPS   H7Y 9042   2.813   5.783   7.368  0.5948  0.6071  0.6017
   92SAPS   C38 9043   2.909   5.620   7.459  0.3309 -0.6571  0.0822
   92SAPS   H8X 9044   3.003   5.676   7.480  0.5852 -0.5630 -1.1984
   92SAPS   H8Y 9045   2.930   5.512   7.448 -2.4172 -1.2809  0.3980
   92SAPS   C39 9046   2.824   5.634   7.589 -0.1302 -0.0465  0.1100
   92SAPS   H9X 9047   2.727   5.581   7.573 -0.7580  1.0344  0.2527
   92SAPS   H9Y 9048   2.809   5.739   7.621 -1.4392 -0.2271  0.1530
   92SAPS  C310 9049   2.890   5.558   7.705  0.0289 -0.0527  0.0809
   92SAPS  H10X 9050   2.914   5.456   7.669  1.8716  0.6436 -0.7694
   92SAPS  H10Y 9051   2.814   5.547   7.785  1.6868  1.1835  1.9236
   92SAPS  C311 9052   3.010   5.633   7.762  0.0146  0.1430 -0.1058
   92SAPS  H11X 9053   2.986   5.741   7.773 -0.7150  0.0848 -1.0053
   92SAPS  H11Y 9054   3.096   5.614   7.693 -2.1964 -1.0115 -2.7410
   92SAPS  C312 9055   3.036   5.591   7.903  0.4898  0.0832 -0.4088
   92SAPS  H12X 9056   2.943   5.619   7.956  0.4171  1.8503 -1.3861
   92SAPS  H12Y 9057   3.112   5.658   7.950  0.7123 -1.1924  1.1417
   92SAPS  C313 9058   3.072   5.445   7.952  0.6035 -0.4198  0.1718
   92SAPS  H13X 9059   3.134   5.390   7.877 -0.0108 -2.6067  1.1696
   92SAPS  H13Y 9060   2.978   5.388   7.966 -0.1416  1.1163  1.7715
   92SAPS  C314 9061   3.166   5.438   8.081 -0.4274 -0.0960 -0.2346
   92SAPS  H14X 9062   3.233   5.526   8.073  0.0970 -0.5702 -1.1618
   92SAPS  H14Y 9063   3.223   5.342   8.087  1.1637  0.8841  1.2216
   92SAPS  C315 9064   3.090   5.465   8.212 -0.2470  0.8244 -0.8019
   92SAPS  H15X 9065   3.012   5.389   8.238 -1.7629  3.0074  1.4951
   92SAPS  H15Y 9066   3.048   5.567   8.205 -0.0696  0.9855  0.3171
   92SAPS  C316 9067   3.184   5.476   8.335 -0.5649  0.6017 -0.0972
   92SAPS  H16X 9068   3.236   5.378   8.343 -2.6039 -0.6194 -0.9602
   92SAPS  H16Y 9069   3.116   5.480   8.423  1.3283 -2.5083  1.7114
   92SAPS  C317 9070   3.292   5.592   8.333  0.5416  0.3238 -0.3102
   92SAPS  H17X 9071   3.232   5.682   8.309 -1.8085 -1.7548 -2.9457
   92SAPS  H17Y 9072   3.366   5.558   8.257  1.3575  1.0529  0.1389
   92SAPS  C318 9073   3.368   5.628   8.460 -0.2098  0.3750  0.4983
   92SAPS  H18X 9074   3.418   5.542   8.510 -0.6109 -1.0778 -1.4586
   92SAPS  H18Y 9075   3.301   5.672   8.536 -3.3292 -2.9569 -0.0085
   92SAPS  H18Z 9076   3.442   5.705   8.430 -1.0828  0.8686 -0.4243
   93SAPS     N 9077   3.667   5.962   6.486 -0.0884  0.2830 -0.6107
   93SAPS   HN1 9078   3.758   5.970   6.537  0.0200 -0.8816 -0.5774
   93SAPS   HN2 9079   3.637   6.047   6.436  1.3420  0.2388 -1.5939
   93SAPS   HN3 9080   3.602   5.916   6.554 -1.4552 -1.4100 -2.9079
   93SAPS   C12 9081   3.693   5.853   6.387  0.4643 -0.1273  0.6710
   93SAPS  H12A 9082   3.599   5.817   6.348  0.4538 -1.9124  2.1810
   93SAPS   C13 9083   3.779   5.869   6.261  0.0684 -0.4327  0.3578
   93SAPS  O13A 9084   3.838   5.975   6.242 -0.1820 -0.6834 -0.2548
   93SAPS  O13B 9085   3.764   5.790   6.163  0.1480  1.1956 -0.0385
   93SAPS   C11 9086   3.742   5.732   6.460  0.0140 -0.2197  0.0004
   93SAPS  H11A 9087   3.718   5.645   6.396 -0.9587 -0.8707  1.1890
   93SAPS  H11B 9088   3.679   5.727   6.552 -1.2391  2.4134 -0.6008
   93SAPS     P 9089   3.940   5.791   6.630  0.4251 -0.3408  0.2820
   93SAPS   O13 9090   4.087   5.790   6.608 -0.3515  0.8403 -0.1365
   93SAPS   O14 9091   3.881   5.925   6.661 -0.0435  0.6638  0.5456
   93SAPS   O12 9092   3.876   5.745   6.494 -0.6402  0.0548  0.4277
   93SAPS   O11 9093   3.885   5.683   6.737  0.6902  0.1276  0.0729
   93SAPS    C1 9094   3.909   5.541   6.708 -0.9330 -0.0085 -0.4765
   93SAPS    HA 9095   3.994   5.517   6.641 -1.1589 -3.8102  0.3746
   93SAPS    HB 9096   3.929   5.511   6.813 -1.3243  1.9806  0.2162
   93SAPS    C2 9097   3.789   5.461   6.655  0.1161 -0.2284 -0.1679
   93SAPS    HS 9098   3.767   5.503   6.555 -1.4857 -0.5873  0.0130
   93SAPS   O21 9099   3.674   5.479   6.735 -0.1355 -0.4135 -0.6809
   93SAPS   C21 9100   3.561   5.463   6.673  0.0157 -0.3603 -0.0521
   93SAPS   O22 9101   3.549   5.435   6.553 -0.5410  0.7961 -0.4243
   93SAPS   C22 9102   3.447   5.502   6.760 -0.6356 -0.1342  0.0005
   93SAPS   H2R 9103   3.448   5.426   6.841  1.5582 -0.8761 -0.6468
   93SAPS   H2S 9104   3.475   5.602   6.801 -0.4112 -0.1830 -0.0327
   93SAPS    C3 9105   3.817   5.307   6.635 -0.6724 -0.4481 -0.4255
   93SAPS    HX 9106   3.899   5.292   6.561 -0.5611 -1.6912 -0.0836
   93SAPS    HY 9107   3.736   5.257   6.576  0.1983 -0.4295 -1.6814
   93SAPS   O31 9108   3.848   5.247   6.763 -0.3313  0.4491  0.2390
   93SAPS   C31 9109   3.742   5.204   6.833 -0.2570  0.0494  0.6275
   93SAPS   O32 9110   3.625   5.197   6.793  0.0296 -0.0533 -0.1641
   93SAPS   C32 9111   3.768   5.183   6.978  0.1430 -0.4715  0.0109
   93SAPS   H2X 9112   3.879   5.186   6.987  0.1814 -1.0984 -0.1673
   93SAPS   H2Y 9113   3.732   5.080   7.002 -3.4868  0.8547  0.9862
   93SAPS   C23 9114   3.313   5.510   6.698  0.8246 -0.3288 -0.0899
   93SAPS   H3R 9115   3.281   5.425   6.635 -2.0442 -1.7270  2.9809
   93SAPS   H3S 9116   3.306   5.601   6.635  1.3178  0.0011  0.3127
   93SAPS   C24 9117   3.206   5.515   6.806 -0.9157  0.2039  0.1782
   93SAPS   H4R 9118   3.179   5.416   6.847  0.0093  0.0835  0.5338
   93SAPS   H4S 9119   3.117   5.545   6.747 -1.6395  0.8488  1.5489
   93SAPS   C25 9120   3.235   5.610   6.915  0.0769 -0.6333 -0.0156
   93SAPS   H5R 9121   3.276   5.707   6.883 -0.0413 -0.8473 -0.8407
   93SAPS   C26 9122   3.256   5.594   7.047  1.1513  0.5023  0.1448
   93SAPS   H6R 9123   3.281   5.677   7.114 -1.9778  1.5870  0.1169
   93SAPS   C27 9124   3.247   5.465   7.114  0.6797  0.1156  1.0629
   93SAPS   H7R 9125   3.223   5.381   7.045 -0.0296  1.5412 -0.4946
   93SAPS   H7S 9126   3.158   5.465   7.181 -0.3037  0.0847 -0.2124
   93SAPS   C28 9127   3.374   5.444   7.186 -0.1492 -0.8656 -0.0197
   93SAPS   H8R 9128   3.459   5.457   7.117  0.8401 -2.9062  0.7341
   93SAPS   C29 9129   3.398   5.426   7.320  0.4485  0.1524 -0.0959
   93SAPS   H9R 9130   3.502   5.408   7.353  0.3168 -2.2389 -0.8436
   93SAPS  C210 9131   3.292   5.416   7.432  0.4583  0.7032 -0.2965
   93SAPS  H10R 9132   3.291   5.317   7.482  0.0964  0.8116 -0.0799
   93SAPS  H10S 9133   3.190   5.435   7.392 -0.3834  0.6907  1.6937
   93SAPS  C211 9134   3.334   5.526   7.524 -0.9042 -1.3687 -0.2617
   93SAPS  H11R 9135   3.330   5.623   7.473  1.1788 -0.6206  0.8949
   93SAPS  C212 9136   3.381   5.521   7.653  0.6947 -0.3833 -0.3426
   93SAPS  H12R 9137   3.392   5.609   7.719 -0.1262 -0.7675  0.3247
   93SAPS  C213 9138   3.407   5.390   7.727 -0.1678  0.2714 -0.3559
   93SAPS  H13R 9139   3.336   5.313   7.691 -0.9050  0.7903 -0.0452
   93SAPS  H13S 9140   3.381   5.408   7.834 -0.6187  1.9367 -0.7155
   93SAPS  C214 9141   3.553   5.340   7.704  0.7325  0.3129  0.3851
   93SAPS  H14R 9142   3.594   5.350   7.603  0.0413  0.0221  0.0696
   93SAPS  C215 9143   3.621   5.267   7.797  0.1005 -0.1740  0.1556
   93SAPS  H15R 9144   3.726   5.247   7.771 -0.7722 -1.9708 -2.3359
   93SAPS  C216 9145   3.576   5.233   7.938 -0.1090 -0.1060 -0.1105
   93SAPS  H16R 9146   3.576   5.122   7.934 -0.8549 -0.0799 -2.9691
   93SAPS  H16S 9147   3.476   5.278   7.961  0.2379  1.6282 -1.7276
   93SAPS  C217 9148   3.687   5.283   8.041  1.1794 -0.6140  0.2324
   93SAPS  H17R 9149   3.696   5.393   8.028  1.6260 -0.6727  0.0157
   93SAPS  H17S 9150   3.782   5.229   8.018  0.5085 -1.7637  0.1023
   93SAPS  C218 9151   3.641   5.252   8.187 -0.0813  0.5089  0.2234
   93SAPS  H18R 9152   3.620   5.144   8.201  0.6593  0.2324 -0.7276
   93SAPS  H18S 9153   3.546   5.307   8.201  0.2802  2.1146 -2.9283
   93SAPS  C219 9154   3.740   5.299   8.296 -0.7365  0.0410  0.0064
   93SAPS  H19R 9155   3.780   5.400   8.271  0.9306 -1.0159 -2.0163
   93SAPS  H19S 9156   3.833   5.239   8.302  0.8408  2.4861  2.7241
   93SAPS  C220 9157   3.683   5.305   8.434  0.1437 -0.1652 -0.1664
   93SAPS  H20R 9158   3.741   5.371   8.501  1.0228 -1.9555  0.9193
   93SAPS  H20S 9159   3.681   5.202   8.476  2.3706 -0.0936  0.2325
   93SAPS  H20T 9160   3.578   5.343   8.432 -0.1346 -0.9203 -0.4207
   93SAPS   C33 9161   3.680   5.278   7.070  0.0057 -0.1424 -0.2027
   93SAPS   H3X 9162   3.578   5.236   7.058  0.0105  0.2855 -2.0334
   93SAPS   H3Y 9163   3.693   5.370   7.009 -0.2921  0.0467  0.0170
   93SAPS   C34 9164   3.735   5.293   7.218 -0.7172  1.0731 -0.4453
   93SAPS   H4X 9165   3.693   5.380   7.273  0.4464 -0.4050  3.0603
   93SAPS   H4Y 9166   3.846   5.301   7.216 -0.7438  3.2631  1.8543
   93SAPS   C35 9167   3.699   5.168   7.306  0.4155  0.4870  0.1802
   93SAPS   H5X 9168   3.724   5.077   7.246  2.2768  0.5643  0.7772
   93SAPS   H5Y 9169   3.593   5.160   7.336  1.2036 -0.8615  2.9513
   93SAPS   C36 9170   3.783   5.151   7.431  0.5591  0.0335 -0.3184
   93SAPS   H6X 9171   3.767   5.230   7.507  0.2009 -1.2072  0.9594
   93SAPS   H6Y 9172   3.886   5.157   7.390 -0.2611 -2.3370 -3.0649
   93SAPS   C37 9173   3.761   5.018   7.495 -0.2999  0.1459 -0.1369
   93SAPS   H7X 9174   3.787   4.937   7.424 -0.7993  0.5342 -0.7734
   93SAPS   H7Y 9175   3.656   5.007   7.530 -0.0548 -0.8409  0.3207
   93SAPS   C38 9176   3.863   5.008   7.613  0.4544 -0.2606  0.7916
   93SAPS   H8X 9177   3.885   5.110   7.652  2.5182  0.7242 -2.5405
   93SAPS   H8Y 9178   3.962   4.977   7.573  1.3921  0.2913  2.5762
   93SAPS   C39 9179   3.812   4.920   7.723 -0.0820 -0.2122  0.1731
   93SAPS   H9X 9180   3.835   4.816   7.694 -0.6033 -0.4679  0.6552
   93SAPS   H9Y 9181   3.702   4.932   7.731 -0.1152 -0.5358  0.2139
   93SAPS  C310 9182   3.887   4.968   7.846  0.1801  0.0879  0.9200
   93SAPS  H10X 9183   3.879   5.077   7.862  2.7051  0.6774 -1.2704
   93SAPS  H10Y 9184   3.996   4.950   7.834  0.3199  0.1646  1.9978
   93SAPS  C311 9185   3.844   4.885   7.967  0.1253  0.2495 -0.3847
   93SAPS  H11X 9186   3.894   4.786   7.963 -1.1421 -0.4036 -0.6852
   93SAPS  H11Y 9187   3.734   4.869   7.965  0.2518 -0.7541 -0.1494
   93SAPS  C312 9188   3.870   4.948   8.109 -0.3061  0.2504 -0.1528
   93SAPS  H12X 9189   3.826   5.050   8.103 -2.3375 -0.6327 -1.6384
   93SAPS  H12Y 9190   3.979   4.962   8.124 -0.0751 -1.2078 -0.3429
   93SAPS  C313 9191   3.820   4.866   8.222  0.0496  0.2122  0.2467
   93SAPS  H13X 9192   3.867   4.765   8.225 -0.3698 -0.1608 -2.7416
   93SAPS  H13Y 9193   3.712   4.844   8.209  0.3503 -0.4274 -1.3891
   93SAPS  C314 9194   3.834   4.925   8.361  0.8012 -0.1057 -0.0677
   93SAPS  H14X 9195   3.803   5.032   8.363 -1.0323 -0.6038 -0.4131
   93SAPS  H14Y 9196   3.943   4.916   8.380  1.0237  0.5408 -0.9575
   93SAPS  C315 9197   3.740   4.867   8.468 -0.0826 -0.0985 -0.1666
   93SAPS  H15X 9198   3.649   4.930   8.457  0.9248  1.4748  0.0721
   93SAPS  H15Y 9199   3.768   4.884   8.574  0.8321 -0.5887 -0.3188
   93SAPS  C316 9200   3.708   4.719   8.464 -0.1992 -0.1766  0.0962
   93SAPS  H16X 9201   3.644   4.699   8.375 -0.3089  0.0728  0.1174
   93SAPS  H16Y 9202   3.643   4.695   8.551 -0.9936 -1.3873 -0.7965
   93SAPS  C317 9203   3.826   4.620   8.474  0.8974  0.5805 -0.5113
   93SAPS  H17X 9204   3.901   4.639   8.393  0.0103  1.6574 -1.1053
   93SAPS  H17Y 9205   3.789   4.517   8.454 -0.1454  0.9873 -0.7500
   93SAPS  C318 9206   3.907   4.630   8.605  0.1255 -0.4289 -0.2072
   93SAPS  H18X 9207   4.012   4.594   8.597  0.0601 -0.3837 -1.4160
   93SAPS  H18Y 9208   3.864   4.557   8.676 -0.7677  1.5872  1.4517
   93SAPS  H18Z 9209   3.902   4.731   8.652  1.7555 -0.3411 -0.1629
   94SAPS     N 9210   4.929   1.755   5.738  0.0478 -0.0981 -0.6723
   94SAPS   HN1 9211   4.849   1.811   5.703 -0.0377 -0.0182 -0.3487
   94SAPS   HN2 9212   4.942   1.796   5.832 -0.3041 -1.8107  0.1779
   94SAPS   HN3 9213   5.014   1.766   5.680  0.5091 -3.1940 -0.7591
   94SAPS   C12 9214   4.898   1.612   5.741 -0.4663  0.1320  0.7419
   94SAPS  H12A 9215   4.850   1.582   5.649 -1.9744  1.6348  0.9914
   94SAPS   C13 9216   5.024   1.517   5.754  0.4631 -0.6828 -0.3418
   94SAPS  O13A 9217   5.125   1.577   5.803  0.2024  0.2570  0.1883
   94SAPS  O13B 9218   5.017   1.394   5.755  0.8520 -0.1946  0.0706
   94SAPS   C11 9219   4.798   1.576   5.860 -0.4325 -0.6296  0.0549
   94SAPS  H11A 9220   4.867   1.582   5.946 -0.5753 -1.2918  0.2220
   94SAPS  H11B 9221   4.769   1.469   5.852  2.1736 -1.4442  0.6478
   94SAPS     P 9222   4.549   1.607   5.947 -0.3433  0.6777 -0.6307
   94SAPS   O13 9223   4.474   1.715   6.012  0.0807  0.7920 -0.0388
   94SAPS   O14 9224   4.472   1.525   5.844 -0.2610 -0.0427  0.2002
   94SAPS   O12 9225   4.683   1.662   5.877 -0.4356 -0.2209  0.7014
   94SAPS   O11 9226   4.589   1.513   6.074  0.0855  0.0040  0.2079
   94SAPS    C1 9227   4.495   1.418   6.123 -0.4354 -0.1662 -0.2229
   94SAPS    HA 9228   4.403   1.468   6.159 -1.7841 -2.2761 -0.5967
   94SAPS    HB 9229   4.465   1.352   6.039  0.0856 -0.3542 -0.2681
   94SAPS    C2 9230   4.554   1.337   6.242 -0.1233 -0.4157 -0.5757
   94SAPS    HS 9231   4.470   1.271   6.272 -0.7342  2.0233  3.8952
   94SAPS   O21 9232   4.612   1.421   6.346  0.3579 -0.9237  0.0900
   94SAPS   C21 9233   4.531   1.500   6.419 -0.2327 -0.2343  1.1564
   94SAPS   O22 9234   4.410   1.495   6.417 -0.4621  0.4582  0.4832
   94SAPS   C22 9235   4.618   1.587   6.513 -0.5062 -1.1651 -0.4193
   94SAPS   H2R 9236   4.633   1.537   6.611 -1.7153  1.5731  1.2907
   94SAPS   H2S 9237   4.718   1.592   6.466 -0.6753  0.0936 -0.6822
   94SAPS    C3 9238   4.664   1.242   6.194 -0.0262  0.2076 -0.0681
   94SAPS    HX 9239   4.733   1.314   6.144  1.5891 -0.4550  1.1082
   94SAPS    HY 9240   4.628   1.175   6.113 -1.0010 -1.4940  1.7150
   94SAPS   O31 9241   4.733   1.170   6.301  0.0505 -0.2700 -0.2627
   94SAPS   C31 9242   4.662   1.091   6.379  0.4779  0.2443  0.2417
   94SAPS   O32 9243   4.547   1.052   6.359  0.3278 -0.5443  0.2640
   94SAPS   C32 9244   4.747   1.057   6.503 -0.4288 -0.1080  0.0978
   94SAPS   H2X 9245   4.797   1.147   6.545  1.7904 -1.7550  1.1172
   94SAPS   H2Y 9246   4.829   0.986   6.481  0.3616  0.8534 -0.1136
   94SAPS   C23 9247   4.563   1.730   6.534 -0.1829  0.2035  0.7168
   94SAPS   H3R 9248   4.499   1.749   6.445  1.7625  0.6502 -0.6586
   94SAPS   H3S 9249   4.644   1.806   6.521  1.8889 -1.8643  0.9283
   94SAPS   C24 9250   4.502   1.750   6.673  0.6533  0.6981 -0.4337
   94SAPS   H4R 9251   4.573   1.725   6.755  1.2293  0.3822 -1.0230
   94SAPS   H4S 9252   4.427   1.668   6.683  0.6241  0.4676 -2.1718
   94SAPS   C25 9253   4.430   1.878   6.711 -0.0172  0.3789 -0.0261
   94SAPS   H5R 9254   4.352   1.902   6.637 -1.6088 -0.2857  1.3469
   94SAPS   C26 9255   4.434   1.949   6.825  0.3007  0.0605 -0.5219
   94SAPS   H6R 9256   4.373   2.040   6.829  1.5253  0.8642  0.8633
   94SAPS   C27 9257   4.527   1.920   6.941  0.7207 -0.2119  0.3458
   94SAPS   H7R 9258   4.554   2.018   6.985  2.0624 -1.6690  3.0407
   94SAPS   H7S 9259   4.622   1.869   6.913 -0.1795 -1.6134 -0.2947
   94SAPS   C28 9260   4.470   1.840   7.054 -0.1992  0.4511  0.0067
   94SAPS   H8R 9261   4.406   1.757   7.021  0.1738 -0.1825  0.8303
   94SAPS   C29 9262   4.492   1.841   7.192  0.9045  0.5353  0.1776
   94SAPS   H9R 9263   4.442   1.766   7.254  2.6881 -0.0739  0.9463
   94SAPS  C210 9264   4.591   1.937   7.253 -0.3192 -0.1491 -0.5162
   94SAPS  H10R 9265   4.551   2.041   7.248  1.1264  0.4559 -0.2438
   94SAPS  H10S 9266   4.689   1.933   7.200 -0.6216 -1.4113 -1.0055
   94SAPS  C211 9267   4.603   1.914   7.396 -0.5760  0.0015  0.5738
   94SAPS  H11R 9268   4.563   1.815   7.425 -0.9007 -0.8812 -2.5015
   94SAPS  C212 9269   4.659   1.999   7.486 -0.1974  0.0804  0.3075
   94SAPS  H12R 9270   4.672   1.967   7.590  0.0448  1.6024  0.7551
   94SAPS  C213 9271   4.720   2.134   7.449 -0.0452 -0.1980 -0.2659
   94SAPS  H13R 9272   4.731   2.139   7.338 -1.0349  2.3441 -0.3085
   94SAPS  H13S 9273   4.822   2.132   7.492  0.6186 -2.6720 -1.7041
   94SAPS  C214 9274   4.640   2.247   7.510  0.2514 -0.0384 -0.4008
   94SAPS  H14R 9275   4.564   2.297   7.449 -0.6918  0.2268  0.9419
   94SAPS  C215 9276   4.646   2.281   7.640 -0.0729 -0.5487 -0.5558
   94SAPS  H15R 9277   4.590   2.368   7.677 -0.0123 -1.4895  1.9571
   94SAPS  C216 9278   4.736   2.221   7.746 -0.0723  0.2375 -0.4325
   94SAPS  H16R 9279   4.845   2.223   7.724 -0.0179 -0.6297 -0.2533
   94SAPS  H16S 9280   4.708   2.114   7.752 -0.3836  0.2923 -0.8418
   94SAPS  C217 9281   4.724   2.285   7.881  0.3388  0.1805  0.5115
   94SAPS  H17R 9282   4.789   2.223   7.946  1.0261  1.0314  0.6530
   94SAPS  H17S 9283   4.621   2.279   7.923  0.6509 -0.1721  1.2244
   94SAPS  C218 9284   4.785   2.422   7.887  0.1676  0.7599  0.0916
   94SAPS  H18R 9285   4.736   2.487   7.811 -0.2826  0.6607  0.2920
   94SAPS  H18S 9286   4.889   2.420   7.849 -0.1559  1.4865 -0.8624
   94SAPS  C219 9287   4.778   2.490   8.023 -0.1652  0.3955 -0.3884
   94SAPS  H19R 9288   4.674   2.500   8.063  0.1024  1.5691  0.0564
   94SAPS  H19S 9289   4.820   2.591   8.003 -1.2168  0.9085 -0.0826
   94SAPS  C220 9290   4.871   2.427   8.128  0.4913 -0.5022 -0.1743
   94SAPS  H20R 9291   4.948   2.365   8.077 -0.7844 -1.9413 -0.4402
   94SAPS  H20S 9292   4.821   2.363   8.203  0.7584  0.8877  1.2357
   94SAPS  H20T 9293   4.927   2.503   8.186 -2.0871 -0.8294  3.0171
   94SAPS   C33 9294   4.649   1.008   6.609  0.1116  0.2261 -0.5975
   94SAPS   H3X 9295   4.705   0.951   6.686 -2.0370 -0.1519  0.7792
   94SAPS   H3Y 9296   4.582   0.927   6.573  0.8932 -0.8281  0.2558
   94SAPS   C34 9297   4.568   1.123   6.677 -0.3537  0.1424  0.3240
   94SAPS   H4X 9298   4.528   1.181   6.591  1.6215 -1.1630 -1.5825
   94SAPS   H4Y 9299   4.651   1.186   6.714  0.7161  0.7864 -2.8114
   94SAPS   C35 9300   4.448   1.076   6.765 -0.2013  0.1637 -0.2744
   94SAPS   H5X 9301   4.489   1.024   6.854  1.3696  1.5694 -0.1309
   94SAPS   H5Y 9302   4.385   0.995   6.722 -0.1047 -0.5253  0.8500
   94SAPS   C36 9303   4.363   1.189   6.801  0.1678  0.1367  0.5876
   94SAPS   H6X 9304   4.288   1.145   6.869 -3.0554  1.4697 -1.8530
   94SAPS   H6Y 9305   4.308   1.230   6.714  2.1273  1.1617 -0.2466
   94SAPS   C37 9306   4.437   1.302   6.886 -0.2659  0.9786 -0.3400
   94SAPS   H7X 9307   4.518   1.349   6.825  1.1486 -0.8425  0.0566
   94SAPS   H7Y 9308   4.476   1.240   6.969  1.8148 -0.3467 -2.2004
   94SAPS   C38 9309   4.355   1.421   6.933 -0.1582  0.9050  0.2736
   94SAPS   H8X 9310   4.300   1.462   6.845 -2.1698  0.2331  1.1648
   94SAPS   H8Y 9311   4.422   1.500   6.973  0.0639  0.6429  0.4143
   94SAPS   C39 9312   4.237   1.386   7.034 -0.1885 -0.1060  0.0228
   94SAPS   H9X 9313   4.178   1.311   6.979 -1.8020  1.5639 -0.6348
   94SAPS   H9Y 9314   4.184   1.484   7.038  0.8495  0.4468  1.1039
   94SAPS  C310 9315   4.279   1.368   7.182 -0.4125  0.5447 -0.2144
   94SAPS  H10X 9316   4.371   1.430   7.190  1.8379 -2.6773  0.7191
   94SAPS  H10Y 9317   4.313   1.264   7.203  1.2199  1.3415  1.3180
   94SAPS  C311 9318   4.176   1.408   7.284  0.1883  0.2996  0.6485
   94SAPS  H11X 9319   4.084   1.347   7.272  0.0068  0.4959  1.0019
   94SAPS  H11Y 9320   4.139   1.511   7.266 -0.3087  0.2393  1.2663
   94SAPS  C312 9321   4.218   1.395   7.436 -0.8807  0.4710 -0.0196
   94SAPS  H12X 9322   4.322   1.432   7.440 -1.1085  1.0922  0.3022
   94SAPS  H12Y 9323   4.235   1.292   7.473 -0.1034  1.2515  1.9344
   94SAPS  C313 9324   4.121   1.477   7.529 -0.1408  0.1068 -0.3120
   94SAPS  H13X 9325   4.022   1.427   7.523  0.6633 -1.8650  1.4876
   94SAPS  H13Y 9326   4.122   1.575   7.477  2.7755 -0.5946 -1.8030
   94SAPS  C314 9327   4.174   1.488   7.673  0.1634  0.0313 -0.4869
   94SAPS  H14X 9328   4.276   1.532   7.664  1.1526 -1.5291  2.0838
   94SAPS  H14Y 9329   4.176   1.392   7.729  1.9409  1.0982  1.4569
   94SAPS  C315 9330   4.096   1.588   7.759 -0.5316  0.5774  0.6611
   94SAPS  H15X 9331   3.990   1.559   7.778 -0.7453  0.6109 -0.4117
   94SAPS  H15Y 9332   4.093   1.681   7.697 -0.7435 -0.4993 -1.0130
   94SAPS  C316 9333   4.171   1.615   7.888  0.3144 -0.0404 -0.2451
   94SAPS  H16X 9334   4.145   1.716   7.925 -1.4833  0.8182 -3.5076
   94SAPS  H16Y 9335   4.280   1.629   7.869  0.1952  0.4489 -0.5695
   94SAPS  C317 9336   4.185   1.501   7.986 -0.0887 -0.5289 -0.1340
   94SAPS  H17X 9337   4.098   1.436   7.963 -1.2569  0.9827 -0.1091
   94SAPS  H17Y 9338   4.159   1.534   8.088 -2.3825 -2.9082  0.1651
   94SAPS  C318 9339   4.315   1.422   7.992  0.6543  0.3832 -0.4131
   94SAPS  H18X 9340   4.399   1.486   8.026  2.5171 -2.0511 -0.1450
   94SAPS  H18Y 9341   4.353   1.382   7.895  3.8644 -0.4367  1.0740
   94SAPS  H18Z 9342   4.317   1.338   8.064  1.4384 -0.3872 -1.3004
   95SAPS     N 9343   0.609   6.372   5.997  0.5189 -0.0938 -0.2279
   95SAPS   HN1 9344   0.573   6.274   6.003  0.8724 -0.2085  0.0513
   95SAPS   HN2 9345   0.585   6.428   6.081 -0.2928 -1.1879  0.2996
   95SAPS   HN3 9346   0.565   6.424   5.918 -1.3373  0.9342  1.3632
   95SAPS   C12 9347   0.757   6.366   5.983  0.3909 -0.3843 -0.0163
   95SAPS  H12A 9348   0.776   6.282   5.918  2.0417 -0.2901  0.3024
   95SAPS   C13 9349   0.803   6.493   5.906  0.0208 -0.2232  0.0149
   95SAPS  O13A 9350   0.719   6.584   5.870 -0.2600 -0.2459  0.1084
   95SAPS  O13B 9351   0.919   6.493   5.861  0.0658 -0.6686  0.1082
   95SAPS   C11 9352   0.813   6.369   6.131  0.2917 -0.4143  0.1207
   95SAPS  H11A 9353   0.801   6.467   6.182 -1.5796  1.0276 -2.8685
   95SAPS  H11B 9354   0.920   6.354   6.107  1.0353  2.0273  1.5135
   95SAPS     P 9355   0.831   6.126   6.223 -0.2616 -0.0185 -0.1942
   95SAPS   O13 9356   0.823   6.066   6.090 -0.3133  0.4352  0.4801
   95SAPS   O14 9357   0.970   6.151   6.280 -0.0532  0.2214  0.5459
   95SAPS   O12 9358   0.762   6.271   6.213  0.5676  0.6441 -0.6193
   95SAPS   O11 9359   0.757   6.039   6.326 -0.3858 -0.0551 -0.0844
   95SAPS    C1 9360   0.635   6.076   6.378  0.7369 -0.8114  0.3493
   95SAPS    HA 9361   0.557   6.117   6.310 -0.6444 -2.8294  0.5936
   95SAPS    HB 9362   0.584   5.987   6.422 -0.5854  0.1546  0.8369
   95SAPS    C2 9363   0.634   6.180   6.494  0.2861  0.3640 -0.2968
   95SAPS    HS 9364   0.699   6.264   6.463 -0.8649  1.6609  0.6551
   95SAPS   O21 9365   0.684   6.108   6.611  0.1106 -0.4973 -0.3760
   95SAPS   C21 9366   0.743   6.186   6.690 -0.0244 -0.1187  0.1797
   95SAPS   O22 9367   0.771   6.304   6.660 -1.0397 -0.0310 -0.7289
   95SAPS   C22 9368   0.784   6.121   6.814  0.3747 -0.1809 -0.1999
   95SAPS   H2R 9369   0.706   6.043   6.828 -0.5176  0.6766 -0.2706
   95SAPS   H2S 9370   0.885   6.079   6.796  0.0988 -1.7166  1.4543
   95SAPS    C3 9371   0.496   6.233   6.519  0.0049  0.0495 -0.1405
   95SAPS    HX 9372   0.462   6.290   6.430 -0.6011  1.1878  0.7790
   95SAPS    HY 9373   0.490   6.310   6.599 -0.8274  1.1145 -1.1891
   95SAPS   O31 9374   0.392   6.125   6.543 -0.3919 -0.3515  0.3387
   95SAPS   C31 9375   0.365   6.100   6.673  0.2557 -0.4910  0.5837
   95SAPS   O32 9376   0.419   6.149   6.774  0.1878  0.3578 -0.0281
   95SAPS   C32 9377   0.256   5.997   6.680  0.4629 -0.7894 -0.5593
   95SAPS   H2X 9378   0.298   5.899   6.648  2.8329  0.3343 -1.1335
   95SAPS   H2Y 9379   0.176   6.028   6.610 -0.2487 -0.3618  0.4249
   95SAPS   C23 9380   0.791   6.227   6.926  0.0757 -0.1860 -0.3834
   95SAPS   H3R 9381   0.691   6.264   6.956  1.3788  2.9903  0.5060
   95SAPS   H3S 9382   0.847   6.317   6.890 -1.1683  0.8124  0.1066
   95SAPS   C24 9383   0.850   6.186   7.068 -0.1387 -0.5458  0.7270
   95SAPS   H4R 9384   0.794   6.104   7.117 -1.4907  0.4845  0.9575
   95SAPS   H4S 9385   0.832   6.277   7.128 -1.2347 -1.5518  1.9921
   95SAPS   C25 9386   0.994   6.141   7.051  0.5520  0.4705  0.5757
   95SAPS   H5R 9387   1.043   6.223   6.996 -1.8774  0.6504 -1.4793
   95SAPS   C26 9388   1.057   6.023   7.088 -0.4853 -0.3967 -0.0143
   95SAPS   H6R 9389   1.164   6.012   7.065 -0.1293  2.1346  0.1244
   95SAPS   C27 9390   0.988   5.912   7.164 -0.1322 -0.6231  0.4657
   95SAPS   H7R 9391   0.879   5.914   7.143 -0.4738  0.0038  2.1255
   95SAPS   H7S 9392   0.992   5.939   7.272  2.0482  0.5237  0.1383
   95SAPS   C28 9393   1.030   5.768   7.144 -0.0922  0.1276  0.4416
   95SAPS   H8R 9394   1.051   5.733   7.041 -0.6763 -0.8986  0.6593
   95SAPS   C29 9395   1.063   5.682   7.244 -0.3703 -0.1853 -0.2640
   95SAPS   H9R 9396   1.090   5.579   7.214 -0.8570 -0.1814 -0.7284
   95SAPS  C210 9397   1.052   5.709   7.395 -0.1494 -0.2251  0.0368
   95SAPS  H10R 9398   0.946   5.684   7.417 -0.7325  2.2732  0.3829
   95SAPS  H10S 9399   1.070   5.817   7.418  1.6150 -0.4842 -0.0407
   95SAPS  C211 9400   1.144   5.605   7.467  0.5682 -0.6539 -0.4203
   95SAPS  H11R 9401   1.170   5.514   7.412 -0.7223 -0.1732 -1.9072
   95SAPS  C212 9402   1.191   5.611   7.596  0.0162  0.0908 -0.8182
   95SAPS  H12R 9403   1.261   5.536   7.633  0.4521  0.1850 -1.4354
   95SAPS  C213 9404   1.150   5.720   7.696 -0.8056  0.1916 -0.2528
   95SAPS  H13R 9405   1.132   5.670   7.794 -0.3944 -0.5225 -0.5343
   95SAPS  H13S 9406   1.055   5.770   7.669 -1.1842 -1.1741 -1.5790
   95SAPS  C214 9407   1.263   5.818   7.692  0.5294  0.3279  0.1008
   95SAPS  H14R 9408   1.275   5.869   7.595 -0.4144 -0.2322 -0.3266
   95SAPS  C215 9409   1.338   5.856   7.799  0.7254  0.1585  0.3544
   95SAPS  H15R 9410   1.413   5.932   7.770  3.0828 -2.2210 -0.1283
   95SAPS  C216 9411   1.344   5.811   7.943  0.2373  0.2577 -0.0628
   95SAPS  H16R 9412   1.265   5.738   7.971 -1.2884  1.8440 -0.0877
   95SAPS  H16S 9413   1.324   5.900   8.006  0.4396  0.0685  0.2747
   95SAPS  C217 9414   1.477   5.743   7.986 -0.7650 -0.6172  0.3605
   95SAPS  H17R 9415   1.497   5.655   7.921 -1.1302  0.1880 -0.8951
   95SAPS  H17S 9416   1.472   5.705   8.090 -0.1938  1.4549  1.1934
   95SAPS  C218 9417   1.590   5.845   7.983  0.6327 -0.2496  0.3821
   95SAPS  H18R 9418   1.553   5.950   7.973 -1.1707 -1.0392 -2.5343
   95SAPS  H18S 9419   1.644   5.824   7.888  0.2189  0.4636 -0.0233
   95SAPS  C219 9420   1.687   5.817   8.094 -0.1916  0.2899  0.5154
   95SAPS  H19R 9421   1.701   5.709   8.075  0.2713  0.4025  0.1828
   95SAPS  H19S 9422   1.644   5.826   8.195 -0.6035  0.7813  0.3002
   95SAPS  C220 9423   1.824   5.890   8.083 -0.2535  0.2324  0.0413
   95SAPS  H20R 9424   1.860   5.880   7.978  0.8622 -0.9177  0.5094
   95SAPS  H20S 9425   1.907   5.840   8.136 -0.8343 -0.0848  0.6558
   95SAPS  H20T 9426   1.820   5.998   8.112 -0.8260  0.1250  0.3791
   95SAPS   C33 9427   0.187   5.970   6.813  0.3491  0.7686  0.0853
   95SAPS   H3X 9428   0.259   5.949   6.896 -0.3211 -3.6905 -0.1763
   95SAPS   H3Y 9429   0.119   5.883   6.796 -0.9486  2.1825 -2.5031
   95SAPS   C34 9430   0.090   6.083   6.851  0.1624  0.0679 -0.3135
   95SAPS   H4X 9431   0.019   6.092   6.766  1.1655 -0.4144 -1.2212
   95SAPS   H4Y 9432   0.135   6.181   6.876  1.5570 -0.6499  0.0694
   95SAPS   C35 9433   0.021   6.036   6.982  0.5578 -0.1228  0.2945
   95SAPS   H5X 9434   0.083   5.983   7.057 -1.7359 -1.1960  1.4993
   95SAPS   H5Y 9435  -0.068   5.973   6.964 -0.3465  1.4774 -1.0905
   95SAPS   C36 9436  -0.050   6.158   7.043  1.3528 -0.0341 -0.0551
   95SAPS   H6X 9437  -0.141   6.181   6.983  1.1182 -0.5187  0.1109
   95SAPS   H6Y 9438   0.014   6.249   7.044  1.8959 -0.4111  1.6227
   95SAPS   C37 9439  -0.093   6.147   7.191 -0.3603  0.5779 -0.8181
   95SAPS   H7X 9440   0.003   6.134   7.245 -0.1014 -0.3341 -1.4861
   95SAPS   H7Y 9441  -0.146   6.052   7.210  0.3463 -0.5110 -3.8368
   95SAPS   C38 9442  -0.175   6.265   7.237  0.2118  0.8771 -0.2737
   95SAPS   H8X 9443  -0.275   6.242   7.196  0.5798 -0.7230 -0.3265
   95SAPS   H8Y 9444  -0.143   6.363   7.195  1.4620 -0.0108 -1.4848
   95SAPS   C39 9445  -0.188   6.275   7.396  0.4931  0.0863  0.2941
   95SAPS   H9X 9446  -0.267   6.350   7.417  1.6122  0.9591  1.5417
   95SAPS   H9Y 9447  -0.096   6.320   7.440  2.1315 -2.1914 -0.6370
   95SAPS  C310 9448  -0.217   6.147   7.472 -0.5349  0.1257 -0.1540
   95SAPS  H10X 9449  -0.131   6.080   7.452 -1.1080 -1.1447  1.3495
   95SAPS  H10Y 9450  -0.307   6.093   7.435 -0.6347  1.8562 -2.7098
   95SAPS  C311 9451  -0.210   6.168   7.630  0.3032  0.2854  0.3483
   95SAPS  H11X 9452  -0.266   6.256   7.669  1.0854  1.2281 -0.6223
   95SAPS  H11Y 9453  -0.105   6.186   7.660  1.3142 -4.2146  0.1815
   95SAPS  C312 9454  -0.256   6.033   7.694  0.7316 -0.5173 -0.1401
   95SAPS  H12X 9455  -0.196   5.958   7.638  0.0616 -0.8550 -0.4211
   95SAPS  H12Y 9456  -0.362   6.005   7.676  1.1988 -1.5510 -1.4951
   95SAPS  C313 9457  -0.225   6.030   7.847  0.0417  0.4980  0.3332
   95SAPS  H13X 9458  -0.121   6.058   7.875 -0.3041  0.1567  2.1303
   95SAPS  H13Y 9459  -0.240   5.926   7.883  0.1311  0.0945 -0.7616
   95SAPS  C314 9460  -0.296   6.128   7.934  0.2152  0.1698  0.5392
   95SAPS  H14X 9461  -0.406   6.117   7.923  0.3878 -1.6901  0.4086
   95SAPS  H14Y 9462  -0.273   6.228   7.891  1.4833 -0.9840 -1.5469
   95SAPS  C315 9463  -0.264   6.145   8.085  0.8034  0.1303 -0.1108
   95SAPS  H15X 9464  -0.318   6.233   8.125 -1.4271 -1.5912  0.8730
   95SAPS  H15Y 9465  -0.158   6.173   8.106  0.5066  0.3500  1.1696
   95SAPS  C316 9466  -0.294   6.013   8.162 -0.7999  0.6475 -0.5165
   95SAPS  H16X 9467  -0.220   5.943   8.117 -0.3582 -0.3327  1.5899
   95SAPS  H16Y 9468  -0.397   5.972   8.154 -0.5501 -0.3988  1.0675
   95SAPS  C317 9469  -0.264   6.043   8.308 -0.5779 -0.0528 -0.9298
   95SAPS  H17X 9470  -0.317   6.133   8.345  0.4544 -0.0418  0.5778
   95SAPS  H17Y 9471  -0.157   6.062   8.326 -0.7464 -0.5322  0.7308
   95SAPS  C318 9472  -0.314   5.930   8.404 -0.3214 -0.2705  0.2177
   95SAPS  H18X 9473  -0.424   5.925   8.419 -0.4673  1.3962 -0.0857
   95SAPS  H18Y 9474  -0.268   5.953   8.502  1.4386  2.0754 -1.0478
   95SAPS  H18Z 9475  -0.285   5.834   8.355  1.5069  0.7977 -0.9239
   96SAPS     N 9476   0.415   0.703   6.403 -0.0572  0.2160  0.0977
   96SAPS   HN1 9477   0.396   0.602   6.417  2.2209 -0.2896 -0.1350
   96SAPS   HN2 9478   0.471   0.723   6.489 -0.7948 -1.0449  0.8987
   96SAPS   HN3 9479   0.326   0.756   6.398 -0.5380 -0.3229  1.9609
   96SAPS   C12 9480   0.501   0.723   6.278  0.1867 -0.3557 -0.1395
   96SAPS  H12A 9481   0.599   0.681   6.292  0.9685  1.0150 -1.2789
   96SAPS   C13 9482   0.450   0.658   6.150  0.0409  0.1112  0.0121
   96SAPS  O13A 9483   0.372   0.559   6.156 -0.1057 -0.0201 -0.1598
   96SAPS  O13B 9484   0.520   0.666   6.048  0.1076  0.0092  0.0239
   96SAPS   C11 9485   0.539   0.874   6.266 -0.3635 -0.1581  0.3344
   96SAPS  H11A 9486   0.444   0.928   6.248  0.4285  1.5000  0.9466
   96SAPS  H11B 9487   0.605   0.878   6.177 -0.8734 -0.4220 -0.0638
   96SAPS     P 9488   0.713   1.027   6.398 -0.0771 -0.0458 -0.3775
   96SAPS   O13 9489   0.770   1.056   6.263 -0.0380 -0.5529  0.0782
   96SAPS   O14 9490   0.659   1.141   6.474 -0.6614 -0.2883  0.5542
   96SAPS   O12 9491   0.594   0.925   6.381  0.1833  0.2009 -0.7254
   96SAPS   O11 9492   0.824   0.955   6.480  1.1339 -0.3226  0.0281
   96SAPS    C1 9493   0.804   0.836   6.570 -0.6345 -0.2040  0.3687
   96SAPS    HA 9494   0.720   0.777   6.528  0.0299  0.5025 -2.1234
   96SAPS    HB 9495   0.897   0.776   6.568  0.0742  0.7518  1.8869
   96SAPS    C2 9496   0.785   0.868   6.717 -0.7708  0.6564 -0.5264
   96SAPS    HS 9497   0.758   0.773   6.768 -1.0692 -0.0919 -2.0308
   96SAPS   O21 9498   0.689   0.959   6.746  1.0436 -0.2502  0.3086
   96SAPS   C21 9499   0.556   0.915   6.727  0.0230 -0.0327 -0.3692
   96SAPS   O22 9500   0.521   0.818   6.662 -0.5078 -0.1096 -0.6674
   96SAPS   C22 9501   0.455   1.007   6.799 -0.5785  0.1826 -0.0687
   96SAPS   H2R 9502   0.512   1.096   6.833 -0.8100  0.4445 -0.3709
   96SAPS   H2S 9503   0.380   1.035   6.723 -2.2939 -0.8507  1.1811
   96SAPS    C3 9504   0.919   0.914   6.771 -0.7879 -0.0865  0.3314
   96SAPS    HX 9505   0.962   0.989   6.700  1.1001 -1.1996  0.2373
   96SAPS    HY 9506   0.982   0.823   6.776 -1.9075 -1.0632 -1.6789
   96SAPS   O31 9507   0.915   0.968   6.907  0.8308 -0.3690 -0.3918
   96SAPS   C31 9508   0.920   1.105   6.917 -0.6827  1.2083 -0.0361
   96SAPS   O32 9509   0.951   1.180   6.829  0.0899 -0.6179  0.2358
   96SAPS   C32 9510   0.903   1.145   7.065 -0.4934 -0.0226  0.2846
   96SAPS   H2X 9511   0.995   1.200   7.092 -0.9964  0.4780  0.9935
   96SAPS   H2Y 9512   0.898   1.063   7.140  1.4279 -1.1337 -0.7270
   96SAPS   C23 9513   0.381   0.935   6.912  0.0751  0.6409 -0.2121
   96SAPS   H3R 9514   0.457   0.896   6.983  0.3129 -0.0610 -0.8338
   96SAPS   H3S 9515   0.326   0.844   6.880 -1.2121  1.5391 -0.6302
   96SAPS   C24 9516   0.267   1.028   6.982 -0.2476 -0.5910 -0.3111
   96SAPS   H4R 9517   0.197   0.969   7.045 -0.6815 -0.8699 -1.0382
   96SAPS   H4S 9518   0.196   1.059   6.902 -0.7379  0.6819  0.5769
   96SAPS   C25 9519   0.312   1.154   7.047 -0.6650 -0.5715  0.0440
   96SAPS   H5R 9520   0.320   1.232   6.970  0.7649 -0.7597 -0.0165
   96SAPS   C26 9521   0.331   1.185   7.182 -0.3884 -0.7250  0.4978
   96SAPS   H6R 9522   0.358   1.288   7.207 -0.4621  0.2987 -3.0653
   96SAPS   C27 9523   0.309   1.098   7.303  0.4227 -0.5262  0.2963
   96SAPS   H7R 9524   0.315   0.991   7.275  2.6344 -0.4183  0.1922
   96SAPS   H7S 9525   0.206   1.103   7.345  1.0450  1.1093  1.7575
   96SAPS   C28 9526   0.406   1.134   7.413  0.0774  0.6857  0.5942
   96SAPS   H8R 9527   0.511   1.111   7.390  0.1209  1.5662 -0.1800
   96SAPS   C29 9528   0.376   1.169   7.540 -0.0360  0.2603 -0.1450
   96SAPS   H9R 9529   0.462   1.200   7.601 -0.2179  0.2228  0.1311
   96SAPS  C210 9530   0.240   1.199   7.605 -0.0420 -0.1893 -0.3190
   96SAPS  H10R 9531   0.178   1.253   7.531  1.8960  1.8371 -0.5638
   96SAPS  H10S 9532   0.257   1.273   7.686  1.7774  1.8301 -2.3920
   96SAPS  C211 9533   0.174   1.075   7.652 -0.1589 -1.0913 -0.2792
   96SAPS  H11R 9534   0.098   1.044   7.580 -2.0375  0.8372  0.7468
   96SAPS  C212 9535   0.192   1.017   7.768  0.1079 -0.9136 -0.3395
   96SAPS  H12R 9536   0.146   0.919   7.787 -1.6481 -0.1393 -0.4111
   96SAPS  C213 9537   0.286   1.073   7.876  0.7135  0.1957 -0.2546
   96SAPS  H13R 9538   0.307   1.182   7.865 -0.8292  0.4719 -0.7063
   96SAPS  H13S 9539   0.385   1.025   7.859 -0.1371 -1.3156 -1.1724
   96SAPS  C214 9540   0.248   1.032   8.013 -0.1738 -0.0156 -0.2129
   96SAPS  H14R 9541   0.301   0.946   8.056 -1.1918 -0.4134  0.2584
   96SAPS  C215 9542   0.162   1.103   8.087 -0.1461  0.1159  0.7618
   96SAPS  H15R 9543   0.143   1.069   8.190 -0.2499  0.4013  0.8377
   96SAPS  C216 9544   0.089   1.223   8.048  0.6916  0.0450  1.0676
   96SAPS  H16R 9545  -0.006   1.227   8.105 -1.1292  1.3693 -1.8198
   96SAPS  H16S 9546   0.059   1.233   7.941  2.7343  0.2451  0.4661
   96SAPS  C217 9547   0.149   1.354   8.106 -0.3384  0.0584  0.4108
   96SAPS  H17R 9548   0.161   1.341   8.215  0.3880  2.2752  0.6367
   96SAPS  H17S 9549   0.073   1.435   8.107 -0.8032 -0.3733  0.7440
   96SAPS  C218 9550   0.278   1.396   8.033  0.3766 -0.3195  0.4697
   96SAPS  H18R 9551   0.253   1.425   7.929 -0.2663  1.8350  1.1830
   96SAPS  H18S 9552   0.358   1.318   8.030  2.6979  1.9387  0.6758
   96SAPS  C219 9553   0.343   1.509   8.106 -0.2045  0.4977 -0.6236
   96SAPS  H19R 9554   0.295   1.606   8.085  1.4692  2.3602  3.2060
   96SAPS  H19S 9555   0.449   1.521   8.075  0.5254  0.4278  1.6845
   96SAPS  C220 9556   0.347   1.505   8.263 -0.3731  0.3991 -0.1831
   96SAPS  H20R 9557   0.243   1.524   8.295 -0.6004  1.0554 -1.2664
   96SAPS  H20S 9558   0.419   1.581   8.302 -0.0810  0.1038 -0.1376
   96SAPS  H20T 9559   0.376   1.400   8.286 -2.4452 -0.2438 -0.3406
   96SAPS   C33 9560   0.790   1.247   7.077  0.2450 -0.0352 -0.0374
   96SAPS   H3X 9561   0.687   1.207   7.064  0.1345  0.6576 -1.4766
   96SAPS   H3Y 9562   0.800   1.318   6.992 -2.6693 -1.1489 -1.4552
   96SAPS   C34 9563   0.789   1.329   7.204  0.0614 -1.1865  0.1205
   96SAPS   H4X 9564   0.702   1.397   7.193  2.3878  1.8534 -0.7829
   96SAPS   H4Y 9565   0.879   1.395   7.207 -0.4392 -0.4308  4.0326
   96SAPS   C35 9566   0.782   1.252   7.332  0.4312 -0.2951 -0.1133
   96SAPS   H5X 9567   0.849   1.163   7.330  1.5732  0.5007  1.0154
   96SAPS   H5Y 9568   0.676   1.219   7.330 -0.3296  1.9959 -0.3781
   96SAPS   C36 9569   0.811   1.330   7.455  0.1868  0.2531 -0.2606
   96SAPS   H6X 9570   0.744   1.418   7.457  0.6237  0.5781  0.2512
   96SAPS   H6Y 9571   0.913   1.372   7.450 -0.3140  1.5475  0.0480
   96SAPS   C37 9572   0.794   1.250   7.590  0.2900  0.4952 -0.2908
   96SAPS   H7X 9573   0.871   1.171   7.593  1.2593  1.3340 -2.0360
   96SAPS   H7Y 9574   0.694   1.202   7.591  1.5512 -2.4102  2.0701
   96SAPS   C38 9575   0.817   1.346   7.705 -0.2122  0.4947  0.2684
   96SAPS   H8X 9576   0.760   1.440   7.692  0.9680  1.1515 -0.3181
   96SAPS   H8Y 9577   0.923   1.378   7.701  0.2750 -1.1422 -1.7698
   96SAPS   C39 9578   0.780   1.293   7.844 -0.1597 -0.8226  0.5885
   96SAPS   H9X 9579   0.862   1.341   7.902  0.0424 -1.9231  1.2467
   96SAPS   H9Y 9580   0.792   1.183   7.854  0.8922 -0.7491  0.3021
   96SAPS  C310 9581   0.647   1.342   7.904  0.0639  0.6758 -0.0674
   96SAPS  H10X 9582   0.574   1.265   7.872  0.5260 -0.1965  0.8954
   96SAPS  H10Y 9583   0.631   1.445   7.867 -0.0338  0.5618 -0.3444
   96SAPS  C311 9584   0.663   1.340   8.057  0.2438  0.9412  0.0074
   96SAPS  H11X 9585   0.677   1.233   8.083  0.0251  1.2219  1.3296
   96SAPS  H11Y 9586   0.566   1.377   8.098  0.4048  0.0593  1.2187
   96SAPS  C312 9587   0.775   1.428   8.111 -0.3311 -0.2524  0.3758
   96SAPS  H12X 9588   0.871   1.374   8.099 -0.7986 -0.7568 -1.4510
   96SAPS  H12Y 9589   0.764   1.427   8.222 -1.4806 -1.0328  0.2656
   96SAPS  C313 9590   0.787   1.575   8.069 -0.4931 -0.4836  0.2707
   96SAPS  H13X 9591   0.703   1.632   8.114 -2.4772 -0.9611 -2.5740
   96SAPS  H13Y 9592   0.795   1.580   7.958 -1.4918 -1.9929  0.1149
   96SAPS  C314 9593   0.927   1.630   8.118  0.0614 -0.2865 -0.1479
   96SAPS  H14X 9594   0.941   1.727   8.066  0.3947  0.3020  1.0188
   96SAPS  H14Y 9595   1.004   1.555   8.090 -0.2626 -0.2705 -1.1338
   96SAPS  C315 9596   0.946   1.664   8.268 -0.2260  0.2352  0.0268
   96SAPS  H15X 9597   1.031   1.614   8.319  0.5104 -0.3342 -1.7048
   96SAPS  H15Y 9598   0.854   1.628   8.319 -0.1825 -0.8368 -0.6311
   96SAPS  C316 9599   0.969   1.815   8.301 -0.6945  0.0387 -0.2493
   96SAPS  H16X 9600   0.894   1.875   8.245  0.3652  2.4195  0.7262
   96SAPS  H16Y 9601   1.062   1.850   8.250 -0.8784  1.0329  0.0648
   96SAPS  C317 9602   0.975   1.846   8.455 -0.2684 -0.5833 -0.1981
   96SAPS  H17X 9603   1.065   1.821   8.514 -0.4768  0.9282  0.7940
   96SAPS  H17Y 9604   0.894   1.789   8.504 -0.0865 -1.0887 -0.4801
   96SAPS  C318 9605   0.948   1.997   8.474  0.1009 -0.6911  0.1297
   96SAPS  H18X 9606   0.936   2.029   8.580 -1.2645 -0.5138 -0.0564
   96SAPS  H18Y 9607   0.852   2.013   8.421 -0.7855  1.8416  2.2668
   96SAPS  H18Z 9608   1.036   2.048   8.430 -1.9442  3.1520  0.0346
   97SAPS     N 9609   1.202   4.221   6.393  0.0403  0.5526 -1.2421
   97SAPS   HN1 9610   1.303   4.198   6.406 -0.1959 -1.4929 -2.6011
   97SAPS   HN2 9611   1.154   4.235   6.485  0.7287  0.1332 -0.8103
   97SAPS   HN3 9612   1.165   4.135   6.349 -1.8173  2.2654 -3.2632
   97SAPS   C12 9613   1.176   4.330   6.299 -0.2702 -0.3648 -0.1995
   97SAPS  H12A 9614   1.201   4.294   6.200 -0.2477  0.6679 -0.5756
   97SAPS   C13 9615   1.033   4.388   6.280  0.1782 -0.3844  0.9794
   97SAPS  O13A 9616   0.934   4.314   6.316  0.0321 -0.1069 -0.1669
   97SAPS  O13B 9617   1.015   4.488   6.205  0.1192 -0.0876  0.1870
   97SAPS   C11 9618   1.276   4.448   6.324 -0.5382  0.2338 -0.2483
   97SAPS  H11A 9619   1.237   4.510   6.408  2.3958  2.1698 -0.2057
   97SAPS  H11B 9620   1.270   4.510   6.232  1.3240  0.3924 -0.2973
   97SAPS     P 9621   1.533   4.504   6.301 -0.6206 -0.1543  0.0284
   97SAPS   O13 9622   1.662   4.435   6.315 -0.7077 -0.0479 -0.5833
   97SAPS   O14 9623   1.501   4.556   6.166 -0.4209  0.2537 -0.2947
   97SAPS   O12 9624   1.415   4.418   6.353 -0.3530  0.0376  0.0963
   97SAPS   O11 9625   1.521   4.632   6.400  0.4939  0.1320 -0.7696
   97SAPS    C1 9626   1.585   4.629   6.529 -0.8222 -0.4705 -0.6553
   97SAPS    HA 9627   1.630   4.532   6.559  2.3822  1.5344  1.5807
   97SAPS    HB 9628   1.670   4.699   6.521  0.1592 -1.3820  1.2327
   97SAPS    C2 9629   1.492   4.674   6.649  0.1764 -0.5324 -0.1751
   97SAPS    HS 9630   1.448   4.772   6.621  0.1050 -0.9201 -1.4606
   97SAPS   O21 9631   1.571   4.662   6.769  0.2107  0.0335  0.3844
   97SAPS   C21 9632   1.561   4.770   6.852  0.1582 -0.7266 -0.0879
   97SAPS   O22 9633   1.492   4.869   6.821 -0.3275 -0.0142 -0.1667
   97SAPS   C22 9634   1.635   4.753   6.979 -1.0273  0.5131 -0.4935
   97SAPS   H2R 9635   1.617   4.655   7.029  0.3573  0.5499  0.1129
   97SAPS   H2S 9636   1.738   4.739   6.940 -0.9442 -0.8919  0.1541
   97SAPS    C3 9637   1.378   4.570   6.666  0.3640 -0.3634  0.4709
   97SAPS    HX 9638   1.427   4.471   6.653  0.1971 -0.0681 -3.8357
   97SAPS    HY 9639   1.315   4.590   6.577  0.4885  1.5820  0.7914
   97SAPS   O31 9640   1.308   4.576   6.794 -0.1155  0.0483 -0.2997
   97SAPS   C31 9641   1.186   4.635   6.782  0.0118 -0.6976  0.2569
   97SAPS   O32 9642   1.136   4.675   6.682  0.2334 -0.0989  0.6774
   97SAPS   C32 9643   1.112   4.611   6.909  0.8909  0.0535 -0.5950
   97SAPS   H2X 9644   1.181   4.587   6.992  1.7795 -1.8945 -1.8341
   97SAPS   H2Y 9645   1.047   4.522   6.893  1.0596 -0.3415  0.7677
   97SAPS   C23 9646   1.626   4.873   7.074  0.0608 -0.0744  0.4784
   97SAPS   H3R 9647   1.523   4.881   7.116 -1.1370  0.3932 -2.3494
   97SAPS   H3S 9648   1.645   4.964   7.013  0.7318 -1.0534 -0.8331
   97SAPS   C24 9649   1.725   4.864   7.187  0.1595  0.6011  0.2535
   97SAPS   H4R 9650   1.720   4.962   7.240 -0.0584  0.4650  0.4879
   97SAPS   H4S 9651   1.823   4.849   7.137 -0.4428 -1.7520 -0.3471
   97SAPS   C25 9652   1.703   4.747   7.276 -0.3509  0.9718 -0.1564
   97SAPS   H5R 9653   1.721   4.646   7.239  3.5587  0.4717  2.4578
   97SAPS   C26 9654   1.677   4.750   7.407 -0.0799 -0.3130 -0.8340
   97SAPS   H6R 9655   1.656   4.659   7.465 -2.4264 -0.5233 -1.9175
   97SAPS   C27 9656   1.655   4.872   7.484  0.8033 -0.0021 -0.4875
   97SAPS   H7R 9657   1.553   4.866   7.528 -0.2103  0.1077 -2.6646
   97SAPS   H7S 9658   1.650   4.961   7.418 -0.3234 -0.9523 -1.7472
   97SAPS   C28 9659   1.756   4.904   7.593 -0.3524  0.6587  0.9297
   97SAPS   H8R 9660   1.836   4.965   7.548 -1.0074  1.3986  0.7543
   97SAPS   C29 9661   1.756   4.872   7.719  0.0588  0.2393  0.0582
   97SAPS   H9R 9662   1.832   4.920   7.781 -0.6598  2.7895 -0.9034
   97SAPS  C210 9663   1.650   4.787   7.799 -0.2807 -0.4585  0.4731
   97SAPS  H10R 9664   1.611   4.710   7.730 -2.7656  1.4659 -0.4114
   97SAPS  H10S 9665   1.560   4.847   7.826 -0.1425  0.2631 -0.5892
   97SAPS  C211 9666   1.709   4.725   7.924  0.0993  0.0696  0.1844
   97SAPS  H11R 9667   1.709   4.615   7.921 -1.8731 -0.0092  1.4327
   97SAPS  C212 9668   1.732   4.784   8.041 -0.0713 -0.1376 -0.2406
   97SAPS  H12R 9669   1.780   4.725   8.120 -0.4015  1.3119  1.0825
   97SAPS  C213 9670   1.717   4.928   8.077  0.1470 -0.1604 -0.0798
   97SAPS  H13R 9671   1.633   4.976   8.022 -3.6946 -2.5936  3.0984
   97SAPS  H13S 9672   1.807   4.979   8.038  0.1165  2.4677  2.9025
   97SAPS  C214 9673   1.704   4.951   8.225  0.7971  0.5537 -0.0185
   97SAPS  H14R 9674   1.601   4.954   8.263  0.2254  0.2590 -1.4668
   97SAPS  C215 9675   1.810   4.955   8.314 -0.2212  0.1571  0.4234
   97SAPS  H15R 9676   1.782   4.971   8.419 -3.8112  1.7695 -0.6243
   97SAPS  C216 9677   1.953   4.931   8.285 -0.5839 -0.5138  0.9432
   97SAPS  H16R 9678   2.017   5.021   8.275 -0.2962 -0.8065 -0.0257
   97SAPS  H16S 9679   1.974   4.879   8.189 -0.2876  0.7158  0.3311
   97SAPS  C217 9680   2.014   4.851   8.399 -0.2863 -0.2283  0.4049
   97SAPS  H17R 9681   2.121   4.845   8.371 -0.5904  0.0703 -0.8940
   97SAPS  H17S 9682   1.974   4.748   8.414  2.2017 -1.0120  2.3657
   97SAPS  C218 9683   2.023   4.936   8.532 -0.0695  0.6125  0.1208
   97SAPS  H18R 9684   1.921   4.975   8.555 -1.0068 -1.2154 -0.6777
   97SAPS  H18S 9685   2.090   5.023   8.518  1.0102 -0.0559  1.0398
   97SAPS  C219 9686   2.068   4.857   8.651  0.2678  0.5272 -1.4000
   97SAPS  H19R 9687   2.161   4.799   8.632  0.8151  1.0016 -0.2783
   97SAPS  H19S 9688   1.981   4.789   8.663  0.6123 -0.0589 -2.1046
   97SAPS  C220 9689   2.081   4.938   8.778  0.4852  0.1152 -0.6481
   97SAPS  H20R 9690   2.027   4.891   8.863  1.3232  0.4604  0.0893
   97SAPS  H20S 9691   2.026   5.033   8.765 -1.6739 -0.5826  2.2171
   97SAPS  H20T 9692   2.185   4.963   8.809  0.0428 -1.0492  2.0260
   97SAPS   C33 9693   1.023   4.736   6.942 -0.0539  0.6345 -0.7876
   97SAPS   H3X 9694   0.972   4.702   7.035  0.4431  1.6250 -0.1444
   97SAPS   H3Y 9695   0.950   4.769   6.865 -1.2467 -0.8882 -0.3568
   97SAPS   C34 9696   1.093   4.869   6.977 -0.0133  0.8591  0.3403
   97SAPS   H4X 9697   1.016   4.936   7.020 -0.4898 -0.7745  2.2052
   97SAPS   H4Y 9698   1.122   4.919   6.882 -1.8145 -2.1971 -2.0006
   97SAPS   C35 9699   1.201   4.864   7.089  0.3500 -0.2882  0.1901
   97SAPS   H5X 9700   1.252   4.963   7.098  1.8246 -1.0470  0.4338
   97SAPS   H5Y 9701   1.289   4.798   7.072  1.0091 -0.0049  2.1782
   97SAPS   C36 9702   1.124   4.854   7.224 -0.5448  0.1896  0.3289
   97SAPS   H6X 9703   1.091   4.749   7.235  2.1197 -0.6888  0.7984
   97SAPS   H6Y 9704   1.033   4.918   7.226 -0.2364  0.6198  1.5166
   97SAPS   C37 9705   1.211   4.881   7.346  0.4518 -0.2742  0.7926
   97SAPS   H7X 9706   1.232   4.990   7.359 -1.4334  0.5533 -2.1910
   97SAPS   H7Y 9707   1.306   4.824   7.344  0.5480 -0.1827  1.9851
   97SAPS   C38 9708   1.133   4.840   7.471 -0.1208  0.3058 -0.4733
   97SAPS   H8X 9709   1.113   4.732   7.461 -1.3717  0.4695  0.0990
   97SAPS   H8Y 9710   1.037   4.895   7.477 -0.3197 -0.0602 -0.2803
   97SAPS   C39 9711   1.220   4.853   7.598  0.1637 -0.4929 -0.2038
   97SAPS   H9X 9712   1.258   4.957   7.593 -0.9519 -0.1045 -0.9967
   97SAPS   H9Y 9713   1.308   4.785   7.598 -1.2966 -2.5574  2.2469
   97SAPS  C310 9714   1.148   4.832   7.731  0.1859  0.4367  0.3085
   97SAPS  H10X 9715   1.148   4.721   7.736  0.6275  0.3352 -1.3089
   97SAPS  H10Y 9716   1.045   4.875   7.726  1.4651  3.8343  0.9168
   97SAPS  C311 9717   1.221   4.894   7.848  0.5015  0.0663 -0.5587
   97SAPS  H11X 9718   1.203   5.003   7.837  4.8261  0.7303 -4.3398
   97SAPS  H11Y 9719   1.329   4.866   7.849 -0.0101 -2.0579 -0.4504
   97SAPS  C312 9720   1.169   4.835   7.982 -0.0304  0.4478 -0.6314
   97SAPS  H12X 9721   1.191   4.726   7.980 -0.9110  0.1634  1.8086
   97SAPS  H12Y 9722   1.060   4.857   7.987 -0.4315 -1.3690 -0.7662
   97SAPS  C313 9723   1.246   4.883   8.107 -0.4195  0.2989 -0.3553
   97SAPS  H13X 9724   1.247   4.993   8.119 -0.1876  0.3979 -1.1929
   97SAPS  H13Y 9725   1.353   4.851   8.110 -0.8524 -1.1629  1.8571
   97SAPS  C314 9726   1.183   4.826   8.243  0.3662  0.3394  0.8690
   97SAPS  H14X 9727   1.163   4.717   8.226  1.1784  0.6063 -2.7001
   97SAPS  H14Y 9728   1.084   4.877   8.245 -0.1363 -0.3718 -1.5391
   97SAPS  C315 9729   1.267   4.839   8.367  0.1613  0.4296 -0.6695
   97SAPS  H15X 9730   1.367   4.790   8.361  0.5154  1.1196 -0.5167
   97SAPS  H15Y 9731   1.211   4.794   8.451 -1.6248  1.2718 -1.3781
   97SAPS  C316 9732   1.289   4.986   8.395  0.4804  0.4617  0.2973
   97SAPS  H16X 9733   1.186   5.030   8.395 -0.3760 -1.3058 -2.5153
   97SAPS  H16Y 9734   1.346   5.029   8.310  1.2616 -2.5994 -0.8517
   97SAPS  C317 9735   1.372   5.012   8.524  0.3066 -0.3636 -0.6168
   97SAPS  H17X 9736   1.460   4.944   8.521 -0.6418 -1.6107 -1.2111
   97SAPS  H17Y 9737   1.309   4.967   8.603  1.0820 -2.2906 -1.0251
   97SAPS  C318 9738   1.406   5.161   8.543  0.0697 -0.0445 -0.0085
   97SAPS  H18X 9739   1.317   5.227   8.549 -0.8304 -1.1027 -1.0382
   97SAPS  H18Y 9740   1.480   5.195   8.467 -2.0411  0.8068 -1.7833
   97SAPS  H18Z 9741   1.457   5.172   8.641  1.8101  0.9852 -0.9772
   98SAPS     N 9742   0.637   5.073   6.222  0.8958 -0.1306  0.2641
   98SAPS   HN1 9743   0.665   5.142   6.295  0.6572  1.6179 -1.2261
   98SAPS   HN2 9744   0.535   5.056   6.226  0.8740 -1.0700 -2.3965
   98SAPS   HN3 9745   0.689   4.985   6.239 -0.8257 -1.2296  0.0638
   98SAPS   C12 9746   0.660   5.133   6.090 -0.6141  0.2062 -0.1757
   98SAPS  H12A 9747   0.746   5.196   6.100 -0.4783 -0.1337  0.9456
   98SAPS   C13 9748   0.673   5.028   5.972  0.6347  0.0612 -0.4809
   98SAPS  O13A 9749   0.678   4.905   6.008  0.1961 -0.4211  0.7356
   98SAPS  O13B 9750   0.716   5.065   5.861 -0.4018 -0.1655  0.5519
   98SAPS   C11 9751   0.549   5.232   6.057 -0.3742  0.3264 -0.4429
   98SAPS  H11A 9752   0.452   5.178   6.058 -0.6519  0.8139  0.0522
   98SAPS  H11B 9753   0.556   5.268   5.953  0.0307  0.0525 -0.5103
   98SAPS     P 9754   0.429   5.445   6.160  0.0923 -0.2510  0.4869
   98SAPS   O13 9755   0.447   5.558   6.073  0.1811  0.2024  0.5183
   98SAPS   O14 9756   0.304   5.369   6.136  0.5693  0.1461  0.6848
   98SAPS   O12 9757   0.554   5.345   6.140  0.0489 -0.0516 -0.0962
   98SAPS   O11 9758   0.435   5.481   6.313 -0.7231  0.1212  0.8104
   98SAPS    C1 9759   0.429   5.371   6.407  0.1518  0.3828  0.8785
   98SAPS    HA 9760   0.332   5.318   6.404  1.4400 -2.1679  2.0479
   98SAPS    HB 9761   0.511   5.300   6.383 -0.6157 -0.6294  1.2125
   98SAPS    C2 9762   0.445   5.424   6.552  1.0587  0.0066  0.2540
   98SAPS    HS 9763   0.423   5.343   6.625  0.0524  2.5212  2.9371
   98SAPS   O21 9764   0.345   5.519   6.574 -0.4251  0.0440 -0.0990
   98SAPS   C21 9765   0.226   5.474   6.612  0.6502  0.6718 -0.2862
   98SAPS   O22 9766   0.187   5.356   6.613 -0.4150 -0.3731  0.4986
   98SAPS   C22 9767   0.133   5.577   6.667  0.1414  0.6373 -0.4324
   98SAPS   H2R 9768   0.181   5.677   6.674 -0.7650  1.0172  0.5783
   98SAPS   H2S 9769   0.048   5.587   6.596  0.4043 -0.1556 -0.8719
   98SAPS    C3 9770   0.585   5.482   6.586  0.3738  0.3626 -0.3487
   98SAPS    HX 9771   0.628   5.555   6.515 -1.8708  2.2191  0.0739
   98SAPS    HY 9772   0.649   5.391   6.578  0.2755  0.0114  1.9407
   98SAPS   O31 9773   0.584   5.529   6.723 -0.1524 -0.3847 -0.3520
   98SAPS   C31 9774   0.577   5.663   6.732 -0.6185  0.0517 -0.0903
   98SAPS   O32 9775   0.565   5.741   6.638 -0.0073  0.1300 -0.4402
   98SAPS   C32 9776   0.569   5.700   6.881 -0.1142  0.4254  1.5497
   98SAPS   H2X 9777   0.662   5.755   6.906  0.2215 -0.4527  2.2741
   98SAPS   H2Y 9778   0.567   5.606   6.940  1.1916 -1.0753 -0.6579
   98SAPS   C23 9779   0.064   5.535   6.802  0.5784  0.3762 -0.5092
   98SAPS   H3R 9780   0.013   5.437   6.787  1.1421 -0.5395  2.8628
   98SAPS   H3S 9781   0.001   5.616   6.843 -2.9225 -1.6820 -1.3875
   98SAPS   C24 9782   0.176   5.498   6.901  0.2907  0.3367 -0.5792
   98SAPS   H4R 9783   0.227   5.597   6.897 -0.8481  0.9395 -0.7065
   98SAPS   H4S 9784   0.241   5.419   6.858  0.1566  0.3004 -0.7165
   98SAPS   C25 9785   0.129   5.453   7.037  0.5974 -0.0272  0.3662
   98SAPS   H5R 9786   0.118   5.345   7.056 -0.3445  0.3364  2.1574
   98SAPS   C26 9787   0.118   5.532   7.143  0.7454  0.6108  0.0813
   98SAPS   H6R 9788   0.085   5.490   7.238  3.3171  3.7149  2.6055
   98SAPS   C27 9789   0.133   5.679   7.140 -0.3083 -0.0970 -0.6895
   98SAPS   H7R 9790   0.156   5.724   7.041 -0.9585  0.8125 -0.4408
   98SAPS   H7S 9791   0.230   5.705   7.188  0.3900 -1.1478 -1.4874
   98SAPS   C28 9792   0.023   5.745   7.211 -0.3127 -0.3736  0.8370
   98SAPS   H8R 9793  -0.064   5.756   7.145 -0.3714  0.8008  1.0974
   98SAPS   C29 9794   0.015   5.787   7.336  0.3032 -0.3302  0.2416
   98SAPS   H9R 9795  -0.079   5.826   7.378  0.1609 -1.9578  1.5345
   98SAPS  C210 9796   0.130   5.786   7.433 -0.4246 -0.5559  0.7680
   98SAPS  H10R 9797   0.182   5.884   7.420  1.8621 -1.5239  2.1024
   98SAPS  H10S 9798   0.212   5.713   7.417 -0.4953 -0.6853  0.9900
   98SAPS  C211 9799   0.073   5.765   7.571  0.0615  0.1558  0.3000
   98SAPS  H11R 9800   0.017   5.673   7.591  0.2494  0.3176  1.6097
   98SAPS  C212 9801   0.099   5.845   7.677 -0.8530  0.2902  0.7302
   98SAPS  H12R 9802   0.068   5.803   7.775  1.2653 -1.8932  0.5588
   98SAPS  C213 9803   0.197   5.963   7.687 -0.1816 -0.4905  0.0754
   98SAPS  H13R 9804   0.199   6.031   7.599  1.0206 -0.4061  0.1468
   98SAPS  H13S 9805   0.302   5.926   7.690  0.2316  0.5374 -0.8672
   98SAPS  C214 9806   0.182   6.046   7.814 -0.1898  0.0359 -0.4451
   98SAPS  H14R 9807   0.092   6.109   7.808  1.4742  2.5748 -0.3930
   98SAPS  C215 9808   0.250   6.038   7.932 -0.3241 -0.5595 -0.7361
   98SAPS  H15R 9809   0.218   6.114   8.005  0.7534 -0.2555 -0.5572
   98SAPS  C216 9810   0.371   5.954   7.965 -0.3192  0.5516  0.1969
   98SAPS  H16R 9811   0.433   5.930   7.876  1.5998 -0.0709  1.6206
   98SAPS  H16S 9812   0.334   5.854   7.995 -0.2650  0.2005 -0.8775
   98SAPS  C217 9813   0.474   5.996   8.075  0.3412 -0.1571  0.0886
   98SAPS  H17R 9814   0.536   6.078   8.034  2.0340 -1.3919  0.0669
   98SAPS  H17S 9815   0.546   5.918   8.107  1.4913  1.9119  3.0388
   98SAPS  C218 9816   0.398   6.028   8.209 -0.2569  0.4070 -0.3756
   98SAPS  H18R 9817   0.325   5.950   8.237 -1.8789  1.5370 -1.2951
   98SAPS  H18S 9818   0.341   6.123   8.197 -1.7292 -0.3728  0.2873
   98SAPS  C219 9819   0.499   6.045   8.330  0.2601 -0.6451 -0.3205
   98SAPS  H19R 9820   0.433   6.089   8.408  0.2643 -0.9658 -0.1326
   98SAPS  H19S 9821   0.580   6.116   8.306  0.4702 -1.0913 -0.9720
   98SAPS  C220 9822   0.536   5.909   8.381 -0.0318 -0.0865 -0.3895
   98SAPS  H20R 9823   0.593   5.927   8.474  0.2206 -0.4665 -0.4675
   98SAPS  H20S 9824   0.606   5.855   8.313  0.4327  0.1157 -0.0704
   98SAPS  H20T 9825   0.443   5.852   8.404 -1.2998  2.1077  0.2125
   98SAPS   C33 9826   0.459   5.791   6.924 -0.2776 -0.3492 -0.2020
   98SAPS   H3X 9827   0.359   5.743   6.909  0.1142 -1.3996  0.4473
   98SAPS   H3Y 9828   0.454   5.882   6.861  1.2969  0.3361  0.6380
   98SAPS   C34 9829   0.471   5.806   7.072  0.4457  0.4381 -0.6456
   98SAPS   H4X 9830   0.475   5.704   7.117  0.9044  0.7502  0.0347
   98SAPS   H4Y 9831   0.375   5.846   7.111  0.7128  1.9869 -1.4998
   98SAPS   C35 9832   0.584   5.891   7.121 -0.4870  0.1394  0.2602
   98SAPS   H5X 9833   0.573   5.988   7.067  1.0575  0.0096 -0.3451
   98SAPS   H5Y 9834   0.676   5.833   7.095 -1.2802 -0.5135 -1.1989
   98SAPS   C36 9835   0.580   5.911   7.272  0.6964 -0.4002  0.3440
   98SAPS   H6X 9836   0.475   5.932   7.301  0.4132  0.8105 -1.3846
   98SAPS   H6Y 9837   0.644   5.997   7.302  0.1269  0.0588  0.2670
   98SAPS   C37 9838   0.637   5.799   7.351 -0.7319 -0.7777 -0.3053
   98SAPS   H7X 9839   0.747   5.805   7.338 -0.7029 -0.7141 -0.0411
   98SAPS   H7Y 9840   0.605   5.696   7.323 -0.8257 -0.5366 -1.1003
   98SAPS   C38 9841   0.597   5.815   7.496 -1.0234 -0.8695 -0.1183
   98SAPS   H8X 9842   0.488   5.804   7.514 -1.2174 -0.3816 -0.9368
   98SAPS   H8Y 9843   0.638   5.911   7.534 -2.3124 -1.4482  3.1004
   98SAPS   C39 9844   0.669   5.709   7.574 -0.3071 -0.5766 -0.0382
   98SAPS   H9X 9845   0.768   5.706   7.524 -0.8530  1.1120 -1.2582
   98SAPS   H9Y 9846   0.614   5.612   7.565  3.4545 -2.8683 -0.6565
   98SAPS  C310 9847   0.686   5.737   7.728  0.1197  0.9707 -0.3508
   98SAPS  H10X 9848   0.591   5.769   7.775 -1.5337 -2.3344 -1.1647
   98SAPS  H10Y 9849   0.776   5.801   7.739  0.9545 -0.5572  3.1592
   98SAPS  C311 9850   0.717   5.611   7.816 -0.4283  0.2552 -0.3997
   98SAPS  H11X 9851   0.816   5.565   7.794 -0.6351  0.2349 -1.3416
   98SAPS  H11Y 9852   0.655   5.525   7.785  1.2819 -0.9868 -0.5376
   98SAPS  C312 9853   0.716   5.631   7.967  0.2313 -0.4995 -0.0330
   98SAPS  H12X 9854   0.635   5.706   7.984  0.4069 -0.0572 -1.1284
   98SAPS  H12Y 9855   0.812   5.675   8.001  0.2675  0.5471 -1.4009
   98SAPS  C313 9856   0.689   5.498   8.040  1.1004 -0.5153 -0.6080
   98SAPS  H13X 9857   0.775   5.428   8.039  0.4301 -1.3631 -2.6217
   98SAPS  H13Y 9858   0.604   5.452   7.986  0.9647  2.1094 -2.8248
   98SAPS  C314 9859   0.659   5.524   8.186  0.4512  0.2224 -0.1878
   98SAPS  H14X 9860   0.558   5.562   8.211 -0.5091 -0.0622 -3.1949
   98SAPS  H14Y 9861   0.722   5.607   8.225  0.3333  1.4993 -2.5300
   98SAPS  C315 9862   0.682   5.401   8.269 -0.2265 -0.6013  0.0300
   98SAPS  H15X 9863   0.792   5.389   8.264 -0.1387  0.1849 -0.0003
   98SAPS  H15Y 9864   0.629   5.315   8.223 -2.1201  0.7772 -0.5189
   98SAPS  C316 9865   0.648   5.424   8.416  0.1328 -0.1062  0.2675
   98SAPS  H16X 9866   0.548   5.472   8.416  0.4324  0.5341 -0.2601
   98SAPS  H16Y 9867   0.722   5.493   8.461  1.2901 -1.9665  1.3289
   98SAPS  C317 9868   0.618   5.290   8.497 -0.8195  0.2171  0.2857
   98SAPS  H17X 9869   0.551   5.231   8.431  1.5137 -1.2970 -0.8804
   98SAPS  H17Y 9870   0.560   5.311   8.590 -0.4504  0.0833  0.5492
   98SAPS  C318 9871   0.734   5.202   8.524  0.6345 -0.0486 -0.2287
   98SAPS  H18X 9872   0.693   5.116   8.581  1.5056 -1.4712 -1.6338
   98SAPS  H18Y 9873   0.809   5.252   8.589  0.7373 -2.2789  1.4743
   98SAPS  H18Z 9874   0.784   5.168   8.430 -0.6185  0.5961 -1.1643
   99SAPS     N 9875   6.340   2.887   6.050  0.9392  0.4096  0.2264
   99SAPS   HN1 9876   6.364   2.986   6.027  0.2605  0.6034  0.3266
   99SAPS   HN2 9877   6.403   2.847   6.121  1.5670  2.9104  1.2037
   99SAPS   HN3 9878   6.347   2.838   5.958 -0.3039  0.6220 -0.0019
   99SAPS   C12 9879   6.196   2.879   6.100 -0.3475  0.2197  0.4212
   99SAPS  H12A 9880   6.152   2.977   6.113 -1.8223 -0.0619 -1.8725
   99SAPS   C13 9881   6.101   2.819   5.996  0.2100 -1.1782  0.4353
   99SAPS  O13A 9882   6.144   2.778   5.884  0.1446 -0.5925  0.3233
   99SAPS  O13B 9883   5.977   2.823   6.022 -0.6408 -0.2617 -0.5377
   99SAPS   C11 9884   6.191   2.790   6.225 -0.2716  0.6151 -0.4112
   99SAPS  H11A 9885   6.083   2.779   6.252  0.3758 -0.7587  1.9445
   99SAPS  H11B 9886   6.249   2.832   6.310 -1.7728  0.1897  0.8878
   99SAPS     P 9887   6.378   2.604   6.248 -0.3687 -0.0705 -0.3203
   99SAPS   O13 9888   6.399   2.472   6.194  0.2618 -0.0341 -0.1756
   99SAPS   O14 9889   6.476   2.708   6.218  0.8514  0.9466 -0.5973
   99SAPS   O12 9890   6.238   2.661   6.204  0.0357 -0.0444 -0.1020
   99SAPS   O11 9891   6.370   2.597   6.411 -0.2032 -0.4338 -0.2348
   99SAPS    C1 9892   6.274   2.512   6.473 -0.0866 -0.1497 -0.4416
   99SAPS    HA 9893   6.188   2.575   6.506 -0.7387 -1.1100 -0.2711
   99SAPS    HB 9894   6.238   2.430   6.407 -2.5381  1.0661 -0.7573
   99SAPS    C2 9895   6.349   2.433   6.593 -0.2669 -0.4174  0.2263
   99SAPS    HS 9896   6.276   2.358   6.633 -1.0932  0.6046  0.6806
   99SAPS   O21 9897   6.407   2.512   6.701 -0.2356  0.1304  0.2236
   99SAPS   C21 9898   6.320   2.563   6.779 -0.1150 -0.7500 -0.1420
   99SAPS   O22 9899   6.198   2.549   6.770  0.0596  0.2903  0.4294
   99SAPS   C22 9900   6.402   2.637   6.885 -0.5191 -0.4517  0.4909
   99SAPS   H2R 9901   6.492   2.579   6.913 -0.0118  0.6613  1.2629
   99SAPS   H2S 9902   6.435   2.731   6.835  1.9986  0.2439  3.1746
   99SAPS    C3 9903   6.472   2.359   6.523  0.8338 -0.8467  0.1188
   99SAPS    HX 9904   6.548   2.438   6.506  0.0211  0.2895  1.5069
   99SAPS    HY 9905   6.439   2.315   6.427 -0.8074 -1.6742  1.0102
   99SAPS   O31 9906   6.530   2.253   6.608  0.6940 -0.5288  0.2156
   99SAPS   C31 9907   6.645   2.217   6.563 -0.3113  0.5461 -0.0001
   99SAPS   O32 9908   6.699   2.259   6.462  0.1421  0.0176  0.1030
   99SAPS   C32 9909   6.722   2.123   6.655  0.1521  0.2253 -0.3428
   99SAPS   H2X 9910   6.812   2.080   6.606  0.0884 -0.2646 -0.0399
   99SAPS   H2Y 9911   6.655   2.036   6.671  0.4183  0.2974  1.4397
   99SAPS   C23 9912   6.316   2.656   7.011  0.0197  0.5014 -0.6145
   99SAPS   H3R 9913   6.278   2.554   7.034  0.5218 -0.0008 -1.9272
   99SAPS   H3S 9914   6.234   2.723   6.978 -0.1329  0.9666  0.6319
   99SAPS   C24 9915   6.396   2.720   7.131  0.3301 -0.1516  0.4567
   99SAPS   H4R 9916   6.325   2.748   7.212  0.0415  1.1392 -0.2292
   99SAPS   H4S 9917   6.435   2.814   7.087 -0.1110  1.1346  2.6672
   99SAPS   C25 9918   6.506   2.621   7.172  0.2121  0.0781  0.2298
   99SAPS   H5R 9919   6.592   2.608   7.105  0.4648  0.9402  0.3696
   99SAPS   C26 9920   6.504   2.563   7.293  0.1286  0.3015  0.2090
   99SAPS   H6R 9921   6.586   2.497   7.327 -2.8546 -3.5916  0.6481
   99SAPS   C27 9922   6.409   2.578   7.409 -0.5121  0.0037  0.5221
   99SAPS   H7R 9923   6.380   2.475   7.438 -2.4422  0.3464 -0.0271
   99SAPS   H7S 9924   6.312   2.621   7.376  0.1144  1.4498  0.4610
   99SAPS   C28 9925   6.472   2.644   7.527  0.0661 -1.0811 -0.8553
   99SAPS   H8R 9926   6.580   2.641   7.548 -0.2366 -1.3613  0.7837
   99SAPS   C29 9927   6.395   2.716   7.612 -0.2274  0.1388  0.5364
   99SAPS   H9R 9928   6.442   2.753   7.704  3.4298 -0.1205 -1.0553
   99SAPS  C210 9929   6.248   2.747   7.614 -0.3931  0.0404 -0.0841
   99SAPS  H10R 9930   6.200   2.710   7.707 -1.7080  2.1625  0.1390
   99SAPS  H10S 9931   6.190   2.697   7.534  0.5138 -3.1803  1.0821
   99SAPS  C211 9932   6.228   2.892   7.597  0.1681 -0.3090 -0.3821
   99SAPS  H11R 9933   6.300   2.944   7.532 -0.5093  1.0249 -0.1046
   99SAPS  C212 9934   6.130   2.963   7.665  0.1358  0.2119  0.2121
   99SAPS  H12R 9935   6.126   3.072   7.650 -2.3471  0.0626 -0.6812
   99SAPS  C213 9936   6.035   2.913   7.769 -0.5338  0.7410  0.2834
   99SAPS  H13R 9937   6.067   2.808   7.790  0.3547  0.1916 -3.1765
   99SAPS  H13S 9938   5.933   2.890   7.729 -0.0877 -1.1474  0.0996
   99SAPS  C214 9939   6.025   3.008   7.887 -0.3456 -0.1748 -0.3012
   99SAPS  H14R 9940   6.036   3.113   7.858 -2.5327 -0.0366 -0.8614
   99SAPS  C215 9941   6.041   2.969   8.018 -0.3210 -0.2509 -0.5051
   99SAPS  H15R 9942   6.046   3.043   8.100  0.4414 -0.9716  0.1169
   99SAPS  C216 9943   6.058   2.824   8.063 -0.4129 -0.1248  0.7270
   99SAPS  H16R 9944   6.112   2.810   8.159 -0.3297 -1.8703  0.4587
   99SAPS  H16S 9945   6.113   2.766   7.986  0.2213  2.2128 -0.6866
   99SAPS  C217 9946   5.919   2.756   8.088  0.0374 -0.3984 -0.0432
   99SAPS  H17R 9947   5.940   2.648   8.101  4.3955  0.4367  1.8422
   99SAPS  H17S 9948   5.850   2.772   8.002  0.6529  2.2980 -0.1212
   99SAPS  C218 9949   5.848   2.814   8.207  0.1554 -0.1554 -0.2210
   99SAPS  H18R 9950   5.817   2.914   8.171  1.5470 -0.5148 -2.6733
   99SAPS  H18S 9951   5.910   2.839   8.296 -0.5123 -0.0316  0.2145
   99SAPS  C219 9952   5.730   2.726   8.253  0.2003 -1.2308 -0.1366
   99SAPS  H19R 9953   5.667   2.683   8.172  0.6329 -0.5331 -0.8564
   99SAPS  H19S 9954   5.662   2.788   8.314  0.7394 -1.5876  0.8490
   99SAPS  C220 9955   5.761   2.614   8.353 -0.1156 -0.4478 -0.3980
   99SAPS  H20R 9956   5.667   2.557   8.367 -1.0205  1.1134  0.1478
   99SAPS  H20S 9957   5.797   2.646   8.454 -0.7592  0.7573 -0.5241
   99SAPS  H20T 9958   5.841   2.547   8.315  1.4597  1.3711 -0.5039
   99SAPS   C33 9959   6.759   2.184   6.789 -0.2446  0.6743 -0.0615
   99SAPS   H3X 9960   6.663   2.210   6.838  0.2290  1.1163  0.6407
   99SAPS   H3Y 9961   6.826   2.273   6.784  0.5451  0.1918  1.4132
   99SAPS   C34 9962   6.826   2.084   6.886 -0.0249 -0.5878 -0.1781
   99SAPS   H4X 9963   6.929   2.071   6.847 -0.3506 -1.6610 -0.7112
   99SAPS   H4Y 9964   6.774   1.987   6.899  0.4383 -0.9845 -1.1528
   99SAPS   C35 9965   6.845   2.136   7.029  0.0556  0.2652 -0.3412
   99SAPS   H5X 9966   6.860   2.246   7.029  0.6980  0.2532  2.3646
   99SAPS   H5Y 9967   6.940   2.092   7.066 -1.6043 -1.1500  2.6640
   99SAPS   C36 9968   6.719   2.109   7.119 -0.9219  0.1674  0.3985
   99SAPS   H6X 9969   6.712   2.000   7.138 -1.8471  0.0847 -0.3277
   99SAPS   H6Y 9970   6.630   2.136   7.059 -0.3204  1.9065  0.2382
   99SAPS   C37 9971   6.716   2.182   7.258  0.2023  0.3059  0.2481
   99SAPS   H7X 9972   6.625   2.142   7.307 -1.4384  1.1716 -1.9421
   99SAPS   H7Y 9973   6.699   2.291   7.243  3.0469  0.8390  0.3745
   99SAPS   C38 9974   6.836   2.153   7.342 -0.6781 -0.5943  0.0774
   99SAPS   H8X 9975   6.921   2.220   7.318  0.5676 -1.5220  1.7259
   99SAPS   H8Y 9976   6.862   2.047   7.320  1.7810 -0.3642  1.5707
   99SAPS   C39 9977   6.812   2.145   7.486 -0.3214 -0.4996  0.1482
   99SAPS   H9X 9978   6.905   2.111   7.536 -0.2695 -1.1397 -0.3825
   99SAPS   H9Y 9979   6.724   2.084   7.516 -0.7746  0.1275  0.1230
   99SAPS  C310 9980   6.771   2.289   7.536 -0.3293  0.2230 -0.1444
   99SAPS  H10X 9981   6.704   2.341   7.465  1.2866  1.0880 -1.0888
   99SAPS  H10Y 9982   6.864   2.348   7.544  0.1546 -0.6478  1.1456
   99SAPS  C311 9983   6.710   2.285   7.675 -0.1289 -0.4562 -0.1846
   99SAPS  H11X 9984   6.626   2.213   7.679 -0.0315 -0.6249 -1.0354
   99SAPS  H11Y 9985   6.674   2.388   7.698 -0.7899 -0.6835 -0.1860
   99SAPS  C312 9986   6.801   2.246   7.794  1.2656  0.5270 -0.4488
   99SAPS  H12X 9987   6.868   2.330   7.822  0.8071  0.3401  1.2644
   99SAPS  H12Y 9988   6.870   2.160   7.780  0.7810 -0.0582  0.6472
   99SAPS  C313 9989   6.712   2.219   7.920  0.0130  1.0030 -0.1141
   99SAPS  H13X 9990   6.664   2.121   7.901 -0.0300  1.4384 -2.5408
   99SAPS  H13Y 9991   6.627   2.290   7.911 -0.8484 -0.0955 -0.9365
   99SAPS  C314 9992   6.788   2.233   8.042  0.3432 -0.3496 -0.6628
   99SAPS  H14X 9993   6.831   2.334   8.056  0.4963 -0.7273  2.2253
   99SAPS  H14Y 9994   6.862   2.150   8.040 -0.5162 -1.1542  0.0493
   99SAPS  C315 9995   6.698   2.220   8.161 -0.2831  0.3622 -1.1153
   99SAPS  H15X 9996   6.646   2.122   8.152  0.8150 -0.4588  0.8595
   99SAPS  H15Y 9997   6.620   2.298   8.151 -1.0883 -0.2745 -0.1194
   99SAPS  C316 9998   6.763   2.242   8.297  0.6250 -0.3985 -0.0710
   99SAPS  H16X 9999   6.797   2.348   8.297  0.9560 -0.4992  0.5878
   99SAPS  H16Y10000   6.849   2.176   8.318 -0.5085 -1.7933  0.3042
   99SAPS  C31710001   6.661   2.244   8.412  0.2973 -0.0252  0.0421
   99SAPS  H17X10002   6.607   2.148   8.419 -0.4209  0.4576  1.5584
   99SAPS  H17Y10003   6.583   2.321   8.394  2.8993  2.2107 -2.9400
   99SAPS  C31810004   6.729   2.259   8.546  0.6543 -0.2345 -0.4389
   99SAPS  H18X10005   6.783   2.355   8.527 -0.4098  0.1534 -1.6872
   99SAPS  H18Y10006   6.794   2.173   8.571 -0.3536 -1.4070 -1.6989
   99SAPS  H18Z10007   6.662   2.290   8.630  0.4162  2.5586 -1.5283
  100SAPS     N10008   1.964   3.749   6.285  0.3295  0.0017  0.6031
  100SAPS   HN110009   1.924   3.669   6.232  0.6025 -0.2830  0.8245
  100SAPS   HN210010   1.937   3.741   6.385  0.8610 -2.6681  0.6097
  100SAPS   HN310011   1.925   3.828   6.229  1.2346 -1.1561 -1.8038
  100SAPS   C1210012   2.108   3.746   6.251 -0.3302  0.4086 -0.5216
  100SAPS  H12A10013   2.155   3.670   6.312 -1.4463 -0.5318 -0.8014
  100SAPS   C1310014   2.146   3.694   6.114 -0.7021 -0.5364  0.7788
  100SAPS  O13A10015   2.061   3.671   6.025  0.1555 -0.2666  0.3462
  100SAPS  O13B10016   2.266   3.707   6.077 -0.1337  0.3164 -0.1050
  100SAPS   C1110017   2.176   3.887   6.271  0.3277 -0.0001 -0.1857
  100SAPS  H11A10018   2.281   3.863   6.242 -0.2841 -1.6182 -1.1897
  100SAPS  H11B10019   2.170   3.897   6.382  1.3436 -1.6523  0.0567
  100SAPS     P10020   2.111   4.140   6.244 -0.0825  0.2261  0.1734
  100SAPS   O1310021   2.199   4.166   6.352  0.1062 -0.6247  0.7320
  100SAPS   O1410022   2.131   4.234   6.127  0.7340  0.1902  0.0700
  100SAPS   O1210023   2.116   3.991   6.191  0.0265 -0.3522 -0.3309
  100SAPS   O1110024   1.957   4.144   6.291  0.1300  0.1589 -0.1243
  100SAPS    C110025   1.900   4.067   6.398 -0.2737 -0.1169 -0.7890
  100SAPS    HA10026   1.794   4.039   6.379 -0.0261 -1.9650  0.3392
  100SAPS    HB10027   1.953   3.971   6.413  0.5595  0.3126 -0.9501
  100SAPS    C210028   1.905   4.145   6.530  0.3114 -0.0679 -0.3452
  100SAPS    HS10029   2.012   4.170   6.545 -0.0033  1.1478 -0.0309
  100SAPS   O2110030   1.846   4.054   6.622 -0.4303 -0.2301 -0.1456
  100SAPS   C2110031   1.905   4.064   6.737 -0.2331  0.7981  0.1647
  100SAPS   O2210032   2.008   4.117   6.765  0.3275 -0.2309  0.1482
  100SAPS   C2210033   1.829   3.973   6.841  0.3433 -0.3883 -0.0725
  100SAPS   H2R10034   1.727   4.016   6.842 -0.4194 -2.1087 -0.8236
  100SAPS   H2S10035   1.823   3.874   6.793 -1.8432 -0.3953  0.1255
  100SAPS    C310036   1.828   4.277   6.528  0.3663  0.7859  0.3525
  100SAPS    HX10037   1.732   4.244   6.482  1.8212  0.3384 -2.5336
  100SAPS    HY10038   1.882   4.333   6.449  0.1189  1.1185  0.4139
  100SAPS   O3110039   1.811   4.343   6.655 -0.5125  0.3295 -0.1343
  100SAPS   C3110040   1.917   4.425   6.690 -0.2480  0.3913 -0.1331
  100SAPS   O3210041   2.020   4.428   6.626 -0.3330  0.2408 -0.5897
  100SAPS   C3210042   1.882   4.487   6.828  0.8073  0.5180  0.7245
  100SAPS   H2X10043   1.774   4.514   6.833  0.8624  1.5210 -1.8783
  100SAPS   H2Y10044   1.954   4.571   6.837  1.8074 -0.4615  2.1129
  100SAPS   C2310045   1.900   3.982   6.979  0.1626  0.2841  0.0097
  100SAPS   H3R10046   1.899   4.087   7.014  2.2565  0.0803  0.8229
  100SAPS   H3S10047   2.001   3.938   6.964 -0.0572 -0.1542 -0.1980
  100SAPS   C2410048   1.827   3.897   7.087  0.6000 -0.1641  0.0043
  100SAPS   H4R10049   1.905   3.900   7.166  2.9289  0.2198 -2.1941
  100SAPS   H4S10050   1.823   3.792   7.050 -0.9832 -0.0760 -0.1469
  100SAPS   C2510051   1.685   3.933   7.109 -0.3984 -0.4195  0.1187
  100SAPS   H5R10052   1.641   3.949   7.009  0.7472 -2.2745 -0.7320
  100SAPS   C2610053   1.614   3.950   7.222 -0.2344 -0.4726  0.2183
  100SAPS   H6R10054   1.506   3.964   7.208  0.2010  2.1224 -1.0305
  100SAPS   C2710055   1.671   3.942   7.355 -0.4379  0.3853  0.0736
  100SAPS   H7R10056   1.781   3.959   7.350 -0.3722 -0.3573 -1.5352
  100SAPS   H7S10057   1.659   3.842   7.401 -0.9210  0.6228  0.4698
  100SAPS   C2810058   1.625   4.055   7.440 -0.0910  0.4351 -0.3481
  100SAPS   H8R10059   1.646   4.155   7.399  3.6172 -1.2278 -3.1396
  100SAPS   C2910060   1.568   4.048   7.561  0.0735 -0.1540  0.0504
  100SAPS   H9R10061   1.526   4.137   7.609 -1.3957 -1.2412  0.8741
  100SAPS  C21010062   1.534   3.920   7.639 -0.5095 -0.1778  0.2622
  100SAPS  H10R10063   1.507   3.835   7.573  0.6769 -1.3539  1.2277
  100SAPS  H10S10064   1.445   3.934   7.703 -1.0304  1.4981 -0.7752
  100SAPS  C21110065   1.665   3.900   7.718  0.4218  0.6648  0.0326
  100SAPS  H11R10066   1.729   3.821   7.676 -0.9401  1.1309 -3.2219
  100SAPS  C21210067   1.681   3.947   7.844  0.7384  0.3675  0.0630
  100SAPS  H12R10068   1.775   3.931   7.898  0.2816 -1.0241  0.4894
  100SAPS  C21310069   1.583   4.031   7.925 -0.4248 -0.0657  0.6390
  100SAPS  H13R10070   1.487   3.976   7.915 -1.0920  0.9879  1.0898
  100SAPS  H13S10071   1.549   4.126   7.879  0.1878 -0.5885 -0.9811
  100SAPS  C21410072   1.630   4.058   8.065  0.6842 -0.8651 -0.8075
  100SAPS  H14R10073   1.721   4.120   8.073 -1.0000  1.7793 -0.9853
  100SAPS  C21510074   1.569   4.025   8.179 -0.3103 -0.3026 -0.1248
  100SAPS  H15R10075   1.611   4.055   8.276 -0.8345 -3.4990  1.2094
  100SAPS  C21610076   1.439   3.952   8.198 -0.1517 -0.4643  0.1448
  100SAPS  H16R10077   1.445   3.904   8.298  0.4064 -1.1606 -0.2168
  100SAPS  H16S10078   1.415   3.879   8.118 -1.2701  0.1670 -0.1172
  100SAPS  C21710079   1.321   4.048   8.204 -0.5115  0.6574 -0.0107
  100SAPS  H17R10080   1.233   3.982   8.222 -0.3949  0.2524 -0.8618
  100SAPS  H17S10081   1.299   4.086   8.102 -0.3141  1.6321  0.3024
  100SAPS  C21810082   1.331   4.175   8.300  0.3175 -0.0100 -0.2835
  100SAPS  H18R10083   1.242   4.235   8.273 -0.0249 -0.2600  0.2782
  100SAPS  H18S10084   1.419   4.239   8.277 -0.8158  1.0863 -1.7685
  100SAPS  C21910085   1.332   4.140   8.448  0.2138 -0.5329 -0.7380
  100SAPS  H19R10086   1.412   4.065   8.469  1.4062  1.1007  0.8702
  100SAPS  H19S10087   1.236   4.088   8.466  1.3603 -2.4089  0.3345
  100SAPS  C22010088   1.352   4.266   8.537 -0.0495 -0.3000  0.6810
  100SAPS  H20R10089   1.342   4.234   8.643  2.6085  0.0159  1.1010
  100SAPS  H20S10090   1.272   4.341   8.524 -2.1783 -2.6136 -0.5261
  100SAPS  H20T10091   1.456   4.305   8.536  0.6602 -2.0565  1.1361
  100SAPS   C3310092   1.910   4.391   6.945  0.4686  0.1439 -0.3588
  100SAPS   H3X10093   2.015   4.353   6.944  1.6864  3.1966 -2.1207
  100SAPS   H3Y10094   1.838   4.307   6.932  1.5360 -0.5464 -2.3232
  100SAPS   C3410095   1.880   4.458   7.081  0.3673  0.4403  0.2291
  100SAPS   H4X10096   1.774   4.487   7.092 -0.1270 -1.2520  0.1643
  100SAPS   H4Y10097   1.939   4.552   7.091  0.0555  0.6046  0.5204
  100SAPS   C3510098   1.914   4.367   7.199 -0.6243  0.2853 -0.2565
  100SAPS   H5X10099   2.024   4.369   7.213 -0.5706  2.6814 -0.5558
  100SAPS   H5Y10100   1.888   4.263   7.170 -1.7269  1.0256 -2.1316
  100SAPS   C3610101   1.849   4.414   7.328  0.5192  0.5719  0.5347
  100SAPS   H6X10102   1.739   4.418   7.315  0.6196 -0.4515 -0.8831
  100SAPS   H6Y10103   1.887   4.516   7.351  1.6403  0.1447  0.6294
  100SAPS   C3710104   1.890   4.328   7.450  0.0979  0.2838 -0.4157
  100SAPS   H7X10105   2.000   4.341   7.459  0.1519 -0.7999  0.9085
  100SAPS   H7Y10106   1.876   4.220   7.428 -4.0320 -0.3675  3.7801
  100SAPS   C3810107   1.814   4.374   7.580 -0.0576  0.5431  0.3995
  100SAPS   H8X10108   1.709   4.340   7.568 -0.0774  1.4007 -2.6397
  100SAPS   H8Y10109   1.833   4.484   7.581  0.2632  0.4878  0.5736
  100SAPS   C3910110   1.883   4.326   7.705 -0.5090  0.1554  0.9110
  100SAPS   H9X10111   1.992   4.340   7.685 -0.7780  0.6086 -0.3670
  100SAPS   H9Y10112   1.878   4.216   7.715  0.7568  0.1339  1.4980
  100SAPS  C31010113   1.851   4.404   7.827  0.0726  0.7746  0.6418
  100SAPS  H10X10114   1.749   4.377   7.862  0.7037 -0.9982  1.2027
  100SAPS  H10Y10115   1.856   4.510   7.794 -0.7108 -0.0242 -2.3669
  100SAPS  C31110116   1.933   4.347   7.946  0.5690  0.4952  0.1884
  100SAPS  H11X10117   2.038   4.329   7.916  0.1118 -0.4413 -0.9372
  100SAPS  H11Y10118   1.874   4.255   7.968  1.5708 -0.0953  0.4710
  100SAPS  C31210119   1.926   4.429   8.074 -0.4407 -1.2374  1.1205
  100SAPS  H12X10120   1.821   4.434   8.110 -0.5278 -1.1141  0.8488
  100SAPS  H12Y10121   1.963   4.532   8.057 -4.0463  0.1577  0.8441
  100SAPS  C31310122   2.025   4.371   8.171  0.4689 -1.1024  0.2191
  100SAPS  H13X10123   2.128   4.388   8.133  0.1004 -0.5710 -0.5774
  100SAPS  H13Y10124   2.010   4.261   8.166 -0.8086 -0.9072 -0.6474
  100SAPS  C31410125   2.020   4.417   8.316 -0.0932 -0.1601 -0.1515
  100SAPS  H14X10126   2.000   4.526   8.317  0.2388 -0.0787 -1.2191
  100SAPS  H14Y10127   2.125   4.407   8.353  0.4651  0.6239 -1.4795
  100SAPS  C31510128   1.931   4.328   8.402  0.8586  0.3799 -0.7707
  100SAPS  H15X10129   1.977   4.228   8.389  0.5269 -0.0854  1.2842
  100SAPS  H15Y10130   1.828   4.325   8.360  0.7685  1.0723 -0.6132
  100SAPS  C31610131   1.926   4.363   8.554  0.4316 -0.0871  0.2205
  100SAPS  H16X10132   1.876   4.462   8.565  2.4252  0.9874  0.0762
  100SAPS  H16Y10133   2.030   4.374   8.591  0.2141 -0.6617  1.0393
  100SAPS  C31710134   1.873   4.251   8.641 -0.3114  0.4485  0.3816
  100SAPS  H17X10135   1.901   4.270   8.746  0.7505  0.2502  0.1416
  100SAPS  H17Y10136   1.911   4.154   8.603 -0.5988  0.4254  0.1392
  100SAPS  C31810137   1.717   4.249   8.643 -0.0882 -0.3496 -0.0736
  100SAPS  H18X10138   1.686   4.351   8.675 -0.6276 -0.0781 -1.4108
  100SAPS  H18Y10139   1.675   4.177   8.717 -0.4799  0.9060  0.9904
  100SAPS  H18Z10140   1.679   4.213   8.545  1.6121  1.3686 -1.4422
  101OSM      N10141   5.880   6.080  11.019 -0.3275 -0.6622  0.2040
  101OSM    C1510142   5.933   6.203  11.080  0.4181 -0.4847 -0.3911
  101OSM   H15A10143   6.041   6.205  11.086  0.5164  0.0259 -1.8479
  101OSM   H15B10144   5.898   6.220  11.181 -1.9139  1.3283 -1.4039
  101OSM   H15C10145   5.885   6.285  11.029 -0.1627 -1.6745 -1.8311
  101OSM    C1410146   5.920   5.966  11.101 -0.0276 -0.6707 -0.1208
  101OSM   H14A10147   5.867   5.880  11.062 -1.5407 -0.2456  0.9055
  101OSM   H14B10148   5.885   5.973  11.203 -0.1404 -1.1504 -0.1236
  101OSM   H14C10149   6.027   5.954  11.097 -0.0007 -0.2897 -0.5670
  101OSM    C1310150   5.733   6.087  11.024  0.6086  0.9039  0.4268
  101OSM   H13A10151   5.700   5.993  10.982  1.5471 -0.0356  1.7220
  101OSM   H13B10152   5.695   6.158  10.951 -0.2529 -1.0166 -1.0619
  101OSM   H13C10153   5.679   6.107  11.115 -1.9889 -3.3603  0.0850
  101OSM    C1210154   5.927   6.061  10.873 -0.0922 -0.2464  0.4256
  101OSM   H12A10155   6.034   6.043  10.866 -0.0357  0.2465 -0.0749
  101OSM   H12B10156   5.910   6.153  10.818  2.2956 -0.0299 -0.0632
  101OSM    C1110157   5.852   5.951  10.794  0.2854 -0.2387  0.1331
  101OSM   H11A10158   5.908   5.933  10.699 -2.1192 -1.9819 -1.0538
  101OSM   H11B10159   5.759   6.003  10.766 -1.3874 -1.4361  2.9944
  101OSM      P10160   5.915   5.699  10.858 -0.3319  0.1085  0.4093
  101OSM    O1310161   6.050   5.721  10.907 -0.3308  0.2162 -0.0229
  101OSM    O1410162   5.834   5.589  10.915 -0.2146  0.1625  0.4195
  101OSM    O1110163   5.935   5.662  10.707  0.3970  0.5530  0.0312
  101OSM    O1210164   5.836   5.829  10.870  0.7583  0.5585 -0.4987
  101OSM    C1S10165   5.818   5.672  10.620  0.6290  0.4356  0.1192
  101OSM    H1S10166   5.779   5.776  10.619  2.5389  1.1994  0.5571
  101OSM    H1T10167   5.744   5.603  10.667  1.1315 -0.4444 -0.3576
  101OSM     NF10168   5.745   5.639  10.381  0.2669  1.0106 -0.1246
  101OSM    HNF10169   5.697   5.551  10.375  1.8045 -0.1692  2.7612
  101OSM    C2S10170   5.864   5.633  10.473 -0.3077 -0.4352  0.2095
  101OSM    H2S10171   5.935   5.712  10.441 -0.0170 -0.0611  1.6822
  101OSM    C3S10172   5.955   5.501  10.475 -0.0566  0.0560  0.2117
  101OSM    H3S10173   5.885   5.420  10.502 -1.0434 -0.2947 -2.9656
  101OSM     O310174   6.074   5.505  10.561  0.1588 -0.1277  0.1564
  101OSM    HO310175   6.038   5.563  10.628 -0.9618 -1.5556  0.8468
  101OSM    C4S10176   5.995   5.465  10.338 -0.0690  0.7864  0.1236
  101OSM    H4S10177   5.921   5.406  10.280 -0.6807  1.9091 -0.2707
  101OSM    C5S10178   6.116   5.496  10.280  0.3744  0.3418 -0.5024
  101OSM    H5S10179   6.187   5.551  10.344 -0.2971  0.1120  0.4593
  101OSM    C6S10180   6.150   5.446  10.139 -0.0854  0.6284 -0.0129
  101OSM    H6S10181   6.251   5.402  10.156 -0.9305 -1.0973  0.7811
  101OSM    H6T10182   6.162   5.527  10.064  0.2881  0.3416 -0.2689
  101OSM    C7S10183   6.077   5.331  10.074  0.1608  0.1743 -0.2775
  101OSM    H7S10184   5.971   5.361  10.062  0.0358 -0.5126 -0.9939
  101OSM    H7T10185   6.077   5.242  10.141 -2.4719  1.3096  1.3814
  101OSM    C8S10186   6.146   5.295   9.942  0.1063 -0.5642 -0.0743
  101OSM    H8S10187   6.243   5.243   9.953  0.7646  0.5209 -0.5625
  101OSM    H8T10188   6.178   5.384   9.884  1.9818 -0.6057  0.8270
  101OSM    C9S10189   6.055   5.225   9.845 -0.4360  0.4779 -0.1443
  101OSM    H9S10190   5.960   5.283   9.840  1.1302  3.2310  0.0917
  101OSM    H9T10191   6.026   5.123   9.879 -1.5637  0.9668  0.4005
  101OSM   C10S10192   6.114   5.220   9.699  0.3303  0.7179 -0.2474
  101OSM   H10S10193   6.201   5.151   9.701  1.3099  1.9275  2.1415
  101OSM   H10T10194   6.146   5.321   9.665  1.1306  0.4310 -0.3712
  101OSM   C11S10195   6.015   5.162   9.597 -0.0342  0.0883 -0.2757
  101OSM   H11S10196   5.943   5.242   9.570 -1.1850 -0.4602  1.0449
  101OSM   H11T10197   5.961   5.075   9.641  0.0302  1.1036  1.9423
  101OSM   C12S10198   6.099   5.139   9.464 -0.0187 -0.3020 -0.1284
  101OSM   H12S10199   6.182   5.068   9.485 -1.1639 -1.3570  0.9751
  101OSM   H12T10200   6.146   5.237   9.437  0.0022 -0.3180 -0.1498
  101OSM   C13S10201   6.009   5.093   9.351 -0.2752  0.5239  0.4682
  101OSM   H13S10202   5.939   5.179   9.341  1.5320  1.8566 -1.3719
  101OSM   H13T10203   5.956   5.002   9.388  1.6845 -0.2932  1.3777
  101OSM   C14S10204   6.073   5.068   9.214 -0.4437 -0.2111 -0.2914
  101OSM   H14S10205   6.139   4.978   9.219 -0.7110 -0.3251  1.6132
  101OSM   H14T10206   6.138   5.156   9.197 -1.6501  0.7709  0.0315
  101OSM   C15S10207   5.978   5.055   9.091  0.2344 -0.3635  0.4369
  101OSM   H15S10208   5.900   5.133   9.107  1.6936  1.1169  0.6214
  101OSM   H15T10209   5.928   4.956   9.093  0.1166 -0.2956  1.6937
  101OSM   C16S10210   6.053   5.077   8.958  0.7752 -0.3614 -0.3820
  101OSM   H16S10211   6.100   5.177   8.967 -0.4334  0.3746 -1.8672
  101OSM   H16T10212   5.977   5.086   8.878 -0.7794  0.4828  1.1336
  101OSM   C17S10213   6.150   4.969   8.920  0.2530  0.4228  0.8146
  101OSM   H17S10214   6.096   4.873   8.935 -0.4094  0.9308  1.8425
  101OSM   H17T10215   6.238   4.981   8.987  0.7973  1.4315 -0.0474
  101OSM   C18S10216   6.191   4.984   8.774 -0.2337  0.1867  0.0883
  101OSM   H18S10217   6.107   4.962   8.704  0.1578  0.7815 -0.5901
  101OSM   H18T10218   6.274   4.914   8.749 -1.2228 -0.1339 -2.6904
  101OSM   H18U10219   6.225   5.085   8.745 -2.5145  0.7657 -0.7512
  101OSM    C1F10220   5.701   5.750  10.329 -0.8258  0.1183  0.2401
  101OSM     OF10221   5.753   5.853  10.370 -0.1192 -0.3353 -0.2623
  101OSM    C2F10222   5.578   5.749  10.235 -0.5242  0.6730 -0.5247
  101OSM    H2F10223   5.540   5.851  10.213 -1.5784  0.9833  2.3132
  101OSM    H2G10224   5.494   5.680  10.262 -0.6653  0.5082 -1.3493
  101OSM    C3F10225   5.622   5.683  10.098  0.0268  0.3186  0.3814
  101OSM    H3F10226   5.528   5.666  10.042 -0.2476 -1.2450  1.2567
  101OSM    H3G10227   5.673   5.585  10.110  1.6883  0.8271 -1.8473
  101OSM    C4F10228   5.718   5.777  10.030 -1.0678  0.1339  0.5693
  101OSM    H4F10229   5.803   5.803  10.097 -1.7198  1.6202  0.8598
  101OSM    H4G10230   5.666   5.870   9.999 -0.0400 -0.3017 -2.8514
  101OSM    C5F10231   5.759   5.713   9.899 -0.7898  0.7154  0.4587
  101OSM    H5F10232   5.667   5.709   9.838  0.4978 -0.5762 -1.5375
  101OSM    H5G10233   5.799   5.611   9.917  1.5587  1.6171  0.7433
  101OSM    C6F10234   5.870   5.792   9.816  0.1940 -0.4130  0.3712
  101OSM    H6F10235   5.957   5.806   9.884  0.4620 -0.2996  0.0066
  101OSM    H6G10236   5.826   5.891   9.792 -0.3320 -0.7992 -0.2854
  101OSM    C7F10237   5.941   5.717   9.699  0.0604 -0.2437  0.2657
  101OSM    H7F10238   5.866   5.675   9.629 -0.9671 -1.5189  2.0459
  101OSM    H7G10239   6.004   5.634   9.738  0.0295 -1.1235 -1.4789
  101OSM    C8F10240   6.038   5.807   9.613  0.5374 -0.2551  0.5354
  101OSM    H8F10241   6.076   5.738   9.535 -0.3546 -0.0560 -0.0854
  101OSM    H8G10242   6.119   5.855   9.672 -0.5949 -0.4148  2.3227
  101OSM    C9F10243   5.973   5.916   9.537  0.0233 -0.2359 -0.8853
  101OSM    H9F10244   5.867   5.940   9.553  0.3500  0.9007 -0.3772
  101OSM   C10F10245   6.050   5.997   9.461  0.3913  0.7553 -0.2989
  101OSM   H10F10246   5.999   6.064   9.391  2.3607  0.7729 -1.8110
  101OSM   C11F10247   6.196   5.986   9.440 -0.2042  0.5245 -0.4866
  101OSM   H11F10248   6.262   5.956   9.524 -0.5318  1.8246  0.2524
  101OSM   H11G10249   6.215   6.093   9.421 -1.2444  0.6902 -0.6168
  101OSM   C12F10250   6.228   5.911   9.305  0.4682 -0.0311  0.3315
  101OSM   H12F10251   6.179   5.812   9.292 -1.3547  1.1205 -2.4804
  101OSM   H12G10252   6.338   5.892   9.309  0.4384 -1.2282 -2.4129
  101OSM   C13F10253   6.201   5.996   9.177  0.0192  0.9061  0.0032
  101OSM   H13F10254   6.247   6.097   9.185  0.1191  0.9214 -0.6898
  101OSM   H13G10255   6.090   6.004   9.173 -0.1633 -1.5147 -1.1361
  101OSM   C14F10256   6.270   5.934   9.060 -0.1056 -0.4199 -0.3417
  101OSM   H14F10257   6.379   5.926   9.080  0.1511  2.9881  0.1692
  101OSM   H14G10258   6.270   6.021   8.991  0.9066  0.7136  1.0039
  101OSM   C15F10259   6.206   5.818   8.985  0.7809 -0.3239 -0.6015
  101OSM   H15F10260   6.094   5.818   8.983  0.7896  0.5477 -2.3866
  101OSM   H15G10261   6.238   5.729   9.044 -1.6843 -2.8440 -2.7552
  101OSM   C16F10262   6.246   5.799   8.838 -0.3391  0.6114 -0.0790
  101OSM   H16F10263   6.356   5.816   8.840 -0.4385  1.2511  0.1626
  101OSM   H16G10264   6.201   5.886   8.784  0.6626  1.4463  0.3949
  101OSM   C17F10265   6.195   5.670   8.765  0.6509  0.3944  0.0295
  101OSM   H17F10266   6.084   5.675   8.765  0.4923 -0.5555 -3.1553
  101OSM   H17G10267   6.219   5.578   8.824 -0.3958 -1.0926 -1.7543
  101OSM   C18F10268   6.237   5.667   8.626 -0.0506  0.5299 -0.3652
  101OSM   H18F10269   6.347   5.668   8.614  0.3010  1.7564  2.2800
  101OSM   H18G10270   6.195   5.760   8.582  1.5097  1.8956  0.9252
  101OSM   H18H10271   6.195   5.589   8.558  0.4871 -3.6893  3.6890
  102OSM      N10272   5.990   4.546  10.778  0.2598  0.3929 -0.9737
  102OSM    C1510273   6.040   4.685  10.797  0.3023  0.2973 -0.6063
  102OSM   H15A10274   6.138   4.675  10.843 -0.8757 -0.9028  1.8534
  102OSM   H15B10275   5.979   4.741  10.866  0.1957  1.2966 -1.4975
  102OSM   H15C10276   6.059   4.735  10.704  1.9222  0.8977  0.0023
  102OSM    C1410277   6.082   4.478  10.680 -0.2390  0.5818 -0.3812
  102OSM   H14A10278   6.083   4.520  10.580  1.3389 -1.7087 -1.4271
  102OSM   H14B10279   6.060   4.373  10.674  0.7534  0.3964 -1.2309
  102OSM   H14C10280   6.186   4.485  10.707 -0.1230 -2.2318  0.1999
  102OSM    C1310281   5.994   4.463  10.906  0.4793 -0.2388 -0.8591
  102OSM   H13A10282   5.919   4.498  10.976  0.2016  0.1956 -1.3643
  102OSM   H13B10283   6.086   4.481  10.960  0.7040 -0.5714 -1.1311
  102OSM   H13C10284   5.979   4.357  10.895  1.6368 -0.5620  0.3822
  102OSM    C1210285   5.845   4.547  10.724  0.2363 -0.5971 -0.4164
  102OSM   H12A10286   5.821   4.447  10.692 -0.6641 -0.1505 -1.1764
  102OSM   H12B10287   5.841   4.609  10.636 -2.1508 -0.2955 -0.1654
  102OSM    C1110288   5.740   4.604  10.821 -0.0681  0.1241 -0.1918
  102OSM   H11A10289   5.742   4.531  10.905  2.8425  0.4857  0.1456
  102OSM   H11B10290   5.641   4.602  10.770 -0.5380  0.9183  0.6599
  102OSM      P10291   5.707   4.865  10.793  0.5149  0.3662  0.2194
  102OSM    O1310292   5.596   4.932  10.867 -0.1454 -0.5549 -0.0391
  102OSM    O1410293   5.821   4.950  10.765 -0.0907 -0.3380 -0.0582
  102OSM    O1110294   5.659   4.805  10.661  0.2058 -0.5048  0.3071
  102OSM    O1210295   5.754   4.734  10.870 -0.0729  0.0025 -0.0732
  102OSM    C1S10296   5.528   4.844  10.600 -0.0184 -0.3928  0.3647
  102OSM    H1S10297   5.518   4.953  10.583 -1.4811 -0.2627  1.8637
  102OSM    H1T10298   5.442   4.816  10.664  0.8146 -3.2694  0.4051
  102OSM     NF10299   5.361   4.786  10.421  0.0341  0.3947 -0.6607
  102OSM    HNF10300   5.320   4.695  10.412  1.3686 -0.3242  0.2739
  102OSM    C2S10301   5.501   4.774  10.461  0.8510  0.0359  0.5914
  102OSM    H2S10302   5.568   4.826  10.389  0.1706  0.1839  0.0531
  102OSM    C3S10303   5.550   4.624  10.467 -0.4851  0.2067 -0.8487
  102OSM    H3S10304   5.498   4.575  10.553  0.2988  0.9539  0.0805
  102OSM     O310305   5.692   4.597  10.482 -0.0959 -1.1134 -0.1866
  102OSM    HO310306   5.725   4.684  10.508  2.3783 -2.1884  0.5892
  102OSM    C4S10307   5.494   4.547  10.354 -0.1478  0.1662  0.3211
  102OSM    H4S10308   5.398   4.496  10.372 -0.6473  1.5900  2.0637
  102OSM    C5S10309   5.545   4.542  10.227  0.0497  0.1781  0.2979
  102OSM    H5S10310   5.628   4.611  10.206 -0.5689  1.1864  1.0099
  102OSM    C6S10311   5.486   4.463  10.116 -0.4290  0.2190  0.0999
  102OSM    H6S10312   5.479   4.355  10.140  0.5708  0.5404  2.0809
  102OSM    H6T10313   5.557   4.465  10.030 -1.6220  1.2223 -0.9051
  102OSM    C7S10314   5.339   4.505  10.075  0.4601 -0.3051 -0.1272
  102OSM    H7S10315   5.350   4.614  10.056  0.5008  0.5697  3.9928
  102OSM    H7T10316   5.268   4.482  10.157  0.0221  1.3508 -0.0148
  102OSM    C8S10317   5.283   4.450   9.944  0.1021 -0.5267 -0.5650
  102OSM    H8S10318   5.173   4.452   9.959  0.0804 -0.2956 -0.7614
  102OSM    H8T10319   5.316   4.344   9.933  0.0371 -0.6323  0.1888
  102OSM    C9S10320   5.334   4.528   9.816  0.6304  0.6516  0.4070
  102OSM    H9S10321   5.442   4.506   9.798  0.1487  0.7353 -3.2861
  102OSM    H9T10322   5.333   4.638   9.834  2.9428  1.0083 -1.1779
  102OSM   C10S10323   5.258   4.481   9.696  0.0982  0.2493  0.4162
  102OSM   H10S10324   5.149   4.502   9.698  0.0945  0.4316 -0.9171
  102OSM   H10T10325   5.277   4.373   9.680  4.5747  0.9680 -0.3353
  102OSM   C11S10326   5.311   4.552   9.565 -0.1275 -0.3965  0.2571
  102OSM   H11S10327   5.421   4.535   9.558 -0.2202 -0.6524 -0.7226
  102OSM   H11T10328   5.278   4.658   9.571 -1.6667 -0.8153 -0.2519
  102OSM   C12S10329   5.253   4.495   9.439  0.0574  0.1872 -1.0396
  102OSM   H12S10330   5.145   4.517   9.427 -0.3186 -1.1034 -0.2213
  102OSM   H12T10331   5.258   4.385   9.431  0.2936  0.0566  0.5781
  102OSM   C13S10332   5.324   4.559   9.317 -0.4429 -0.6549 -0.0870
  102OSM   H13S10333   5.430   4.532   9.337 -0.1601 -0.2122 -0.9426
  102OSM   H13T10334   5.309   4.669   9.323  2.1920 -0.2863  1.1222
  102OSM   C14S10335   5.264   4.513   9.180  0.0138 -0.3100  0.6469
  102OSM   H14S10336   5.153   4.509   9.176 -0.0211  0.0895  1.1191
  102OSM   H14T10337   5.299   4.407   9.171 -3.5298 -1.4087 -4.4926
  102OSM   C15S10338   5.318   4.596   9.062  0.4036 -0.3456 -0.2871
  102OSM   H15S10339   5.427   4.612   9.079 -0.0778  1.7047  1.2863
  102OSM   H15T10340   5.274   4.698   9.069 -0.6844 -0.9219  2.1725
  102OSM   C16S10341   5.288   4.550   8.917 -0.0335  0.4364  0.1755
  102OSM   H16S10342   5.184   4.564   8.881  0.0925 -1.9584 -1.3342
  102OSM   H16T10343   5.310   4.442   8.907  1.7136  0.9774 -3.9436
  102OSM   C17S10344   5.384   4.618   8.820 -0.0639  1.3337 -0.4894
  102OSM   H17S10345   5.490   4.601   8.848  0.1081  2.3220 -0.5060
  102OSM   H17T10346   5.359   4.726   8.825 -0.6278  1.3144 -2.2157
  102OSM   C18S10347   5.358   4.571   8.676 -0.3575 -0.1363  0.1433
  102OSM   H18S10348   5.247   4.570   8.667 -0.3707  1.7491 -0.3526
  102OSM   H18T10349   5.407   4.472   8.659 -2.2854 -0.7862 -2.2851
  102OSM   H18U10350   5.401   4.637   8.598  0.2651 -1.1584 -0.4008
  102OSM    C1F10351   5.297   4.900  10.401 -0.6978 -0.2576  0.0750
  102OSM     OF10352   5.351   5.012  10.409 -0.7843 -0.2585  0.1857
  102OSM    C2F10353   5.143   4.879  10.389 -0.4571 -0.0901 -0.7365
  102OSM    H2F10354   5.092   4.973  10.421 -1.5981 -0.6469 -0.8774
  102OSM    H2G10355   5.115   4.804  10.467  0.9488 -0.0531 -0.1741
  102OSM    C3F10356   5.106   4.827  10.247  0.1898  0.0315  0.6508
  102OSM    H3F10357   5.169   4.740  10.222 -0.6939 -0.9346  1.6550
  102OSM    H3G10358   5.132   4.914  10.183  2.6219  0.2198  1.7734
  102OSM    C4F10359   4.967   4.775  10.230 -0.7244 -0.5190  0.2415
  102OSM    H4F10360   4.898   4.861  10.217  1.0506  0.8467 -0.5229
  102OSM    H4G10361   4.939   4.723  10.324 -0.6505 -1.6627 -0.3503
  102OSM    C5F10362   4.945   4.695  10.102 -0.2231  0.3517 -0.0452
  102OSM    H5F10363   4.836   4.692  10.081 -0.2024 -0.3481 -0.0856
  102OSM    H5G10364   4.993   4.595  10.110  0.5778  0.6791 -0.5768
  102OSM    C6F10365   5.013   4.758   9.980 -0.0763 -0.1000 -1.0991
  102OSM    H6F10366   5.119   4.725   9.991 -0.4425 -1.4401 -1.3826
  102OSM    H6G10367   5.004   4.869   9.979 -0.2515 -0.1155 -1.2137
  102OSM    C7F10368   4.957   4.701   9.851 -0.1199  0.3260  0.2980
  102OSM    H7F10369   4.847   4.689   9.860 -0.2069  0.9294  0.1310
  102OSM    H7G10370   5.000   4.600   9.841 -1.1958 -0.1590  0.4506
  102OSM    C8F10371   4.989   4.771   9.714  0.0361 -0.2008 -0.7061
  102OSM    H8F10372   5.100   4.764   9.703  0.0695 -1.8378  0.3275
  102OSM    H8G10373   4.958   4.877   9.717 -1.7924 -0.7098 -0.8831
  102OSM    C9F10374   4.918   4.706   9.597 -0.8901  0.1292  0.5458
  102OSM    H9F10375   4.840   4.632   9.620  0.1242 -0.6078  1.7560
  102OSM   C10F10376   4.942   4.736   9.469 -0.6049 -0.0405 -0.2497
  102OSM   H10F10377   4.885   4.687   9.388  0.8824  0.2731 -1.5489
  102OSM   C11F10378   5.059   4.831   9.434 -0.0812  0.3385  0.8897
  102OSM   H11F10379   5.149   4.770   9.412  0.2845  1.2021 -0.0637
  102OSM   H11G10380   5.091   4.905   9.512 -0.1046  1.2607  0.0483
  102OSM   C12F10381   5.028   4.918   9.307  0.3241 -0.5319 -0.7955
  102OSM   H12F10382   5.114   4.987   9.298 -0.8180  1.0065 -0.2655
  102OSM   H12G10383   4.941   4.983   9.328  1.7607  0.9027  0.9882
  102OSM   C13F10384   5.029   4.831   9.181  0.1748 -0.1077 -0.1192
  102OSM   H13F10385   4.942   4.761   9.187 -0.7243  0.8948 -1.0053
  102OSM   H13G10386   5.118   4.765   9.191 -0.4944 -0.8053  1.5976
  102OSM   C14F10387   5.019   4.902   9.045  0.1959  1.3657 -0.1971
  102OSM   H14F10388   5.120   4.945   9.027  0.6182  1.5230  2.2218
  102OSM   H14G10389   4.941   4.978   9.065 -0.0402  0.9359  0.5670
  102OSM   C15F10390   4.994   4.816   8.919 -0.2098 -0.0273  0.3368
  102OSM   H15F10391   4.916   4.741   8.939  0.3923 -0.6177  0.5140
  102OSM   H15G10392   5.090   4.761   8.912 -0.9686 -1.6048  1.7461
  102OSM   C16F10393   4.971   4.901   8.791 -0.3950  0.0126 -0.2686
  102OSM   H16F10394   5.067   4.935   8.745 -1.4136  1.1942 -1.6067
  102OSM   H16G10395   4.928   5.001   8.814 -0.5396 -0.0651 -0.1982
  102OSM   C17F10396   4.892   4.833   8.677 -0.3437  0.3781 -0.2665
  102OSM   H17F10397   4.870   4.909   8.599 -1.9954 -0.5297 -0.7337
  102OSM   H17G10398   4.787   4.810   8.705  0.0484 -1.5812 -0.2156
  102OSM   C18F10399   4.954   4.705   8.612  0.4121 -0.0503  0.3627
  102OSM   H18F10400   4.895   4.685   8.520 -0.1769  1.9034  0.2633
  102OSM   H18G10401   4.946   4.617   8.679  1.5041  0.0842  0.6934
  102OSM   H18H10402   5.056   4.731   8.576  0.8713 -1.0831  0.8965
  103OSM      N10403   5.667   0.244  11.064 -0.2672 -0.8106  0.1391
  103OSM    C1510404   5.602   0.349  11.157 -0.6378 -0.4085 -0.3798
  103OSM   H15A10405   5.540   0.422  11.108  0.1580  1.9074  1.8394
  103OSM   H15B10406   5.677   0.402  11.213 -1.9162  0.5861  0.4561
  103OSM   H15C10407   5.543   0.304  11.236 -0.4609  2.3225  1.4199
  103OSM    C1410408   5.769   0.166  11.142 -0.5287  0.7479  0.5303
  103OSM   H14A10409   5.847   0.233  11.173  1.3625  0.1255 -2.5216
  103OSM   H14B10410   5.815   0.086  11.087  0.3127  0.9702  0.9037
  103OSM   H14C10411   5.725   0.120  11.229 -0.3620  1.8254  1.2051
  103OSM    C1310412   5.560   0.162  11.005  0.7255  0.4903 -0.4340
  103OSM   H13A10413   5.508   0.088  11.065  0.8056 -1.5257 -2.6955
  103OSM   H13B10414   5.604   0.109  10.922 -1.9373  0.6626 -2.0808
  103OSM   H13C10415   5.482   0.222  10.960  0.6044  0.6217 -0.0532
  103OSM    C1210416   5.738   0.316  10.945  0.3728  0.8550 -0.8363
  103OSM   H12A10417   5.663   0.374  10.894 -1.0956 -0.4373 -0.2249
  103OSM   H12B10418   5.767   0.237  10.877 -1.2782  2.2987 -3.4108
  103OSM    C1110419   5.847   0.416  10.968  0.0733 -0.0175 -0.6836
  103OSM   H11A10420   5.817   0.485  11.050  1.5039 -0.5629  0.3532
  103OSM   H11B10421   5.846   0.476  10.875 -0.2887 -0.1656 -0.7739
  103OSM      P10422   6.057   0.287  10.872 -0.1998  0.0704  0.6089
  103OSM    O1310423   6.201   0.281  10.908  0.1421  0.1611  0.0896
  103OSM    O1410424   5.988   0.161  10.861 -0.4313  0.6579 -0.2752
  103OSM    O1110425   6.030   0.361  10.736 -0.6539  0.5686 -0.2498
  103OSM    O1210426   5.976   0.357  10.985  0.2541  0.2248 -0.9570
  103OSM    C1S10427   6.108   0.470  10.683 -0.1136  0.1137  0.2525
  103OSM    H1S10428   6.214   0.439  10.670 -0.1130  0.5565 -0.8805
  103OSM    H1T10429   6.116   0.555  10.755  1.5164 -0.7270  1.1252
  103OSM     NF10430   6.135   0.625  10.493  0.2680  0.8588  0.1667
  103OSM    HNF10431   6.101   0.717  10.509 -0.2909  0.5881  0.5772
  103OSM    C2S10432   6.063   0.504  10.539 -0.0007  0.2960  1.2844
  103OSM    H2S10433   6.095   0.416  10.479 -0.4490  0.8007  0.2894
  103OSM    C3S10434   5.906   0.514  10.526  0.1468  0.1023  0.6206
  103OSM    H3S10435   5.860   0.588  10.594 -0.1298  0.3598  0.1533
  103OSM     O310436   5.840   0.389  10.557 -0.0120  0.4281 -0.4374
  103OSM    HO310437   5.902   0.343  10.615  0.1389  0.4361 -0.5915
  103OSM    C4S10438   5.863   0.546  10.385 -0.3855 -0.1502  0.4284
  103OSM    H4S10439   5.840   0.652  10.366  2.1007  0.5742  1.0588
  103OSM    C5S10440   5.861   0.457  10.279  0.3075  0.0309 -0.5852
  103OSM    H5S10441   5.892   0.353  10.293  0.3452 -0.0265 -1.0794
  103OSM    C6S10442   5.813   0.498  10.141  0.0453 -0.3510  0.3597
  103OSM    H6S10443   5.721   0.560  10.140 -1.3965 -2.3836 -0.2594
  103OSM    H6T10444   5.771   0.401  10.106  1.2290 -1.4360  1.8200
  103OSM    C7S10445   5.930   0.546  10.057  0.2705  0.2520  0.5423
  103OSM    H7S10446   6.011   0.469  10.065  2.0098  1.8644 -0.6998
  103OSM    H7T10447   5.974   0.634  10.109 -0.7347  0.9637  0.2139
  103OSM    C8S10448   5.891   0.576   9.915 -1.0096 -0.1850  0.3592
  103OSM    H8S10449   5.976   0.630   9.867 -0.6845  0.1939  1.3362
  103OSM    H8T10450   5.797   0.634   9.906 -0.2372  1.3286  1.5179
  103OSM    C9S10451   5.883   0.448   9.822 -0.2016  0.7711  0.4811
  103OSM    H9S10452   5.787   0.397   9.845 -0.3446  1.0275  0.4634
  103OSM    H9T10453   5.970   0.385   9.846  0.7419  2.0578  0.5202
  103OSM   C10S10454   5.890   0.475   9.672 -0.4569 -0.4340  0.6538
  103OSM   H10S10455   5.958   0.555   9.634  0.4964 -0.9848  1.1628
  103OSM   H10T10456   5.784   0.495   9.646  0.0100 -0.1160 -1.1400
  103OSM   C11S10457   5.943   0.346   9.609 -0.8345  0.5740 -0.6184
  103OSM   H11S10458   5.872   0.271   9.649  1.3744 -0.5586  1.4157
  103OSM   H11T10459   6.051   0.333   9.633 -1.2956 -1.1111  0.6958
  103OSM   C12S10460   5.907   0.344   9.459 -0.6797 -0.1229  0.5266
  103OSM   H12S10461   5.799   0.370   9.448 -0.4877  1.0387  1.2554
  103OSM   H12T10462   5.922   0.239   9.425  0.7708 -0.8911  3.2425
  103OSM   C13S10463   5.998   0.425   9.362 -0.4346 -0.1771 -0.7057
  103OSM   H13S10464   6.095   0.371   9.366 -0.1793  0.3121 -0.1951
  103OSM   H13T10465   6.010   0.523   9.414 -0.7819 -1.0920  1.1914
  103OSM   C14S10466   5.943   0.447   9.223 -0.0670 -0.4897  0.0389
  103OSM   H14S10467   6.014   0.510   9.167 -0.3979 -1.0160 -0.9948
  103OSM   H14T10468   5.844   0.497   9.230  1.0096  1.7934 -0.3898
  103OSM   C15S10469   5.937   0.323   9.140  0.6968 -0.2622  1.7363
  103OSM   H15S10470   5.875   0.250   9.197 -0.0223 -1.5670 -0.5706
  103OSM   H15T10471   6.041   0.289   9.119  0.0825 -1.6207  0.7076
  103OSM   C16S10472   5.867   0.353   9.006  0.4711  0.7818  1.0409
  103OSM   H16S10473   5.911   0.437   8.948 -1.8145  0.9992 -0.5097
  103OSM   H16T10474   5.763   0.385   9.031 -1.2706 -1.9467 -1.8341
  103OSM   C17S10475   5.879   0.241   8.903  0.4319  0.0730  0.3218
  103OSM   H17S10476   5.982   0.236   8.862  0.5465 -1.6719  0.7184
  103OSM   H17T10477   5.801   0.266   8.828  0.4191 -0.7713  0.0398
  103OSM   C18S10478   5.851   0.097   8.945  0.1118  0.3486 -0.0117
  103OSM   H18S10479   5.831   0.030   8.859  1.8587 -1.7535  1.1214
  103OSM   H18T10480   5.755   0.101   9.001 -0.1497 -0.7353 -0.3617
  103OSM   H18U10481   5.930   0.053   9.010  0.7286  0.8858 -0.3847
  103OSM    C1F10482   6.256   0.620  10.435  0.6191  0.3432  0.1576
  103OSM     OF10483   6.316   0.516  10.408 -0.5129  0.0545 -1.0652
  103OSM    C2F10484   6.309   0.754  10.405  0.1325 -0.0982  0.1174
  103OSM    H2F10485   6.388   0.768  10.482 -1.0571  2.3366  1.0254
  103OSM    H2G10486   6.231   0.832  10.420  0.9988  0.8960 -0.4397
  103OSM    C3F10487   6.389   0.749  10.274  0.9274  0.3763 -0.4473
  103OSM    H3F10488   6.477   0.681  10.273  1.9538  1.6372  0.5258
  103OSM    H3G10489   6.430   0.850  10.253  0.0656  0.8210 -0.0542
  103OSM    C4F10490   6.290   0.724  10.151 -0.7893 -0.0115 -0.4424
  103OSM    H4F10491   6.205   0.796  10.150 -0.9071 -0.1452 -0.2148
  103OSM    H4G10492   6.243   0.624  10.166 -0.0346 -0.1686  1.0928
  103OSM    C5F10493   6.362   0.729  10.016  0.6477 -0.0982 -0.1289
  103OSM    H5F10494   6.438   0.648  10.013  0.5275 -0.2058 -0.2836
  103OSM    H5G10495   6.420   0.824  10.011 -0.5588  0.6875  0.2140
  103OSM    C6F10496   6.274   0.702   9.892 -0.4792 -0.0056  0.7141
  103OSM    H6F10497   6.206   0.788   9.875  0.4252  0.4896 -0.6108
  103OSM    H6G10498   6.210   0.614   9.914 -1.7242  0.3462 -1.2866
  103OSM    C7F10499   6.367   0.676   9.764  0.3255 -0.2337  0.2529
  103OSM    H7F10500   6.452   0.612   9.797  0.7805  0.2156 -0.0263
  103OSM    H7G10501   6.410   0.776   9.741  1.7356 -0.5900  1.1834
  103OSM    C8F10502   6.288   0.621   9.646  1.1438  0.8547 -1.1368
  103OSM    H8F10503   6.216   0.543   9.678 -0.5650  2.1480 -1.6643
  103OSM    H8G10504   6.347   0.551   9.583  0.8321 -2.0506  1.5251
  103OSM    C9F10505   6.219   0.730   9.554 -0.5525  0.6839 -0.3535
  103OSM    H9F10506   6.127   0.777   9.592 -0.7534  0.1518 -0.1738
  103OSM   C10F10507   6.266   0.770   9.436  0.0414  0.3953 -0.2759
  103OSM   H10F10508   6.222   0.855   9.383  1.3681 -1.3648 -4.6323
  103OSM   C11F10509   6.389   0.727   9.366 -0.0133  0.8605  0.6916
  103OSM   H11F10510   6.469   0.728   9.444  0.7019 -2.7848  0.1859
  103OSM   H11G10511   6.416   0.797   9.284 -0.6238 -3.9646 -4.2035
  103OSM   C12F10512   6.371   0.591   9.301 -1.0133  0.7052  0.2575
  103OSM   H12F10513   6.291   0.595   9.224 -1.8687  1.1803  1.1563
  103OSM   H12G10514   6.323   0.521   9.373 -1.1265  1.7128  1.1838
  103OSM   C13F10515   6.506   0.528   9.246 -0.0049  0.2593  1.0790
  103OSM   H13F10516   6.565   0.603   9.189  0.1757 -1.2818 -0.9118
  103OSM   H13G10517   6.570   0.487   9.327  2.9246 -0.6769 -1.5033
  103OSM   C14F10518   6.480   0.399   9.155 -0.4106  0.0972 -0.5672
  103OSM   H14F10519   6.415   0.326   9.208 -0.8980  2.0799  1.7058
  103OSM   H14G10520   6.574   0.353   9.118 -0.1595 -0.2211  0.4298
  103OSM   C15F10521   6.404   0.433   9.022 -0.4790 -0.6341  0.4103
  103OSM   H15F10522   6.316   0.490   9.058  0.5909  0.0489  2.0951
  103OSM   H15G10523   6.369   0.344   8.967  1.7942 -0.2225 -1.8767
  103OSM   C16F10524   6.482   0.524   8.937  0.1999 -0.0264  0.2513
  103OSM   H16F10525   6.585   0.485   8.920 -0.3707 -2.2966  1.4939
  103OSM   H16G10526   6.493   0.621   8.989 -0.9330  0.2625 -0.0247
  103OSM   C17F10527   6.414   0.523   8.798 -0.6697  0.2475  0.1763
  103OSM   H17F10528   6.313   0.566   8.810 -1.6490 -0.2297 -4.3787
  103OSM   H17G10529   6.395   0.417   8.768  1.6693  0.2407 -1.5698
  103OSM   C18F10530   6.479   0.604   8.686 -0.5144 -0.4172 -0.3516
  103OSM   H18F10531   6.576   0.558   8.657 -0.2385 -0.5318  0.7117
  103OSM   H18G10532   6.491   0.713   8.705 -2.7786  0.1186 -1.6505
  103OSM   H18H10533   6.423   0.603   8.590 -0.6392  3.9265 -0.5406
  104OSM      N10534   3.218   0.221  10.756  0.5906  0.0319  0.6054
  104OSM    C1510535   3.083   0.179  10.792 -0.0351  0.0006 -0.6253
  104OSM   H15A10536   3.045   0.237  10.874  1.0336  0.7102 -0.6148
  104OSM   H15B10537   3.083   0.080  10.835 -2.7059  0.7342  1.3392
  104OSM   H15C10538   3.029   0.180  10.698  1.5842  2.0347 -1.6197
  104OSM    C1410539   3.308   0.216  10.875 -0.4199 -0.4821  0.5924
  104OSM   H14A10540   3.406   0.248  10.845 -0.4974 -1.2492 -0.5226
  104OSM   H14B10541   3.325   0.116  10.911 -1.2510 -0.4543  1.0942
  104OSM   H14C10542   3.272   0.279  10.955  0.1194 -0.4804  0.8349
  104OSM    C1310543   3.274   0.127  10.654 -0.1945 -0.3711 -0.1223
  104OSM   H13A10544   3.374   0.157  10.626 -0.1536 -0.2721  0.1254
  104OSM   H13B10545   3.217   0.123  10.563 -1.9003 -1.8382  0.9438
  104OSM   H13C10546   3.283   0.031  10.704  2.4337 -1.0223 -1.6278
  104OSM    C1210547   3.218   0.359  10.692 -0.1278 -0.0097 -0.7123
  104OSM   H12A10548   3.189   0.434  10.764 -0.6588  0.5226 -1.4544
  104OSM   H12B10549   3.131   0.358  10.628 -1.7667  0.3384  1.4220
  104OSM    C1110550   3.343   0.409  10.617  0.4032 -0.1179 -0.6206
  104OSM   H11A10551   3.323   0.505  10.565  3.5490  2.1610  1.9455
  104OSM   H11B10552   3.362   0.333  10.538  2.1619  0.4618 -0.8132
  104OSM      P10553   3.596   0.409  10.617 -0.5298 -0.2734 -0.4505
  104OSM    O1310554   3.701   0.445  10.713 -0.8863 -0.1710 -1.0569
  104OSM    O1410555   3.601   0.274  10.559  0.0300  0.0045 -0.0715
  104OSM    O1110556   3.583   0.509  10.495 -0.2223  0.4105  0.2611
  104OSM    O1210557   3.454   0.421  10.690 -0.1511  0.1630  0.4404
  104OSM    C1S10558   3.569   0.651  10.525 -0.1345 -0.2844 -0.0323
  104OSM    H1S10559   3.650   0.695  10.587  0.6764  2.4382 -2.7266
  104OSM    H1T10560   3.468   0.669  10.567 -0.3570 -0.5220 -0.4603
  104OSM     NF10561   3.560   0.884  10.437 -0.2050  0.3050  0.4495
  104OSM    HNF10562   3.473   0.924  10.409  1.2768  3.1585 -0.4824
  104OSM    C2S10563   3.578   0.740  10.395  0.3422 -0.3632 -0.3983
  104OSM    H2S10564   3.684   0.724  10.363  1.0891  0.3168  1.5905
  104OSM    C3S10565   3.487   0.687  10.283  0.5592  0.0655  0.1806
  104OSM    H3S10566   3.387   0.706  10.328  0.3844 -1.1426  0.3403
  104OSM     O310567   3.507   0.552  10.247 -0.5764  0.3590 -0.2197
  104OSM    HO310568   3.557   0.523  10.323 -0.7027 -2.2767 -1.0291
  104OSM    C4S10569   3.500   0.770  10.151  0.2189 -0.2814  0.0008
  104OSM    H4S10570   3.605   0.796  10.129  0.5418 -1.3560  0.2341
  104OSM    C5S10571   3.401   0.819  10.062  0.3703  0.4387 -0.6033
  104OSM    H5S10572   3.296   0.792  10.081 -0.2549  1.1594 -2.8007
  104OSM    C6S10573   3.435   0.896   9.938  0.4159 -0.4301 -0.1047
  104OSM    H6S10574   3.546   0.906   9.931  0.3376  0.0521 -0.8467
  104OSM    H6T10575   3.382   0.992   9.950  0.1247 -0.3386 -1.8325
  104OSM    C7S10576   3.382   0.826   9.810 -0.0920  0.5668 -0.2124
  104OSM    H7S10577   3.272   0.811   9.811  0.0700 -0.8012 -1.2221
  104OSM    H7T10578   3.421   0.723   9.801 -1.1381  0.2575 -1.3714
  104OSM    C8S10579   3.432   0.901   9.687 -0.3902  0.4519  0.8062
  104OSM    H8S10580   3.541   0.918   9.697  0.0396 -1.1279 -0.7152
  104OSM    H8T10581   3.379   0.999   9.682 -2.0004 -0.4590 -2.4160
  104OSM    C9S10582   3.385   0.824   9.559 -0.1226  0.0962  0.4879
  104OSM    H9S10583   3.274   0.820   9.565 -0.6009  3.8365 -1.9472
  104OSM    H9T10584   3.424   0.722   9.544  2.6604  1.2300 -0.7377
  104OSM   C10S10585   3.420   0.910   9.431  0.0127  0.7501 -0.3192
  104OSM   H10S10586   3.529   0.907   9.413  0.4700  0.6910  2.1744
  104OSM   H10T10587   3.387   1.015   9.445 -0.7725  0.4590  0.1202
  104OSM   C11S10588   3.357   0.854   9.304 -0.1059 -0.2596  0.4444
  104OSM   H11S10589   3.248   0.859   9.324  0.1384  0.0501  1.8130
  104OSM   H11T10590   3.389   0.749   9.287  0.3892 -0.4912  2.4559
  104OSM   C12S10591   3.390   0.929   9.178 -0.2925 -0.4303  0.8524
  104OSM   H12S10592   3.499   0.940   9.159  0.0635 -2.2964  1.5489
  104OSM   H12T10593   3.353   1.034   9.174  1.5536  0.2326  0.2795
  104OSM   C13S10594   3.315   0.870   9.058 -0.2725  0.0823 -0.1701
  104OSM   H13S10595   3.243   0.939   9.009  0.6204  0.3444 -1.1554
  104OSM   H13T10596   3.251   0.784   9.090 -0.8340  1.1676  1.7801
  104OSM   C14S10597   3.417   0.829   8.946  0.0664  1.0542  1.0407
  104OSM   H14S10598   3.504   0.784   8.999 -0.9253 -0.7819  1.1912
  104OSM   H14T10599   3.454   0.923   8.901 -0.7783  1.1532  0.5262
  104OSM   C15S10600   3.355   0.736   8.841  0.0339  0.1859 -0.0609
  104OSM   H15S10601   3.275   0.788   8.785  1.1121  0.6623 -1.2245
  104OSM   H15T10602   3.304   0.654   8.896 -0.7194  0.1348 -0.8157
  104OSM   C16S10603   3.457   0.682   8.736 -0.3676 -0.0146 -0.3701
  104OSM   H16S10604   3.413   0.607   8.667  2.2795 -2.3025  0.2448
  104OSM   H16T10605   3.529   0.622   8.796  2.4772  3.0543 -0.4490
  104OSM   C17S10606   3.523   0.791   8.662  0.1619  0.0121  0.0054
  104OSM   H17S10607   3.600   0.842   8.723  0.0251  1.2800 -0.8523
  104OSM   H17T10608   3.445   0.867   8.645 -0.6982 -1.0601 -1.0962
  104OSM   C18S10609   3.590   0.741   8.532 -0.3226  0.1542  0.7031
  104OSM   H18S10610   3.601   0.831   8.468  0.6072  0.2292  0.9582
  104OSM   H18T10611   3.526   0.674   8.472  0.2762  0.5342 -0.3812
  104OSM   H18U10612   3.689   0.693   8.546  0.3875  0.9970 -1.1361
  104OSM    C1F10613   3.646   0.956  10.507  1.0913 -0.7392  0.3923
  104OSM     OF10614   3.756   0.912  10.545  0.0920 -0.2923 -0.4683
  104OSM    C2F10615   3.604   1.095  10.550  0.0211 -0.3073  0.2672
  104OSM    H2F10616   3.502   1.079  10.589  0.3941  1.3566  2.1014
  104OSM    H2G10617   3.603   1.150  10.454  1.8405 -1.6200 -0.5765
  104OSM    C3F10618   3.698   1.157  10.657  0.2381 -0.6786 -0.4205
  104OSM    H3F10619   3.801   1.129  10.630  1.0520 -0.2515  1.9577
  104OSM    H3G10620   3.678   1.109  10.755 -1.6565  0.2476 -0.2993
  104OSM    C4F10621   3.684   1.305  10.672 -0.0278 -0.6693 -1.4164
  104OSM    H4F10622   3.714   1.348  10.770 -0.9075 -0.6643 -1.1335
  104OSM    H4G10623   3.574   1.322  10.668  0.0927  0.7793  0.0467
  104OSM    C5F10624   3.761   1.381  10.570  0.5030 -0.4044  0.1031
  104OSM    H5F10625   3.747   1.358  10.462 -0.9897  1.2635 -0.1095
  104OSM    H5G10626   3.870   1.373  10.591  0.3213 -1.0086  0.8618
  104OSM    C6F10627   3.709   1.532  10.567 -0.3730 -0.3309 -0.4398
  104OSM    H6F10628   3.779   1.589  10.502  0.4398 -1.8470 -0.9391
  104OSM    H6G10629   3.719   1.591  10.661 -0.8123 -2.7511  1.2360
  104OSM    C7F10630   3.574   1.536  10.501  0.1560  0.1893  0.7081
  104OSM    H7F10631   3.500   1.503  10.577 -0.3167 -2.6066 -0.8608
  104OSM    H7G10632   3.551   1.469  10.416 -0.9308  0.0808  1.0729
  104OSM    C8F10633   3.524   1.673  10.456 -0.6686  0.6607  0.9764
  104OSM    H8F10634   3.565   1.701  10.357 -4.2598  0.2261 -0.7807
  104OSM    H8G10635   3.554   1.741  10.539 -1.7433  1.7031  0.5318
  104OSM    C9F10636   3.370   1.684  10.439 -0.4070  0.2003 -0.3408
  104OSM    H9F10637   3.322   1.646  10.530  0.6035  1.1900  0.6355
  104OSM   C10F10638   3.298   1.716  10.322 -0.5701  0.8430  0.3913
  104OSM   H10F10639   3.191   1.693  10.316 -0.0452 -1.9317  0.0681
  104OSM   C11F10640   3.366   1.748  10.186  0.4824 -0.2586  0.1179
  104OSM   H11F10641   3.321   1.692  10.101 -1.0413  0.8805  0.1449
  104OSM   H11G10642   3.473   1.717  10.180 -0.0460 -2.2351 -0.0343
  104OSM   C12F10643   3.365   1.891  10.151 -0.2376 -0.3195 -1.0927
  104OSM   H12F10644   3.403   1.948  10.238 -0.0585 -1.5883 -0.3184
  104OSM   H12G10645   3.266   1.931  10.121  0.7925  0.9621 -2.9660
  104OSM   C13F10646   3.451   1.911  10.032 -0.1895  0.7028 -0.1085
  104OSM   H13F10647   3.409   1.849   9.950 -1.4096 -0.6449  1.4873
  104OSM   H13G10648   3.557   1.880  10.040 -0.8244 -2.7701 -2.8504
  104OSM   C14F10649   3.446   2.054   9.985  0.6399 -0.9044 -0.1097
  104OSM   H14F10650   3.486   2.109  10.073 -2.7048 -0.7752  1.4816
  104OSM   H14G10651   3.342   2.080   9.959  1.2980 -0.3095 -2.3311
  104OSM   C15F10652   3.551   2.080   9.873  0.2836  0.7113  0.4831
  104OSM   H15F10653   3.650   2.083   9.923 -1.0982  2.1085  3.3653
  104OSM   H15G10654   3.532   2.183   9.837 -3.3405  0.4211  1.1899
  104OSM   C16F10655   3.538   1.995   9.743 -0.3085 -0.2839  0.0781
  104OSM   H16F10656   3.431   1.982   9.715 -0.1261 -0.4583 -0.5552
  104OSM   H16G10657   3.570   1.891   9.764  1.2033  0.3086  0.9026
  104OSM   C17F10658   3.610   2.054   9.623  0.5454  0.3268 -0.2244
  104OSM   H17F10659   3.720   2.056   9.642  1.2908 -1.6342 -3.4827
  104OSM   H17G10660   3.580   2.160   9.612  1.1116  0.5972  0.6833
  104OSM   C18F10661   3.588   1.970   9.500  0.2570  0.1866 -0.1451
  104OSM   H18F10662   3.640   1.871   9.501  2.0471  1.0931  0.2068
  104OSM   H18G10663   3.618   2.027   9.410 -1.0488 -0.4195 -1.0101
  104OSM   H18H10664   3.479   1.949   9.495  0.1850  0.0279  1.6756
  105OSM      N10665   4.421   6.189  11.016  0.0183 -0.4721  0.2280
  105OSM    C1510666   4.387   6.075  11.110  0.0316 -0.3369  0.0067
  105OSM   H15A10667   4.297   6.097  11.167  0.4672 -0.3169  0.7058
  105OSM   H15B10668   4.463   6.069  11.186 -0.8094 -0.1140  0.8897
  105OSM   H15C10669   4.387   5.979  11.062 -0.6156  0.7401 -2.2748
  105OSM    C1410670   4.434   6.313  11.095  0.0492  0.3892 -0.0508
  105OSM   H14A10671   4.352   6.338  11.161  0.0985  1.0912 -0.2470
  105OSM   H14B10672   4.436   6.398  11.028  0.3628 -0.3536 -1.0170
  105OSM   H14C10673   4.527   6.316  11.149  1.2952  0.9629 -2.1217
  105OSM    C1310674   4.556   6.153  10.968  0.4087 -0.4085 -0.0988
  105OSM   H13A10675   4.603   6.233  10.912  0.0479 -1.0469 -1.3582
  105OSM   H13B10676   4.557   6.064  10.906 -2.7419 -0.6429  0.0198
  105OSM   H13C10677   4.618   6.139  11.055  1.4218  1.4417 -0.4814
  105OSM    C1210678   4.317   6.203  10.906  0.4161  0.3759 -0.1474
  105OSM   H12A10679   4.301   6.114  10.847  0.0212  1.1051 -1.1698
  105OSM   H12B10680   4.354   6.275  10.834  1.7667  0.7420  0.8608
  105OSM    C1110681   4.179   6.256  10.950  0.2877 -0.6278 -0.0934
  105OSM   H11A10682   4.137   6.192  11.030  0.4261 -0.4979  0.0828
  105OSM   H11B10683   4.104   6.250  10.868 -0.4028  3.8867 -0.0192
  105OSM      P10684   4.233   6.504  10.875  0.2902  0.3598 -0.1170
  105OSM    O1310685   4.125   6.605  10.874  0.3312  0.0598 -0.6646
  105OSM    O1410686   4.373   6.552  10.879 -0.8925 -0.2933  0.4171
  105OSM    O1110687   4.215   6.426  10.735  0.3149  0.1684  0.1376
  105OSM    O1210688   4.183   6.395  10.980 -0.3277  0.1115  0.0136
  105OSM    C1S10689   4.283   6.483  10.622 -0.7426 -0.1750 -0.0344
  105OSM    H1S10690   4.392   6.462  10.626 -0.6520 -0.3814 -2.3534
  105OSM    H1T10691   4.273   6.593  10.610 -1.1713  0.4515  4.3966
  105OSM     NF10692   4.309   6.462  10.379  0.5478  0.3077  0.1796
  105OSM    HNF10693   4.273   6.529  10.314  0.2546  1.4633  1.5060
  105OSM    C2S10694   4.228   6.425  10.490  0.4957 -0.0775 -1.1153
  105OSM    H2S10695   4.233   6.314  10.489 -1.1013 -0.2807  2.2038
  105OSM    C3S10696   4.070   6.463  10.479 -0.2654 -0.0978 -0.8807
  105OSM    H3S10697   4.077   6.574  10.485  3.7801 -0.1926 -1.3202
  105OSM     O310698   3.991   6.433  10.593 -0.6909  0.3663  0.2449
  105OSM    HO310699   4.056   6.409  10.660 -0.0692 -0.2891 -0.5680
  105OSM    C4S10700   4.021   6.408  10.350  0.6905  0.1527  0.2802
  105OSM    H4S10701   4.050   6.465  10.261 -1.1876  0.5135 -0.1377
  105OSM    C5S10702   3.946   6.301  10.327  0.3606 -0.0020 -0.0272
  105OSM    H5S10703   3.915   6.238  10.411 -0.5419  0.4219 -0.0324
  105OSM    C6S10704   3.900   6.256  10.190 -0.6092  0.4430  0.4574
  105OSM    H6S10705   3.792   6.229  10.195  0.2250 -3.7170 -0.4765
  105OSM    H6T10706   3.944   6.159  10.158 -1.1411 -0.4477  2.2692
  105OSM    C7S10707   3.928   6.344  10.069 -0.5187 -0.9441 -0.0028
  105OSM    H7S10708   4.035   6.330  10.045 -0.0679  1.4084  0.4072
  105OSM    H7T10709   3.898   6.449  10.090  2.5851 -0.0694  0.4996
  105OSM    C8S10710   3.864   6.305   9.934 -0.2643 -0.7708 -0.4692
  105OSM    H8S10711   3.754   6.308   9.943 -0.2462  0.7757 -0.4733
  105OSM    H8T10712   3.899   6.202   9.914  2.3014 -0.1151  0.2224
  105OSM    C9S10713   3.899   6.405   9.827 -0.6015  0.5577  0.2808
  105OSM    H9S10714   4.009   6.423   9.821 -0.6027  0.6290  0.4601
  105OSM    H9T10715   3.851   6.501   9.855  1.1196  1.7135 -0.5461
  105OSM   C10S10716   3.855   6.359   9.688 -0.0336  0.8414  0.4166
  105OSM   H10S10717   3.745   6.348   9.695 -0.0158 -0.5167 -0.9680
  105OSM   H10T10718   3.882   6.254   9.662 -1.1749  0.2515  1.5136
  105OSM   C11S10719   3.889   6.456   9.576 -0.4088 -0.7540  0.0292
  105OSM   H11S10720   3.998   6.474   9.583 -0.2868 -1.8560  1.4645
  105OSM   H11T10721   3.848   6.556   9.599  0.8124  0.0188 -1.0371
  105OSM   C12S10722   3.850   6.404   9.435  0.2910 -0.4371 -0.3064
  105OSM   H12S10723   3.844   6.483   9.357  2.7883 -1.4754 -1.6578
  105OSM   H12T10724   3.746   6.363   9.438 -0.0450  0.4323  0.4918
  105OSM   C13S10725   3.959   6.313   9.367  0.9830 -0.6268 -0.5279
  105OSM   H13S10726   3.992   6.236   9.439  0.2795  0.4571  1.0219
  105OSM   H13T10727   4.041   6.383   9.341  1.6162 -1.4931 -0.8912
  105OSM   C14S10728   3.915   6.240   9.240  0.1627 -0.5750 -0.5241
  105OSM   H14S10729   3.864   6.307   9.168  0.9259 -1.7387 -2.2226
  105OSM   H14T10730   3.868   6.143   9.268  0.1404 -0.8019 -1.3253
  105OSM   C15S10731   4.039   6.191   9.161  0.0434  0.2841  0.1825
  105OSM   H15S10732   4.115   6.153   9.233  0.5605  0.8808 -0.0488
  105OSM   H15T10733   4.085   6.273   9.103 -1.1689  1.1604  0.4242
  105OSM   C16S10734   4.004   6.089   9.055 -0.4639  0.3424  0.6637
  105OSM   H16S10735   3.917   6.137   9.005 -0.2401  0.1613  0.0981
  105OSM   H16T10736   3.982   5.992   9.106 -0.7237  0.9851  1.8141
  105OSM   C17S10737   4.106   6.070   8.936  0.5956  0.4587 -0.6548
  105OSM   H17S10738   4.202   6.027   8.972  0.3463 -0.4781 -1.0902
  105OSM   H17T10739   4.128   6.173   8.900  1.7441  0.4412 -0.0621
  105OSM   C18S10740   4.064   5.975   8.821 -0.4497  0.8444  0.2473
  105OSM   H18S10741   4.011   5.886   8.862 -1.3239  0.6266 -1.2889
  105OSM   H18T10742   4.140   5.937   8.750 -0.8643 -0.2481  0.3654
  105OSM   H18U10743   3.986   6.019   8.755  2.1803  2.4667 -2.0076
  105OSM    C1F10744   4.433   6.408  10.365 -0.2404  0.1929  0.1210
  105OSM     OF10745   4.484   6.333  10.445 -0.4524  0.1955  0.0553
  105OSM    C2F10746   4.508   6.443  10.242  0.6082 -0.2800  0.1199
  105OSM    H2F10747   4.591   6.507  10.278  0.8522 -0.9606  0.7969
  105OSM    H2G10748   4.442   6.497  10.170  1.4413  0.8973  0.2142
  105OSM    C3F10749   4.556   6.315  10.166 -0.4966 -0.4474  0.7376
  105OSM    H3F10750   4.478   6.237  10.163 -0.9399  0.0078 -0.0727
  105OSM    H3G10751   4.638   6.268  10.225 -1.3983 -0.3310  2.1182
  105OSM    C4F10752   4.612   6.339  10.031  0.2050 -0.6689  0.0104
  105OSM    H4F10753   4.681   6.426  10.031  0.0235 -0.4596 -2.2175
  105OSM    H4G10754   4.528   6.371   9.966  1.1764  2.1315 -0.0061
  105OSM    C5F10755   4.679   6.217   9.961  0.5359 -0.6243  0.9440
  105OSM    H5F10756   4.670   6.232   9.851  0.6924 -0.5007  0.9485
  105OSM    H5G10757   4.629   6.119   9.978 -0.4918 -0.2757  0.0901
  105OSM    C6F10758   4.829   6.209   9.985 -0.0786 -0.7231  0.1230
  105OSM    H6F10759   4.852   6.219  10.093 -3.1773  2.2830  0.6714
  105OSM    H6G10760   4.892   6.285   9.934  0.9460 -2.4041 -1.2531
  105OSM    C7F10761   4.881   6.073   9.943  0.1535 -0.1054 -0.3267
  105OSM    H7F10762   4.832   5.995  10.007 -3.2365  0.7479 -1.6705
  105OSM    H7G10763   4.989   6.071   9.969 -0.0910 -1.2464  0.7388
  105OSM    C8F10764   4.853   6.050   9.790 -0.2633  0.4179 -0.4237
  105OSM    H8F10765   4.895   6.136   9.734 -1.1581  1.3579  0.3005
  105OSM    H8G10766   4.745   6.051   9.762 -0.4643 -0.1309  0.3025
  105OSM    C9F10767   4.914   5.917   9.744  0.1292  0.0237  0.5234
  105OSM    H9F10768   4.874   5.821   9.780  1.5922 -0.3595  1.1908
  105OSM   C10F10769   5.015   5.905   9.658 -0.3263  0.4641 -0.1477
  105OSM   H10F10770   5.051   5.803   9.637  0.1289  0.7348 -0.7127
  105OSM   C11F10771   5.098   6.018   9.593 -0.5962 -0.3425  0.0382
  105OSM   H11F10772   5.202   5.978   9.593 -0.5586 -0.4486 -2.7655
  105OSM   H11G10773   5.088   6.112   9.651  0.2107  0.3633 -0.9280
  105OSM   C12F10774   5.070   6.068   9.453  0.1000  0.0179 -0.5095
  105OSM   H12F10775   5.100   6.174   9.440 -1.2109  0.5279  0.4429
  105OSM   H12G10776   4.960   6.076   9.446  0.0162  1.3636  1.5098
  105OSM   C13F10777   5.130   5.967   9.352 -0.1315  0.6040  0.0160
  105OSM   H13F10778   5.071   5.873   9.342 -0.5328  0.9427 -0.9173
  105OSM   H13G10779   5.234   5.939   9.378  0.2184  1.4008 -0.4741
  105OSM   C14F10780   5.143   6.024   9.214  0.3550 -0.7294  0.2604
  105OSM   H14F10781   5.220   5.986   9.144  0.2159  0.8608 -0.8019
  105OSM   H14G10782   5.163   6.133   9.221  0.5312 -0.7062 -0.5230
  105OSM   C15F10783   5.002   6.022   9.140  0.0146 -0.4949 -0.2699
  105OSM   H15F10784   4.935   6.071   9.213  1.0219 -3.2499  2.7162
  105OSM   H15G10785   4.977   5.914   9.130 -0.9537 -0.3026 -0.0385
  105OSM   C16F10786   5.000   6.091   9.002  0.1501 -0.6340 -0.2894
  105OSM   H16F10787   4.891   6.097   8.979 -0.0560 -1.3678  0.4502
  105OSM   H16G10788   5.039   6.023   8.924  1.6641 -0.2966  0.1531
  105OSM   C17F10789   5.084   6.213   8.986  0.2448  0.4367  0.0358
  105OSM   H17F10790   5.191   6.193   9.007  0.6844  1.2520 -1.3265
  105OSM   H17G10791   5.058   6.283   9.068 -2.4170  0.0991 -0.4173
  105OSM   C18F10792   5.062   6.274   8.852  0.2309 -0.3608 -0.1139
  105OSM   H18F10793   5.123   6.228   8.771 -2.1594  0.1074 -2.3188
  105OSM   H18G10794   5.062   6.385   8.843 -1.5143 -0.4743 -2.5750
  105OSM   H18H10795   4.960   6.245   8.820  0.3024 -1.0167  0.2488
  106OSM      N10796   4.603   5.210  10.920  0.4291  0.0653  0.1102
  106OSM    C1510797   4.554   5.352  10.955  0.4182  0.1797 -0.2704
  106OSM   H15A10798   4.472   5.349  11.025  1.3172  0.4901  0.8285
  106OSM   H15B10799   4.517   5.403  10.867  1.1097 -0.2139 -0.8031
  106OSM   H15C10800   4.632   5.416  10.994  0.0105 -0.7845  2.2783
  106OSM    C1410801   4.725   5.217  10.822 -0.9835  0.4483 -0.0584
  106OSM   H14A10802   4.722   5.285  10.738 -0.6167  0.6707  0.1058
  106OSM   H14B10803   4.735   5.119  10.778  1.6204  0.4305  0.3920
  106OSM   H14C10804   4.820   5.241  10.867  0.4217  0.8534 -2.9648
  106OSM    C1310805   4.645   5.140  11.036 -0.0850 -0.0782 -0.4418
  106OSM   H13A10806   4.564   5.134  11.107 -1.0336 -1.6121 -1.6056
  106OSM   H13B10807   4.726   5.189  11.088 -0.6116 -0.4782  0.8059
  106OSM   H13C10808   4.675   5.040  11.008  1.8999 -0.3526  2.2391
  106OSM    C1210809   4.486   5.133  10.849 -0.0437  0.2847 -0.6154
  106OSM   H12A10810   4.480   5.174  10.749  3.4245  0.8197 -0.7120
  106OSM   H12B10811   4.391   5.148  10.899 -0.6312 -1.5227 -1.1326
  106OSM    C1110812   4.507   4.978  10.838 -0.0918 -0.5311 -0.0238
  106OSM   H11A10813   4.411   4.931  10.805 -1.3457  1.1416  1.0854
  106OSM   H11B10814   4.526   4.935  10.939  1.9737  0.4430  0.0325
  106OSM      P10815   4.612   4.816  10.657  0.0034  0.4190 -0.4717
  106OSM    O1310816   4.756   4.799  10.612  0.2833  0.8273  0.2613
  106OSM    O1410817   4.550   4.711  10.743 -0.6828 -0.7079 -0.1631
  106OSM    O1110818   4.515   4.850  10.534 -0.6222  0.0664  0.0831
  106OSM    O1210819   4.612   4.951  10.747  0.1269  0.1333  0.2091
  106OSM    C1S10820   4.495   4.981  10.491 -1.2220 -0.5662 -0.2945
  106OSM    H1S10821   4.586   5.031  10.452 -0.8957 -1.2615 -0.4535
  106OSM    H1T10822   4.464   5.049  10.573  0.1590 -0.6774  0.3483
  106OSM     NF10823   4.372   5.112  10.327 -0.3800 -0.0127 -0.6292
  106OSM    HNF10824   4.302   5.165  10.375 -2.3848 -2.4577 -0.6640
  106OSM    C2S10825   4.393   4.977  10.380  0.2906  1.0346  0.6021
  106OSM    H2S10826   4.428   4.916  10.295 -2.8858  1.7645 -1.3933
  106OSM    C3S10827   4.260   4.908  10.437 -0.2594  0.5099 -1.1637
  106OSM    H3S10828   4.214   4.980  10.508  0.0900 -1.0415  0.7166
  106OSM     O310829   4.265   4.785  10.517  0.3129 -0.4715  0.4110
  106OSM    HO310830   4.357   4.764  10.504  0.4015  1.4807 -3.4562
  106OSM    C4S10831   4.179   4.894  10.312 -0.2707  0.3418 -0.5690
  106OSM    H4S10832   4.147   4.992  10.272 -0.3233  0.9469  0.8856
  106OSM    C5S10833   4.153   4.783  10.245 -0.1317  0.0218 -0.2991
  106OSM    H5S10834   4.201   4.690  10.277  0.2379 -0.3507 -1.8769
  106OSM    C6S10835   4.089   4.776  10.112 -0.6239 -0.4376  0.0964
  106OSM    H6S10836   4.013   4.697  10.130 -0.8907  0.1736  1.9845
  106OSM    H6T10837   4.155   4.735  10.033 -0.8273 -1.3300  0.3757
  106OSM    C7S10838   4.012   4.900  10.063  0.1122  0.5294 -0.1726
  106OSM    H7S10839   4.078   4.981  10.027 -1.1026  1.3429 -0.6556
  106OSM    H7T10840   3.956   4.957  10.140  0.2652 -0.2512  0.5239
  106OSM    C8S10841   3.905   4.874   9.949  0.0564  0.0707  0.1757
  106OSM    H8S10842   3.866   4.971   9.909  2.2887  1.6830  1.6720
  106OSM    H8T10843   3.818   4.817   9.990 -2.6722  2.5521 -1.7075
  106OSM    C9S10844   3.973   4.809   9.828 -0.0316 -0.7324 -0.1465
  106OSM    H9S10845   3.977   4.699   9.839  0.6668 -0.5911  1.1613
  106OSM    H9T10846   4.073   4.856   9.813  0.2265 -1.6192 -1.3663
  106OSM   C10S10847   3.892   4.831   9.688  0.6228  0.7358 -0.0906
  106OSM   H10S10848   3.790   4.788   9.689 -0.8218  3.4627 -3.9849
  106OSM   H10T10849   3.947   4.770   9.613  1.7213  0.8629  0.5936
  106OSM   C11S10850   3.886   4.975   9.636 -0.2429 -0.0786  0.6761
  106OSM   H11S10851   3.972   5.028   9.681 -0.3053 -2.0500  3.3842
  106OSM   H11T10852   3.794   5.023   9.677 -1.8941 -0.5754 -2.2081
  106OSM   C12S10853   3.875   4.998   9.484 -0.8489 -0.1369 -0.4652
  106OSM   H12S10854   3.956   4.938   9.437  0.4244  1.3979 -0.3248
  106OSM   H12T10855   3.901   5.103   9.458  0.9854 -0.3605  0.3053
  106OSM   C13S10856   3.748   4.936   9.426  0.1128  0.0311  0.7364
  106OSM   H13S10857   3.668   4.982   9.488  0.0453  0.2268  0.5055
  106OSM   H13T10858   3.754   4.828   9.449  0.6211  0.0308  0.6120
  106OSM   C14S10859   3.732   4.943   9.275  0.3721  0.3153 -0.0415
  106OSM   H14S10860   3.810   4.884   9.221  1.0463 -0.9914  2.1966
  106OSM   H14T10861   3.743   5.048   9.241  0.1000  0.2895 -0.2126
  106OSM   C15S10862   3.598   4.905   9.227 -0.9242  0.2727 -0.0244
  106OSM   H15S10863   3.517   4.965   9.276 -0.7740  2.2757 -2.0596
  106OSM   H15T10864   3.575   4.799   9.250 -2.0597  0.1836 -1.4161
  106OSM   C16S10865   3.579   4.919   9.077 -0.5737 -1.3048  0.4754
  106OSM   H16S10866   3.662   4.862   9.030 -0.8951 -0.1429 -1.6805
  106OSM   H16T10867   3.577   5.025   9.042 -1.6029 -1.7017 -0.7484
  106OSM   C17S10868   3.433   4.877   9.037  0.1938 -0.2732 -0.0316
  106OSM   H17S10869   3.377   4.958   9.089  1.5922 -0.2747  1.5754
  106OSM   H17T10870   3.390   4.782   9.077  0.4451 -1.9730 -3.4330
  106OSM   C18S10871   3.415   4.873   8.885  0.2082  0.3212  0.0461
  106OSM   H18S10872   3.415   4.978   8.847  0.1085  0.2453 -0.1600
  106OSM   H18T10873   3.321   4.817   8.868  0.0859 -0.3456  2.5066
  106OSM   H18U10874   3.499   4.813   8.846  0.1284 -0.6838  1.3295
  106OSM    C1F10875   4.448   5.169  10.234 -0.6874  0.4934 -0.2565
  106OSM     OF10876   4.533   5.104  10.175 -0.1402 -0.1820 -0.1975
  106OSM    C2F10877   4.435   5.314  10.201 -0.3291  0.4143  0.2265
  106OSM    H2F10878   4.495   5.340  10.112 -0.3497 -0.9632 -0.2136
  106OSM    H2G10879   4.499   5.372  10.271 -1.7848  2.3103  0.0594
  106OSM    C3F10880   4.287   5.361  10.199 -0.2209 -0.5687 -0.2968
  106OSM    H3F10881   4.286   5.472  10.197 -0.0735 -0.5691 -0.4509
  106OSM    H3G10882   4.229   5.325  10.287 -1.0692  2.5344  0.5426
  106OSM    C4F10883   4.217   5.316  10.066  0.1546 -0.0260  0.0766
  106OSM    H4F10884   4.110   5.344  10.077  0.5995  1.2611  1.4620
  106OSM    H4G10885   4.218   5.205  10.060 -1.2310  0.0089 -1.3866
  106OSM    C5F10886   4.273   5.363   9.930 -0.2750 -0.2761  0.0967
  106OSM    H5F10887   4.370   5.311   9.910 -0.1380 -0.3838  0.9917
  106OSM    H5G10888   4.285   5.474   9.930 -2.3134  0.0162 -1.7254
  106OSM    C6F10889   4.175   5.326   9.824  0.7690  0.4743  0.6989
  106OSM    H6F10890   4.086   5.387   9.851  0.4846  0.4814 -0.2203
  106OSM    H6G10891   4.137   5.222   9.833 -0.0964  0.7024 -0.1969
  106OSM    C7F10892   4.228   5.355   9.686  0.2540 -0.5465  0.3935
  106OSM    H7F10893   4.313   5.289   9.660  1.6245  1.7221 -1.1889
  106OSM    H7G10894   4.273   5.455   9.704  0.6519 -1.0364  2.4179
  106OSM    C8F10895   4.119   5.355   9.574 -0.4524  0.1293  0.7522
  106OSM    H8F10896   4.024   5.409   9.593 -0.0767  1.0916 -0.0349
  106OSM    H8G10897   4.081   5.251   9.578 -0.3358 -0.0652 -1.7818
  106OSM    C9F10898   4.187   5.399   9.442  0.1833  0.3238 -0.1985
  106OSM    H9F10899   4.190   5.509   9.442 -1.5725  0.3999 -0.4521
  106OSM   C10F10900   4.223   5.318   9.343  0.3183 -0.0223 -0.5539
  106OSM   H10F10901   4.280   5.367   9.264 -0.2438  1.0436 -0.3195
  106OSM   C11F10902   4.211   5.172   9.321  0.0095  0.1336  0.2561
  106OSM   H11F10903   4.147   5.121   9.396  2.4092 -1.6883  1.1841
  106OSM   H11G10904   4.309   5.122   9.336  0.2407  0.1460 -1.0999
  106OSM   C12F10905   4.171   5.153   9.168 -0.0850 -0.9339  0.2266
  106OSM   H12F10906   4.228   5.211   9.093 -3.4069  0.1609 -1.6811
  106OSM   H12G10907   4.071   5.201   9.151  0.8251  1.2833  0.7487
  106OSM   C13F10908   4.149   5.009   9.123  0.3307  0.1711 -0.6858
  106OSM   H13F10909   4.134   4.947   9.214  1.3233  0.9853  0.0574
  106OSM   H13G10910   4.247   4.982   9.079  1.4461  2.1141  0.4377
  106OSM   C14F10911   4.034   4.983   9.021  0.0938  0.0227  0.5451
  106OSM   H14F10912   3.942   4.999   9.080 -0.7172  1.2902 -0.9871
  106OSM   H14G10913   4.042   4.877   8.987  0.8876  0.3341 -0.2899
  106OSM   C15F10914   4.041   5.080   8.903  0.2380  0.0145  0.3358
  106OSM   H15F10915   4.146   5.081   8.866  0.5693 -1.9582  1.1086
  106OSM   H15G10916   4.017   5.181   8.941  1.7507  0.1482  1.0249
  106OSM   C16F10917   3.953   5.041   8.788 -0.3551 -1.1426 -0.2513
  106OSM   H16F10918   3.857   5.015   8.838 -0.7552 -0.6455 -0.7358
  106OSM   H16G10919   3.992   4.955   8.729  0.1775 -0.9722 -0.1470
  106OSM   C17F10920   3.943   5.158   8.684  0.7896 -0.4874  0.1989
  106OSM   H17F10921   3.912   5.248   8.741 -2.5071 -1.5062  0.2206
  106OSM   H17G10922   3.854   5.130   8.624 -0.8675  1.1325  1.7743
  106OSM   C18F10923   4.067   5.178   8.594  0.1908 -0.4446 -0.4109
  106OSM   H18F10924   4.058   5.276   8.543  1.9477  0.6985  1.3132
  106OSM   H18G10925   4.083   5.105   8.512  0.6997 -2.1225  1.1163
  106OSM   H18H10926   4.160   5.194   8.653 -0.1445 -1.4572  0.4455
  107OSM      N10927   4.709   2.325  11.189 -0.5842 -0.1101 -0.0386
  107OSM    C1510928   4.847   2.304  11.139  0.4743 -0.4205 -1.1726
  107OSM   H15A10929   4.892   2.401  11.126  0.1970 -0.5280 -3.3462
  107OSM   H15B10930   4.847   2.251  11.045 -0.4484 -0.2643 -1.2676
  107OSM   H15C10931   4.909   2.252  11.211  0.7474 -0.2957 -1.3147
  107OSM    C1410932   4.648   2.194  11.237 -0.1910  0.3114 -0.8304
  107OSM   H14A10933   4.609   2.126  11.162 -1.5606 -0.5383  0.5933
  107OSM   H14B10934   4.568   2.217  11.305  0.9716 -0.7451  0.9940
  107OSM   H14C10935   4.726   2.143  11.292 -2.4249 -0.7966  1.4967
  107OSM    C1310936   4.717   2.417  11.307 -1.1506 -0.3230  0.2281
  107OSM   H13A10937   4.624   2.464  11.336 -1.2104  0.6363 -1.3871
  107OSM   H13B10938   4.780   2.503  11.286 -2.3888  0.2931 -1.1382
  107OSM   H13C10939   4.764   2.364  11.388  0.2937  0.4560 -0.0562
  107OSM    C1210940   4.621   2.374  11.073 -0.5840 -0.8883 -0.2300
  107OSM   H12A10941   4.643   2.478  11.052  2.0719 -1.2528  0.4248
  107OSM   H12B10942   4.518   2.362  11.103  0.5110 -2.4948  3.4784
  107OSM    C1110943   4.638   2.298  10.937  0.2971  0.9700  0.4312
  107OSM   H11A10944   4.547   2.320  10.876 -0.5453  0.9362  1.6475
  107OSM   H11B10945   4.635   2.190  10.960  1.6766  0.9098  0.4209
  107OSM      P10946   4.767   2.470  10.812  0.4628 -0.1191  0.0729
  107OSM    O1310947   4.640   2.545  10.826  0.4361 -0.6432  0.3284
  107OSM    O1410948   4.896   2.526  10.876  1.3561  0.0079 -0.0843
  107OSM    O1110949   4.784   2.467  10.656  0.3660  0.0087 -0.0303
  107OSM    O1210950   4.752   2.322  10.860  0.3024  0.2614  0.1464
  107OSM    C1S10951   4.804   2.338  10.600 -0.0003 -0.5446  0.0152
  107OSM    H1S10952   4.705   2.288  10.612 -0.8231  1.5006  2.7499
  107OSM    H1T10953   4.894   2.283  10.632  1.5423  0.3460 -2.5235
  107OSM     NF10954   4.841   2.209  10.385 -0.1552 -0.8154 -0.5821
  107OSM    HNF10955   4.925   2.179  10.340  0.9073  1.2998 -0.1226
  107OSM    C2S10956   4.844   2.341  10.450 -0.6184 -0.9689  0.5485
  107OSM    H2S10957   4.773   2.398  10.385  2.3183  0.9109 -1.2195
  107OSM    C3S10958   4.980   2.423  10.431 -0.4799  0.0203 -0.6429
  107OSM    H3S10959   5.064   2.356  10.460  0.2668  1.1393 -0.1596
  107OSM     O310960   4.990   2.542  10.505  0.4468 -0.4058 -0.5120
  107OSM    HO310961   4.913   2.544  10.562  0.3871  2.0384 -0.5664
  107OSM    C4S10962   5.005   2.447  10.281 -0.0558 -0.7486 -0.9251
  107OSM    H4S10963   5.064   2.367  10.233 -2.1710 -1.3676 -2.6201
  107OSM    C5S10964   4.945   2.543  10.206  0.3636 -0.9416 -0.3375
  107OSM    H5S10965   4.874   2.608  10.260  0.3587  1.8612 -3.4412
  107OSM    C6S10966   4.963   2.570  10.066 -0.6230  0.4685 -0.6599
  107OSM    H6S10967   5.028   2.493  10.019  1.3132  0.9419  1.0766
  107OSM    H6T10968   5.025   2.662  10.056  0.0593  0.4870  2.6749
  107OSM    C7S10969   4.832   2.587   9.991  0.2253 -0.4416  0.3446
  107OSM    H7S10970   4.874   2.600   9.888  0.0742 -3.8407 -0.2928
  107OSM    H7T10971   4.779   2.681  10.014  0.7486  0.2152 -1.0235
  107OSM    C8S10972   4.735   2.467  10.000  0.6362 -0.7761 -0.0089
  107OSM    H8S10973   4.695   2.454  10.103 -1.5608  2.8925 -0.2340
  107OSM    H8T10974   4.799   2.384   9.963 -1.1369 -1.6461 -1.3160
  107OSM    C9S10975   4.629   2.465   9.886 -0.5729  0.2714 -0.8160
  107OSM    H9S10976   4.542   2.527   9.916 -0.5005 -1.8322  5.1252
  107OSM    H9T10977   4.584   2.364   9.900  2.3522 -1.0929 -0.6423
  107OSM   C10S10978   4.683   2.496   9.746  1.2571  0.0325  1.0026
  107OSM   H10S10979   4.773   2.439   9.715  3.6937  4.2507 -0.5877
  107OSM   H10T10980   4.705   2.605   9.742 -0.4731  0.3771 -0.6781
  107OSM   C11S10981   4.579   2.478   9.631 -0.1548  0.1766  0.1670
  107OSM   H11S10982   4.488   2.541   9.636 -1.3929 -1.2057 -2.6025
  107OSM   H11T10983   4.540   2.374   9.628  2.1462 -0.7463  0.0198
  107OSM   C12S10984   4.644   2.503   9.490  0.1693  0.2136 -0.2603
  107OSM   H12S10985   4.732   2.435   9.490 -0.1510 -0.3156  2.4967
  107OSM   H12T10986   4.677   2.609   9.480 -0.8410  0.4636 -1.2166
  107OSM   C13S10987   4.547   2.465   9.377  0.0533 -0.0131  0.2942
  107OSM   H13S10988   4.462   2.536   9.367  0.5232  0.6217  0.7212
  107OSM   H13T10989   4.514   2.361   9.396  1.2763 -0.2804  1.0791
  107OSM   C14S10990   4.602   2.470   9.234 -0.5195  0.2839  0.2203
  107OSM   H14S10991   4.685   2.397   9.224 -0.1878  0.5303  1.1661
  107OSM   H14T10992   4.644   2.569   9.206 -0.9921  0.0078 -1.6491
  107OSM   C15S10993   4.497   2.427   9.124  0.2231  0.0021  0.7093
  107OSM   H15S10994   4.411   2.497   9.141  1.3999  2.0733 -1.2749
  107OSM   H15T10995   4.463   2.324   9.144 -0.4943 -0.1427 -1.0667
  107OSM   C16S10996   4.557   2.451   8.983 -0.6936 -0.2993  0.3111
  107OSM   H16S10997   4.662   2.417   8.978 -0.2976  0.5768  1.9491
  107OSM   H16T10998   4.552   2.557   8.949  1.0345 -0.3060 -0.0301
  107OSM   C17S10999   4.470   2.372   8.883  0.3349  0.2647  0.2034
  107OSM   H17S11000   4.367   2.398   8.914  0.3653 -1.1132  1.6010
  107OSM   H17T11001   4.491   2.263   8.890  1.1244  0.5192  2.5958
  107OSM   C18S11002   4.495   2.408   8.739  0.1604  0.2535  0.5821
  107OSM   H18S11003   4.420   2.371   8.667  0.8488  0.7349 -0.4077
  107OSM   H18T11004   4.599   2.401   8.699 -0.6276  0.2619 -1.5883
  107OSM   H18U11005   4.472   2.517   8.737 -0.7269  0.0970  1.4346
  107OSM    C1F11006   4.727   2.137  10.383 -0.3688  0.4293  0.7817
  107OSM     OF11007   4.618   2.164  10.427 -0.3163  0.8025 -0.0864
  107OSM    C2F11008   4.744   2.002  10.312 -0.2336  0.1785  0.5048
  107OSM    H2F11009   4.755   1.918  10.384 -0.9423 -1.0490 -0.7715
  107OSM    H2G11010   4.847   2.017  10.271 -0.8978  0.8032 -1.0222
  107OSM    C3F11011   4.644   1.978  10.203  0.1906  1.0249  0.8181
  107OSM    H3F11012   4.586   2.069  10.175 -0.5198  0.4691  0.4591
  107OSM    H3G11013   4.562   1.919  10.249  0.2946 -0.1405 -0.4087
  107OSM    C4F11014   4.696   1.912  10.070 -0.5163 -0.6043  0.3528
  107OSM    H4F11015   4.609   1.880  10.010  1.2932 -1.9782 -1.6964
  107OSM    H4G11016   4.761   1.824  10.089  0.5796  0.4086  1.5673
  107OSM    C5F11017   4.790   2.008   9.983 -0.2957  0.0783 -0.5132
  107OSM    H5F11018   4.883   2.022  10.044 -2.0250  0.5694  2.1772
  107OSM    H5G11019   4.733   2.102   9.973  0.7062  0.5885 -1.6707
  107OSM    C6F11020   4.831   1.959   9.850 -0.2659  0.0531  0.3265
  107OSM    H6F11021   4.877   1.858   9.851 -1.7209 -0.6665 -0.8497
  107OSM    H6G11022   4.907   2.017   9.794 -0.5949  0.1841  0.0063
  107OSM    C7F11023   4.710   1.945   9.749 -0.1778 -1.0008  0.0364
  107OSM    H7F11024   4.656   2.041   9.753  2.2569  0.4479  0.0080
  107OSM    H7G11025   4.637   1.872   9.791 -1.1826 -0.8146 -1.3309
  107OSM    C8F11026   4.741   1.907   9.606 -0.6763  0.1842 -0.2680
  107OSM    H8F11027   4.777   1.803   9.612 -0.8314  0.0960 -0.8130
  107OSM    H8G11028   4.825   1.974   9.579 -2.1484  2.3024  0.1308
  107OSM    C9F11029   4.622   1.906   9.517 -0.2175 -0.1282 -0.1790
  107OSM    H9F11030   4.534   1.849   9.549 -2.4613  3.0822 -0.0853
  107OSM   C10F11031   4.612   1.978   9.409  0.0337 -0.2853  0.6862
  107OSM   H10F11032   4.528   1.952   9.343  0.9537  0.0533 -0.6646
  107OSM   C11F11033   4.714   2.072   9.345 -0.1747 -0.4069 -0.7093
  107OSM   H11F11034   4.815   2.035   9.374 -1.3622 -2.2868  1.2669
  107OSM   H11G11035   4.716   2.170   9.398 -0.0832 -1.0648  0.5503
  107OSM   C12F11036   4.697   2.086   9.193  0.0738  0.7143 -0.6552
  107OSM   H12F11037   4.767   2.167   9.167  1.8100 -0.0780  1.2585
  107OSM   H12G11038   4.595   2.124   9.168 -0.1868  1.0168  0.7563
  107OSM   C13F11039   4.723   1.951   9.114  0.0917  0.1558  1.0627
  107OSM   H13F11040   4.646   1.872   9.130 -0.4020  0.5875  0.8502
  107OSM   H13G11041   4.802   1.895   9.167  0.0901  0.5537  1.4972
  107OSM   C14F11042   4.768   1.968   8.967  0.6130 -0.3825 -0.1885
  107OSM   H14F11043   4.799   1.871   8.924 -1.7080 -1.4546  0.4465
  107OSM   H14G11044   4.858   2.034   8.971 -0.9800  1.8823  0.2566
  107OSM   C15F11045   4.647   2.029   8.889  0.3978 -0.2198  0.0572
  107OSM   H15F11046   4.639   2.136   8.919  0.0699 -0.7550  2.0137
  107OSM   H15G11047   4.559   1.969   8.921  1.7295 -1.2663  1.9524
  107OSM   C16F11048   4.654   2.028   8.734  0.3496  0.5786 -0.3203
  107OSM   H16F11049   4.740   2.086   8.693 -0.4292  1.5802 -0.5981
  107OSM   H16G11050   4.561   2.086   8.714 -1.8420 -2.8327 -0.8718
  107OSM   C17F11051   4.645   1.889   8.669  0.1984 -0.1603  0.1086
  107OSM   H17F11052   4.566   1.824   8.713 -1.3531  1.3052 -0.4258
  107OSM   H17G11053   4.742   1.835   8.677  0.7672  0.5417 -1.5644
  107OSM   C18F11054   4.623   1.891   8.521  0.7630  0.0313  0.5493
  107OSM   H18F11055   4.703   1.950   8.471  1.6782 -0.9819  0.7978
  107OSM   H18G11056   4.522   1.931   8.497  1.8575  1.9307 -1.3132
  107OSM   H18H11057   4.630   1.786   8.485 -0.1125 -0.4566  1.7374
  108OSM      N11058   3.476   6.408  11.013 -0.1064 -0.2918 -0.5140
  108OSM    C1511059   3.560   6.285  11.007  0.6509 -0.0679  0.0957
  108OSM   H15A11060   3.502   6.199  10.975  0.4048  0.4541 -0.8904
  108OSM   H15B11061   3.602   6.259  11.103  1.1117 -0.6233 -0.2526
  108OSM   H15C11062   3.656   6.304  10.962  1.1612  1.1642  1.6218
  108OSM    C1411063   3.359   6.375  11.101 -0.8856  0.4880  0.1287
  108OSM   H14A11064   3.322   6.274  11.092  0.1169  0.0937  0.3658
  108OSM   H14B11065   3.282   6.449  11.080 -0.0373  0.7167 -2.6113
  108OSM   H14C11066   3.393   6.382  11.203  0.2771 -3.1288  0.1231
  108OSM    C1311067   3.554   6.512  11.078 -0.0640  0.3130 -0.5498
  108OSM   H13A11068   3.560   6.481  11.182  0.7815 -0.5725 -0.8468
  108OSM   H13B11069   3.500   6.604  11.066 -0.0768  0.4918  0.6918
  108OSM   H13C11070   3.652   6.515  11.034  0.7844 -1.2864  1.0800
  108OSM    C1211071   3.438   6.456  10.878  1.1489 -0.6479 -0.2310
  108OSM   H12A11072   3.372   6.388  10.828  0.3758 -0.0010 -0.1159
  108OSM   H12B11073   3.527   6.456  10.817  1.6104 -0.5070  0.4212
  108OSM    C1111074   3.364   6.593  10.867  1.1583 -0.3803 -0.6540
  108OSM   H11A11075   3.349   6.604  10.758  0.4405 -0.2810 -0.5544
  108OSM   H11B11076   3.432   6.677  10.892  0.2476  0.0616  0.4744
  108OSM      P11077   3.111   6.537  10.884  0.3346  0.0210  0.2692
  108OSM    O1311078   3.051   6.460  10.995  0.3339  0.7044  0.5870
  108OSM    O1411079   3.032   6.651  10.829 -0.0173  0.3970 -0.4132
  108OSM    O1111080   3.173   6.447  10.763 -0.2190  0.0640 -0.6181
  108OSM    O1211081   3.241   6.605  10.947 -0.1332 -0.1291  0.1201
  108OSM    C1S11082   3.111   6.322  10.721 -0.1298  0.2507 -0.6453
  108OSM    H1S11083   3.001   6.320  10.739 -0.7004  1.6545 -3.5402
  108OSM    H1T11084   3.154   6.235  10.775  2.1132  1.3662 -0.5035
  108OSM     NF11085   3.069   6.174  10.525  0.2197  0.0978 -0.3129
  108OSM    HNF11086   3.131   6.096  10.516 -0.1055 -0.1308 -0.6088
  108OSM    C2S11087   3.137   6.292  10.567 -0.0508 -0.0142 -0.2315
  108OSM    H2S11088   3.107   6.376  10.501  3.4907  0.7327 -1.1068
  108OSM    C3S11089   3.290   6.300  10.545 -1.0999  0.2190 -0.6486
  108OSM    H3S11090   3.353   6.245  10.618 -0.8376 -0.5728 -1.4538
  108OSM     O311091   3.342   6.425  10.565 -0.9316 -0.2763 -0.5258
  108OSM    HO311092   3.288   6.459  10.636 -2.0912  1.5379 -2.1673
  108OSM    C4S11093   3.319   6.242  10.405  0.0701 -0.2001  0.4752
  108OSM    H4S11094   3.344   6.135  10.408 -1.5539 -0.5939  1.0342
  108OSM    C5S11095   3.324   6.304  10.279  0.0737  0.0837 -0.2099
  108OSM    H5S11096   3.324   6.413  10.272 -0.3112  0.2523  1.8123
  108OSM    C6S11097   3.357   6.224  10.156  0.0112  0.3684 -0.1137
  108OSM    H6S11098   3.325   6.271  10.061 -1.8659  1.6858  1.0946
  108OSM    H6T11099   3.316   6.121  10.164  1.4661 -0.2601 -0.3884
  108OSM    C7S11100   3.514   6.205  10.143  0.3447 -0.3484  0.1752
  108OSM    H7S11101   3.555   6.165  10.239 -1.1092 -0.6819  0.6904
  108OSM    H7T11102   3.566   6.301  10.123  1.3426 -0.3420  2.5024
  108OSM    C8S11103   3.544   6.113  10.023 -0.3244  0.1857  0.5517
  108OSM    H8S11104   3.488   6.018  10.034  1.4321 -1.0354 -0.5048
  108OSM    H8T11105   3.654   6.092  10.026 -0.4527 -0.4310  2.3290
  108OSM    C9S11106   3.499   6.173   9.885 -0.0739  0.4858 -0.1733
  108OSM    H9S11107   3.547   6.273   9.877  2.2311 -0.5227  0.1158
  108OSM    H9T11108   3.390   6.189   9.891 -0.4553 -1.2684 -1.6841
  108OSM   C10S11109   3.543   6.080   9.772 -0.1654  0.3910 -0.1971
  108OSM   H10S11110   3.470   5.997   9.768  0.9975 -0.9163  2.9130
  108OSM   H10T11111   3.644   6.035   9.781 -0.4637 -0.0064  1.4314
  108OSM   C11S11112   3.543   6.138   9.632  0.7297  0.6280 -0.1488
  108OSM   H11S11113   3.650   6.159   9.612  1.1568 -0.1896  1.1423
  108OSM   H11T11114   3.502   6.241   9.634  0.4906  0.5253  0.5859
  108OSM   C12S11115   3.484   6.036   9.526  0.3719  0.2416 -0.4029
  108OSM   H12S11116   3.388   6.007   9.572  1.0864 -1.1259  0.2564
  108OSM   H12T11117   3.560   5.956   9.519  2.0230  1.8221 -1.6773
  108OSM   C13S11118   3.457   6.081   9.384  0.7138  0.0442 -0.0171
  108OSM   H13S11119   3.402   6.178   9.379 -3.9926 -2.2899  0.9169
  108OSM   H13T11120   3.388   5.999   9.355 -0.8514  0.5930  1.9133
  108OSM   C14S11121   3.594   6.088   9.308 -0.1275 -0.5508 -0.3033
  108OSM   H14S11122   3.642   5.989   9.322  0.0835 -0.6158 -1.3936
  108OSM   H14T11123   3.663   6.166   9.348 -2.4356  1.3772  0.1668
  108OSM   C15S11124   3.575   6.103   9.154 -0.7302 -0.3845  0.2693
  108OSM   H15S11125   3.505   6.022   9.126 -1.0830 -0.5100  1.4566
  108OSM   H15T11126   3.672   6.092   9.101 -0.9364 -3.9543  0.3520
  108OSM   C16S11127   3.508   6.228   9.115 -0.0280  0.3583  0.8144
  108OSM   H16S11128   3.547   6.322   9.159  0.7736 -0.0768  1.0442
  108OSM   H16T11129   3.402   6.211   9.144 -0.6053  0.9781 -0.8197
  108OSM   C17S11130   3.510   6.241   8.961  0.5440  0.0741 -0.1151
  108OSM   H17S11131   3.611   6.270   8.925  0.7287  0.0902  0.4031
  108OSM   H17T11132   3.446   6.326   8.929  0.1698 -0.4488 -0.7706
  108OSM   C18S11133   3.473   6.114   8.871 -0.2590  0.3750  0.0117
  108OSM   H18S11134   3.560   6.053   8.837 -1.5974 -0.3957 -2.2338
  108OSM   H18T11135   3.424   6.141   8.776 -2.3757 -1.1716  0.6004
  108OSM   H18U11136   3.405   6.049   8.930 -0.1132  1.6887  1.7085
  108OSM    C1F11137   2.938   6.144  10.535 -0.0310 -0.0375 -0.7516
  108OSM     OF11138   2.848   6.226  10.563 -0.0565  0.5769  0.2597
  108OSM    C2F11139   2.907   5.994  10.515 -0.2679 -0.1483 -0.1659
  108OSM    H2F11140   2.836   5.963  10.594  0.5597 -1.0682  0.2358
  108OSM    H2G11141   3.002   5.936  10.516  0.4969  1.0523 -0.3567
  108OSM    C3F11142   2.830   5.980  10.385 -0.2951 -0.8910  0.2676
  108OSM    H3F11143   2.737   6.039  10.371  0.3338 -0.2441 -1.6160
  108OSM    H3G11144   2.794   5.875  10.395  0.7419 -1.2877  0.0099
  108OSM    C4F11145   2.915   5.985  10.255 -0.3951 -0.6290  0.3965
  108OSM    H4F11146   2.857   5.925  10.181  0.8993 -0.0095 -1.2001
  108OSM    H4G11147   3.010   5.936  10.283  0.3297  0.9639  0.8208
  108OSM    C5F11148   2.946   6.118  10.191  0.6965  0.1670  0.1289
  108OSM    H5F11149   3.007   6.182  10.258  1.2881  0.2648 -0.4904
  108OSM    H5G11150   2.850   6.173  10.182  1.4403  1.6430  0.8231
  108OSM    C6F11151   3.002   6.110  10.052 -0.2981  0.1870 -0.0675
  108OSM    H6F11152   2.937   6.041   9.993 -1.0546  1.4606 -0.7644
  108OSM    H6G11153   3.101   6.059  10.056  0.2031  1.2111  1.9274
  108OSM    C7F11154   3.008   6.240   9.979 -0.2525 -0.0765  0.1323
  108OSM    H7F11155   3.079   6.317  10.017  0.7158  0.9518 -3.3293
  108OSM    H7G11156   2.906   6.285   9.986  0.9480  2.7827  0.7170
  108OSM    C8F11157   3.043   6.227   9.827 -1.3210 -0.6712  0.4253
  108OSM    H8F11158   3.139   6.172   9.819 -1.0753 -0.3707  1.2701
  108OSM    H8G11159   3.062   6.324   9.775 -1.0191 -1.1048 -0.2878
  108OSM    C9F11160   2.953   6.146   9.742  0.0895 -0.2808  1.0576
  108OSM    H9F11161   2.914   6.060   9.800  0.1825 -0.4711  0.8376
  108OSM   C10F11162   2.900   6.170   9.615  0.5241  0.7000 -1.1477
  108OSM   H10F11163   2.825   6.099   9.577 -1.7169  0.0831  3.6648
  108OSM   C11F11164   2.942   6.276   9.523  0.0923  0.5995 -0.9610
  108OSM   H11F11165   3.012   6.350   9.566 -1.4532  1.2383  0.6038
  108OSM   H11G11166   2.856   6.341   9.498 -2.1553 -0.9358  2.0309
  108OSM   C12F11167   3.003   6.219   9.392  0.1366 -0.3702 -0.3144
  108OSM   H12F11168   2.942   6.140   9.344  0.1514 -0.1471 -0.6997
  108OSM   H12G11169   3.105   6.182   9.416  0.4111 -0.2066 -1.2078
  108OSM   C13F11170   3.024   6.338   9.297  0.1772 -0.2784 -0.5290
  108OSM   H13F11171   3.070   6.424   9.349 -0.1416 -0.0341 -0.6542
  108OSM   H13G11172   2.932   6.376   9.248  0.3742  1.3343  0.2880
  108OSM   C14F11173   3.132   6.305   9.189  0.5304  0.5084  0.0876
  108OSM   H14F11174   3.217   6.265   9.249 -1.0460 -1.4289  1.1730
  108OSM   H14G11175   3.164   6.397   9.137 -1.6185  1.0128 -0.4349
  108OSM   C15F11176   3.085   6.190   9.103 -0.4505  0.0280 -0.1058
  108OSM   H15F11177   3.057   6.095   9.154  0.1550 -0.9000 -1.4344
  108OSM   H15G11178   3.179   6.154   9.056  0.3863  2.7610 -0.7368
  108OSM   C16F11179   2.977   6.226   9.003  1.0036  0.5557  0.1067
  108OSM   H16F11180   2.987   6.327   8.960 -1.2398  0.8637  0.1894
  108OSM   H16G11181   2.875   6.214   9.047 -1.2903  1.8994 -4.3207
  108OSM   C17F11182   2.959   6.128   8.891  0.0297 -0.0326  0.4872
  108OSM   H17F11183   2.950   6.023   8.929  1.4281  0.1070  1.3055
  108OSM   H17G11184   3.046   6.132   8.821  0.3063  0.1809  0.8398
  108OSM   C18F11185   2.832   6.155   8.808  0.4362  0.3926  0.1653
  108OSM   H18F11186   2.815   6.263   8.789 -1.9180  0.3986  1.8313
  108OSM   H18G11187   2.740   6.119   8.860  0.0486 -3.1972 -2.6210
  108OSM   H18H11188   2.826   6.096   8.714  1.6892 -0.3944  0.5545
  109OSM      N11189   2.603   0.676  10.697  0.1113 -0.4520  0.2029
  109OSM    C1511190   2.491   0.591  10.649  0.0529  0.1197  0.3471
  109OSM   H15A11191   2.525   0.515  10.579 -0.2447 -1.5427  1.9273
  109OSM   H15B11192   2.421   0.648  10.591  0.0551 -1.6272 -1.4941
  109OSM   H15C11193   2.439   0.539  10.729 -0.9638 -0.6080 -0.7521
  109OSM    C1411194   2.694   0.695  10.586 -0.0447  0.1923  1.2607
  109OSM   H14A11195   2.788   0.733  10.624  0.7570  0.6138 -1.0170
  109OSM   H14B11196   2.662   0.758  10.505 -0.7543 -0.6432  0.8915
  109OSM   H14C11197   2.720   0.597  10.548 -0.5338 -0.7556  3.2246
  109OSM    C1311198   2.529   0.806  10.740  0.2323 -0.7379 -0.2758
  109OSM   H13A11199   2.605   0.879  10.765 -0.2766 -0.8107  1.5940
  109OSM   H13B11200   2.472   0.792  10.830 -1.1776  0.2690 -0.9719
  109OSM   H13C11201   2.456   0.841  10.668  0.9745  1.2653 -0.0966
  109OSM    C1211202   2.685   0.609  10.814 -0.6863 -0.9489  0.1633
  109OSM   H12A11203   2.754   0.539  10.770  2.0766  2.4070 -1.2233
  109OSM   H12B11204   2.620   0.565  10.888 -1.0385  0.5088  0.7561
  109OSM    C1111205   2.788   0.703  10.889  0.0770 -0.0755  0.8175
  109OSM   H11A11206   2.841   0.643  10.966  0.6556  0.1955  0.6328
  109OSM   H11B11207   2.733   0.782  10.945 -0.6168 -0.5390  0.8097
  109OSM      P11208   3.034   0.714  10.771 -0.4317  0.0223 -0.4306
  109OSM    O1311209   3.115   0.834  10.809  0.1684 -0.1276  0.5334
  109OSM    O1411210   3.059   0.595  10.854 -0.0287  0.5685  0.0907
  109OSM    O1111211   3.061   0.683  10.619 -0.0939  0.4566 -0.1218
  109OSM    O1211212   2.882   0.758  10.787  0.2786  0.2703 -0.5413
  109OSM    C1S11213   3.057   0.794  10.528 -0.5433  0.0697 -0.5520
  109OSM    H1S11214   3.118   0.882  10.557  1.6384 -1.4392 -0.3750
  109OSM    H1T11215   2.951   0.829  10.519 -1.4707 -2.0051  1.2896
  109OSM     NF11216   3.106   0.878  10.304 -0.4797 -0.0462  0.2272
  109OSM    HNF11217   3.040   0.889  10.230  0.6540  1.7655 -0.6003
  109OSM    C2S11218   3.098   0.755  10.385 -0.2484  0.0688  0.5166
  109OSM    H2S11219   3.203   0.718  10.392  0.2973  1.3084 -0.6709
  109OSM    C3S11220   3.013   0.631  10.323 -0.1860  0.5668  0.1399
  109OSM    H3S11221   2.913   0.664  10.287  0.1564 -0.5587 -2.0607
  109OSM     O311222   2.991   0.524  10.419 -0.1659 -0.0993 -0.4054
  109OSM    HO311223   3.022   0.563  10.502  0.2513  0.8216 -0.9803
  109OSM    C4S11224   3.077   0.597  10.189 -0.5380  0.7365  0.1766
  109OSM    H4S11225   3.020   0.649  10.111 -0.3224  0.5734 -0.0919
  109OSM    C5S11226   3.185   0.513  10.158 -0.1279 -0.2192 -0.7671
  109OSM    H5S11227   3.243   0.481  10.246 -2.3091  2.4377  1.8659
  109OSM    C6S11228   3.239   0.484  10.016 -0.1929 -0.1029  0.6297
  109OSM    H6S11229   3.251   0.374  10.008  1.2468 -0.1868  2.8600
  109OSM    H6T11230   3.342   0.522   9.995 -1.2707  2.3853 -0.5085
  109OSM    C7S11231   3.146   0.532   9.905  0.1030  0.5792 -0.6623
  109OSM    H7S11232   3.145   0.643   9.905 -0.5012  0.6271  1.9277
  109OSM    H7T11233   3.039   0.504   9.918  0.5105 -1.4972 -1.4089
  109OSM    C8S11234   3.192   0.472   9.770  0.4963 -0.1424  0.3699
  109OSM    H8S11235   3.179   0.364   9.749  0.5502 -0.1888  0.5757
  109OSM    H8T11236   3.302   0.487   9.761  0.4261  0.3282  0.2795
  109OSM    C9S11237   3.123   0.544   9.656  0.1517 -0.5242 -0.2654
  109OSM    H9S11238   3.124   0.651   9.686 -2.7210 -0.7221  0.8981
  109OSM    H9T11239   3.017   0.510   9.658  0.1380 -0.4772  1.4952
  109OSM   C10S11240   3.184   0.508   9.523  0.2785  0.2949  0.5196
  109OSM   H10S11241   3.202   0.399   9.534 -0.0543  0.3233  1.4593
  109OSM   H10T11242   3.284   0.557   9.520  1.9833 -2.8402  1.9021
  109OSM   C11S11243   3.109   0.535   9.395  0.2998 -0.1718  0.0147
  109OSM   H11S11244   3.111   0.640   9.360  1.6298 -1.0986 -3.0293
  109OSM   H11T11245   3.000   0.517   9.406 -0.4970  3.2569 -1.0617
  109OSM   C12S11246   3.154   0.452   9.279  0.1595  0.7894  0.6838
  109OSM   H12S11247   3.178   0.348   9.309  0.1514  0.6145  0.0997
  109OSM   H12T11248   3.240   0.502   9.230  0.9052  0.5835  1.7503
  109OSM   C13S11249   3.040   0.446   9.174 -0.1991 -0.6357  0.0777
  109OSM   H13S11250   3.001   0.549   9.167  1.5434 -0.0250 -1.7456
  109OSM   H13T11251   2.959   0.377   9.205 -0.1960 -1.7718 -2.2041
  109OSM   C14S11252   3.077   0.406   9.037  0.3909  0.2364  0.3691
  109OSM   H14S11253   3.161   0.467   9.000 -0.1757 -0.3146 -2.0103
  109OSM   H14T11254   2.991   0.434   8.972 -0.4914  0.7061  1.6858
  109OSM   C15S11255   3.109   0.259   9.021 -0.0441 -0.1708  0.3974
  109OSM   H15S11256   3.039   0.207   9.089 -2.2216  1.5447 -0.4227
  109OSM   H15T11257   3.210   0.250   9.066 -1.1742  0.8547  3.3659
  109OSM   C16S11258   3.086   0.215   8.877 -0.2314 -0.0444  0.6563
  109OSM   H16S11259   3.012   0.285   8.831 -0.8726 -0.3522  1.2021
  109OSM   H16T11260   3.028   0.120   8.873 -1.1512  0.5436 -1.0986
  109OSM   C17S11261   3.224   0.209   8.794 -0.2715  0.2167  0.2881
  109OSM   H17S11262   3.295   0.145   8.851 -1.9566 -1.1684  0.8904
  109OSM   H17T11263   3.273   0.308   8.779  1.0955 -0.6229 -0.9875
  109OSM   C18S11264   3.213   0.150   8.651  0.1785  0.1921 -0.0703
  109OSM   H18S11265   3.170   0.048   8.660 -1.3163  0.6570 -1.5322
  109OSM   H18T11266   3.310   0.139   8.598 -0.0030 -1.5788 -0.0784
  109OSM   H18U11267   3.146   0.205   8.581 -2.1223 -1.8071  0.4283
  109OSM    C1F11268   3.187   0.977  10.334  0.0794  0.8084 -0.4194
  109OSM     OF11269   3.285   0.955  10.398  0.1933 -0.1091  0.6124
  109OSM    C2F11270   3.150   1.114  10.297  0.1974  0.5044 -0.6605
  109OSM    H2F11271   3.065   1.148  10.360  1.6096  0.5797  1.3254
  109OSM    H2G11272   3.118   1.104  10.191  1.5125 -1.2300 -0.9417
  109OSM    C3F11273   3.272   1.218  10.299  0.3540  0.2289  0.7560
  109OSM    H3F11274   3.318   1.231  10.399 -1.9377  0.3584  1.8489
  109OSM    H3G11275   3.245   1.322  10.272  2.2748  0.1749 -1.8766
  109OSM    C4F11276   3.378   1.192  10.188  0.3196  0.4287 -0.1790
  109OSM    H4F11277   3.335   1.197  10.086 -0.8546  2.5364  0.3518
  109OSM    H4G11278   3.424   1.093  10.210  0.9043  0.5669 -0.7684
  109OSM    C5F11279   3.486   1.300  10.189 -0.5277 -0.1268 -0.0677
  109OSM    H5F11280   3.559   1.275  10.269 -1.3932 -0.5104  0.6102
  109OSM    H5G11281   3.453   1.397  10.232 -1.0569 -1.7633  3.5615
  109OSM    C6F11282   3.563   1.311  10.055 -0.3211  0.1096  0.1081
  109OSM    H6F11283   3.614   1.215  10.030 -0.1924  0.0330  0.6476
  109OSM    H6G11284   3.653   1.374  10.069 -1.9197  2.7013 -0.6572
  109OSM    C7F11285   3.486   1.366   9.936  0.1272 -0.7202  0.1881
  109OSM    H7F11286   3.444   1.468   9.946  0.2035 -0.3435 -2.4812
  109OSM    H7G11287   3.413   1.293   9.896 -0.6634 -0.1753  0.6255
  109OSM    C8F11288   3.578   1.381   9.814 -0.2444 -0.8800  0.9543
  109OSM    H8F11289   3.616   1.285   9.773  0.9908  0.3267 -0.9028
  109OSM    H8G11290   3.674   1.427   9.847 -1.0695 -0.6018  3.0969
  109OSM    C9F11291   3.512   1.464   9.699  0.4397 -0.6112 -1.7722
  109OSM    H9F11292   3.498   1.568   9.732 -0.1954 -1.0218 -0.6964
  109OSM   C10F11293   3.473   1.418   9.581  0.0711  0.6476  0.0588
  109OSM   H10F11294   3.436   1.492   9.508 -2.1898 -0.5557 -0.0900
  109OSM   C11F11295   3.482   1.269   9.537  0.2705  0.4909 -0.3677
  109OSM   H11F11296   3.383   1.220   9.536  0.3197  0.3889 -0.2344
  109OSM   H11G11297   3.552   1.211   9.601 -0.4831 -0.2988 -0.2532
  109OSM   C12F11298   3.542   1.258   9.393  0.5538 -0.0544 -0.5247
  109OSM   H12F11299   3.544   1.150   9.368 -1.0072 -0.2456  0.0641
  109OSM   H12G11300   3.642   1.308   9.392  0.9757 -0.8843 -0.5351
  109OSM   C13F11301   3.462   1.337   9.285 -0.1280  0.3414  0.0858
  109OSM   H13F11302   3.484   1.441   9.317  0.6086 -0.3270  1.8708
  109OSM   H13G11303   3.351   1.332   9.282 -0.1735  0.1666  1.4656
  109OSM   C14F11304   3.522   1.303   9.147  0.4885 -0.5775 -0.3100
  109OSM   H14F11305   3.509   1.193   9.134  0.2522 -0.4070 -1.6605
  109OSM   H14G11306   3.627   1.339   9.152  0.2064  0.1319  0.8314
  109OSM   C15F11307   3.449   1.381   9.037 -0.2188  0.4835 -0.3487
  109OSM   H15F11308   3.474   1.488   9.052 -1.0926  0.9078 -1.7766
  109OSM   H15G11309   3.341   1.359   9.049  0.0531 -0.9211 -0.2214
  109OSM   C16F11310   3.503   1.334   8.896  0.9315 -0.2219 -0.0040
  109OSM   H16F11311   3.611   1.360   8.899  0.1459  3.4989  1.0310
  109OSM   H16G11312   3.450   1.402   8.827  0.9890  0.6706  0.8171
  109OSM   C17F11313   3.471   1.185   8.846 -0.2330 -0.0297  0.3219
  109OSM   H17F11314   3.531   1.115   8.908 -1.1282 -0.5734  0.6099
  109OSM   H17G11315   3.508   1.179   8.742 -0.5900  2.8357 -0.0381
  109OSM   C18F11316   3.326   1.138   8.839 -0.6173  0.2007  0.0128
  109OSM   H18F11317   3.298   1.114   8.944 -0.2463 -1.8989 -0.3162
  109OSM   H18G11318   3.311   1.045   8.781 -0.1540 -0.9894  1.7090
  109OSM   H18H11319   3.255   1.215   8.801 -1.6174 -0.6400  0.1248
  110OSM      N11320   5.228   6.355  11.064  0.1475  0.3877  0.5720
  110OSM    C1511321   5.141   6.455  10.995 -0.8336  0.5726 -0.1365
  110OSM   H15A11322   5.214   6.522  10.953  2.1766 -2.7620 -0.6823
  110OSM   H15B11323   5.069   6.484  11.070 -1.8188 -2.6091  0.2969
  110OSM   H15C11324   5.087   6.407  10.914  1.8264 -0.3462 -1.5036
  110OSM    C1411325   5.294   6.279  10.952 -0.1047 -0.0006  0.7568
  110OSM   H14A11326   5.381   6.220  10.976 -0.1768 -0.1820  0.5768
  110OSM   H14B11327   5.338   6.351  10.886 -1.3381 -0.3820 -0.5421
  110OSM   H14C11328   5.222   6.226  10.892 -0.5246 -1.5239  2.4914
  110OSM    C1311329   5.322   6.416  11.150  0.4573  0.7052 -0.1901
  110OSM   H13A11330   5.383   6.343  11.201  0.4303  0.5817 -0.3359
  110OSM   H13B11331   5.281   6.485  11.224  2.6428 -0.0544  1.8532
  110OSM   H13C11332   5.395   6.473  11.095  0.8836  0.9156  0.5737
  110OSM    C1211333   5.144   6.253  11.132  0.2550  0.1226  0.6099
  110OSM   H12A11334   5.108   6.310  11.216 -0.0492  0.7348  0.0662
  110OSM   H12B11335   5.216   6.182  11.171  0.6480  1.0590  1.6249
  110OSM    C1111336   5.026   6.192  11.061  0.3795 -0.3936 -0.7112
  110OSM   H11A11337   4.954   6.277  11.062  0.4389 -0.3243  0.7831
  110OSM   H11B11338   4.965   6.122  11.123  0.5161 -1.7826 -2.0911
  110OSM      P11339   5.064   5.992  10.896  0.2988  0.0652  0.0980
  110OSM    O1311340   5.168   5.925  10.980 -0.3817 -0.2253  0.7338
  110OSM    O1411341   4.931   5.930  10.905 -0.4432 -0.2878  0.2430
  110OSM    O1111342   5.130   5.991  10.750  0.5694  0.5414 -0.2144
  110OSM    O1211343   5.042   6.147  10.927  0.3853  0.2346  0.1366
  110OSM    C1S11344   5.082   6.090  10.656 -0.5589  0.2111 -0.0064
  110OSM    H1S11345   5.073   6.191  10.700  1.2985 -0.4952  2.1783
  110OSM    H1T11346   4.983   6.060  10.616 -0.7663  2.2497 -1.1615
  110OSM     NF11347   5.092   6.195  10.448 -0.6536  0.2039 -0.5642
  110OSM    HNF11348   5.033   6.145  10.386  0.1295  1.1081 -2.0854
  110OSM    C2S11349   5.177   6.110  10.533  0.5682  0.3080  1.0821
  110OSM    H2S11350   5.269   6.159  10.572  0.1330  2.3727 -0.3146
  110OSM    C3S11351   5.218   5.974  10.460 -0.5309  0.1226 -0.0709
  110OSM    H3S11352   5.144   5.894  10.482 -1.2864  0.4370 -1.3615
  110OSM     O311353   5.331   5.909  10.525  0.5667  0.1395 -0.1934
  110OSM    HO311354   5.358   5.978  10.586 -0.5677  1.6625 -1.3363
  110OSM    C4S11355   5.259   5.989  10.317  0.0246  0.3049 -0.1319
  110OSM    H4S11356   5.364   6.019  10.306  0.4043  0.2971  2.6896
  110OSM    C5S11357   5.213   5.922  10.216  1.4193 -0.5322 -0.4910
  110OSM    H5S11358   5.127   5.862  10.248  1.7659 -0.7405  0.0693
  110OSM    C6S11359   5.259   5.916  10.074 -0.1821  0.5498  0.7695
  110OSM    H6S11360   5.170   5.923  10.008  0.0247  0.8005  0.5152
  110OSM    H6T11361   5.305   5.820  10.043 -2.3846 -0.2528 -0.1785
  110OSM    C7S11362   5.358   6.031  10.032 -0.1176  0.3241 -0.4734
  110OSM    H7S11363   5.454   6.021  10.088  0.2241 -1.2737 -1.2705
  110OSM    H7T11364   5.316   6.126  10.071  0.3479  0.2123  0.3253
  110OSM    C8S11365   5.381   6.045   9.879  0.0914  0.5658  0.1798
  110OSM    H8S11366   5.485   6.082   9.868  0.2476 -0.2108 -1.1075
  110OSM    H8T11367   5.308   6.118   9.839  0.6583  1.0890  0.0931
  110OSM    C9S11368   5.380   5.910   9.798 -0.0637 -0.5839 -0.0622
  110OSM    H9S11369   5.276   5.890   9.763 -1.9434  3.4450  2.3703
  110OSM    H9T11370   5.431   5.830   9.855 -0.6516 -2.4776 -2.0592
  110OSM   C10S11371   5.461   5.916   9.666  0.4887  0.7103  1.2049
  110OSM   H10S11372   5.569   5.939   9.677  0.6463  1.4028 -1.2428
  110OSM   H10T11373   5.437   6.013   9.618  2.3819 -0.6189 -2.8984
  110OSM   C11S11374   5.433   5.804   9.563  0.1519  0.6428  0.0777
  110OSM   H11S11375   5.335   5.812   9.511 -0.7242  1.9516  1.8265
  110OSM   H11T11376   5.430   5.705   9.614  2.0967 -0.8517 -2.4794
  110OSM   C12S11377   5.545   5.798   9.457  0.1059 -0.2805 -0.3498
  110OSM   H12S11378   5.521   5.712   9.392 -0.8541  0.0615 -0.4584
  110OSM   H12T11379   5.644   5.799   9.508 -0.9836  1.9726  1.9332
  110OSM   C13S11380   5.545   5.918   9.359  0.9402 -0.0502  0.0524
  110OSM   H13S11381   5.569   6.012   9.413  0.2999 -0.4791  1.1072
  110OSM   H13T11382   5.440   5.934   9.328  1.4301  0.5254 -1.3842
  110OSM   C14S11383   5.634   5.895   9.234 -0.3480 -0.7449 -0.4196
  110OSM   H14S11384   5.612   5.796   9.187  1.6515 -2.0481  1.2041
  110OSM   H14T11385   5.736   5.877   9.274 -0.7757 -2.0988  0.1072
  110OSM   C15S11386   5.638   6.010   9.130  0.0735 -0.1776  0.3260
  110OSM   H15S11387   5.655   6.100   9.193 -3.1023  0.8390 -0.0606
  110OSM   H15T11388   5.534   6.027   9.095 -0.9337  2.0267  3.8354
  110OSM   C16S11389   5.754   5.994   9.031  0.0809 -0.0964 -0.2359
  110OSM   H16S11390   5.741   5.903   8.969  1.2083  0.5615 -1.4759
  110OSM   H16T11391   5.849   5.990   9.088 -1.1984  0.2798  2.0490
  110OSM   C17S11392   5.771   6.108   8.934 -0.2126 -0.5790  0.9034
  110OSM   H17S11393   5.763   6.206   8.985 -0.2113 -0.6546  1.0509
  110OSM   H17T11394   5.688   6.106   8.860 -0.3252 -1.2517  1.0427
  110OSM   C18S11395   5.911   6.105   8.870  0.0255 -0.4594  0.5782
  110OSM   H18S11396   5.939   6.001   8.843 -0.5792 -0.5060  0.1245
  110OSM   H18T11397   5.975   6.149   8.949 -0.1847 -1.8890  1.5781
  110OSM   H18U11398   5.909   6.179   8.787  1.1732  1.4800  2.1772
  110OSM    C1F11399   5.086   6.328  10.461 -0.1401  0.3267 -0.3492
  110OSM     OF11400   5.169   6.384  10.537  0.2299 -0.2219  0.1169
  110OSM    C2F11401   4.979   6.410  10.378 -0.9435 -0.0954  0.0777
  110OSM    H2F11402   4.918   6.466  10.452  0.2705  2.2069 -0.5659
  110OSM    H2G11403   4.914   6.350  10.312 -1.1126  0.8154 -0.5968
  110OSM    C3F11404   5.051   6.524  10.294  0.0257  0.3457 -0.8200
  110OSM    H3F11405   5.120   6.592  10.348 -0.3518  0.4661 -0.4784
  110OSM    H3G11406   4.973   6.590  10.251  0.5629  0.9652 -0.8493
  110OSM    C4F11407   5.139   6.461  10.188 -0.0357 -0.7214  0.9021
  110OSM    H4F11408   5.088   6.385  10.126 -0.3693 -1.5611  2.1830
  110OSM    H4G11409   5.233   6.419  10.231  1.5515  0.7190 -0.9604
  110OSM    C5F11410   5.188   6.570  10.085  0.4311  0.2150  0.2175
  110OSM    H5F11411   5.238   6.658  10.131 -2.0380  0.8802  1.8070
  110OSM    H5G11412   5.094   6.602  10.036  0.3846  0.2961  0.3569
  110OSM    C6F11413   5.272   6.515   9.964 -0.6641  0.0209 -0.3008
  110OSM    H6F11414   5.360   6.463  10.006 -0.8929  0.1833  0.4016
  110OSM    H6G11415   5.319   6.606   9.920  0.2340 -0.0713  0.4298
  110OSM    C7F11416   5.194   6.441   9.863  0.4049  0.2765  0.2465
  110OSM    H7F11417   5.106   6.498   9.826  0.0069 -0.6927 -0.3308
  110OSM    H7G11418   5.155   6.346   9.905  2.2548 -1.1972 -1.1621
  110OSM    C8F11419   5.271   6.384   9.747  0.8559 -0.1142  0.7844
  110OSM    H8F11420   5.208   6.310   9.694 -0.0456 -0.5940  2.4572
  110OSM    H8G11421   5.352   6.321   9.789 -0.7274 -2.5761  0.3762
  110OSM    C9F11422   5.335   6.486   9.661  0.0396 -0.5726  0.0406
  110OSM    H9F11423   5.386   6.567   9.716  1.2027  1.3140 -3.4738
  110OSM   C10F11424   5.342   6.495   9.529  0.1424 -0.1561 -0.3181
  110OSM   H10F11425   5.389   6.581   9.478 -2.4202  0.7116 -1.3843
  110OSM   C11F11426   5.291   6.384   9.438 -0.1120 -0.6565 -0.3270
  110OSM   H11F11427   5.198   6.414   9.386 -0.5274 -1.1878  0.0906
  110OSM   H11G11428   5.269   6.292   9.497  2.0535 -1.6684 -1.0108
  110OSM   C12F11429   5.397   6.344   9.337 -1.2835 -0.1201 -0.0581
  110OSM   H12F11430   5.368   6.248   9.290 -0.2651 -1.0227  1.0863
  110OSM   H12G11431   5.489   6.319   9.395 -2.7391 -0.6476  2.1304
  110OSM   C13F11432   5.416   6.438   9.218 -0.5578 -0.4079 -0.0504
  110OSM   H13F11433   5.442   6.536   9.262 -2.0420  0.1653 -0.3977
  110OSM   H13G11434   5.323   6.461   9.162  0.8417  1.1640 -1.8541
  110OSM   C14F11435   5.501   6.378   9.102 -0.3464 -0.8705  0.0873
  110OSM   H14F11436   5.476   6.271   9.092 -2.0585 -0.4581 -0.3279
  110OSM   H14G11437   5.607   6.374   9.135 -0.1757 -1.0492 -0.4654
  110OSM   C15F11438   5.480   6.453   8.974  0.0306  0.0113  0.1769
  110OSM   H15F11439   5.502   6.561   8.992 -1.5056  0.3140  0.4519
  110OSM   H15G11440   5.374   6.436   8.943  1.3848 -3.3294 -3.3662
  110OSM   C16F11441   5.565   6.402   8.859  0.3545 -0.5563  0.2922
  110OSM   H16F11442   5.566   6.291   8.852 -1.7505 -0.5222 -1.8986
  110OSM   H16G11443   5.673   6.424   8.875 -0.3713  2.3423  1.8587
  110OSM   C17F11444   5.516   6.454   8.718 -0.5534  0.6444 -0.4475
  110OSM   H17F11445   5.406   6.443   8.715 -0.4951 -0.7630  1.0913
  110OSM   H17G11446   5.554   6.389   8.637  2.7679  1.7414  0.0850
  110OSM   C18F11447   5.558   6.598   8.690 -0.6088  0.2534 -0.3783
  110OSM   H18F11448   5.536   6.628   8.585 -1.5201 -0.6770 -0.4659
  110OSM   H18G11449   5.667   6.606   8.712 -0.3235  2.2183 -2.1688
  110OSM   H18H11450   5.507   6.665   8.762  0.3321 -0.9247  1.4429
  111OSM      N11451   4.389   4.343  10.986 -0.1670  0.3350 -0.2728
  111OSM    C1511452   4.357   4.456  11.078  0.6132  0.1451  1.0100
  111OSM   H15A11453   4.300   4.412  11.159  0.2036 -2.2030 -0.4612
  111OSM   H15B11454   4.303   4.528  11.019 -0.2538 -1.3421 -0.1013
  111OSM   H15C11455   4.445   4.499  11.123  1.5034  0.6745 -1.0960
  111OSM    C1411456   4.437   4.223  11.064 -0.0428  0.2028 -0.2902
  111OSM   H14A11457   4.527   4.255  11.115 -0.3079  1.5291 -0.6355
  111OSM   H14B11458   4.471   4.149  10.994  0.7835  0.4707 -0.1824
  111OSM   H14C11459   4.362   4.189  11.134  0.5701 -3.1050 -1.0566
  111OSM    C1311460   4.260   4.303  10.922 -1.1663 -0.5441  0.1311
  111OSM   H13A11461   4.192   4.256  10.992 -0.3522 -1.8385  0.1083
  111OSM   H13B11462   4.289   4.235  10.843 -2.2159  2.2792 -2.9085
  111OSM   H13C11463   4.209   4.385  10.875 -1.5744 -0.2602  1.0538
  111OSM    C1211464   4.492   4.394  10.888 -0.4133  0.3187  0.0844
  111OSM   H12A11465   4.587   4.400  10.938 -0.2789 -0.3215 -0.0780
  111OSM   H12B11466   4.464   4.492  10.852 -0.5223  0.0085 -0.6928
  111OSM    C1111467   4.522   4.294  10.770 -0.3173  0.7260 -0.2743
  111OSM   H11A11468   4.594   4.339  10.698  2.1963 -1.6806  0.5472
  111OSM   H11B11469   4.430   4.286  10.709  1.4406 -0.3187 -2.9794
  111OSM      P11470   4.707   4.130  10.855 -0.2195 -0.1382  0.1161
  111OSM    O1311471   4.747   4.227  10.956 -0.2673  0.1926 -0.2416
  111OSM    O1411472   4.732   3.989  10.896 -0.0303  0.3814 -0.2813
  111OSM    O1111473   4.773   4.171  10.720  0.0070 -0.5927  0.1738
  111OSM    O1211474   4.562   4.159  10.813 -0.0167 -0.4140  0.0884
  111OSM    C1S11475   4.739   4.111  10.596  0.2054  0.5189  0.0027
  111OSM    H1S11476   4.674   4.021  10.605  1.5789 -0.6026 -0.7082
  111OSM    H1T11477   4.831   4.075  10.544  0.8475  0.6432  1.0125
  111OSM     NF11478   4.658   4.127  10.361 -0.2123 -0.6107  0.0964
  111OSM    HNF11479   4.740   4.121  10.304 -1.0267 -2.8931 -0.9457
  111OSM    C2S11480   4.682   4.207  10.486  0.6684 -0.2563 -0.4227
  111OSM    H2S11481   4.582   4.234  10.526  0.0589 -1.7665 -0.8968
  111OSM    C3S11482   4.779   4.336  10.472 -0.2610  0.1778  0.2123
  111OSM    H3S11483   4.877   4.293  10.441 -0.1764  1.0333 -0.7945
  111OSM     O311484   4.804   4.404  10.601 -0.3637 -0.2424  0.2158
  111OSM    HO311485   4.780   4.331  10.658 -1.9434  0.2558  0.2401
  111OSM    C4S11486   4.736   4.436  10.365 -0.7452 -0.2812  0.1713
  111OSM    H4S11487   4.783   4.424  10.266 -0.2990 -0.7719  0.4411
  111OSM    C5S11488   4.644   4.537  10.377 -0.4981 -1.1466 -0.0762
  111OSM    H5S11489   4.606   4.556  10.479  0.5883  0.1073  0.1252
  111OSM    C6S11490   4.594   4.635  10.279  0.2138 -0.2437  0.2463
  111OSM    H6S11491   4.666   4.719  10.269 -0.0877 -0.2769 -3.9492
  111OSM    H6T11492   4.495   4.670  10.316 -0.2718 -0.7647 -0.5308
  111OSM    C7S11493   4.571   4.573  10.142  0.0374  0.3376  0.0354
  111OSM    H7S11494   4.532   4.470  10.155  1.4413 -0.3133 -0.6273
  111OSM    H7T11495   4.671   4.567  10.093 -0.5138  0.8286 -1.1975
  111OSM    C8S11496   4.490   4.647  10.035  0.6565 -0.4538 -0.2575
  111OSM    H8S11497   4.392   4.659  10.086  1.1890 -1.4246  1.0313
  111OSM    H8T11498   4.479   4.582   9.945 -0.7271 -1.0873  0.3260
  111OSM    C9S11499   4.546   4.784  10.007 -0.0143 -0.8015  0.2220
  111OSM    H9S11500   4.647   4.773   9.962  0.5748 -1.1104  1.5744
  111OSM    H9T11501   4.558   4.839  10.102  0.8754  1.0900 -0.9112
  111OSM   C10S11502   4.455   4.861   9.915 -0.0863 -0.3172  0.6461
  111OSM   H10S11503   4.454   4.968   9.945 -1.7776  0.0493 -0.5348
  111OSM   H10T11504   4.353   4.824   9.937  0.3761 -0.7966  2.0957
  111OSM   C11S11505   4.471   4.844   9.763  0.4648 -0.1385  1.1071
  111OSM   H11S11506   4.456   4.735   9.747  1.5887 -0.5351  2.4826
  111OSM   H11T11507   4.577   4.872   9.743  0.2831  0.7722  1.3490
  111OSM   C12S11508   4.360   4.921   9.680 -0.5447 -0.0334 -0.7354
  111OSM   H12S11509   4.372   5.030   9.695  1.3957 -0.1933 -0.8326
  111OSM   H12T11510   4.261   4.896   9.724  0.3833  0.8978  2.0967
  111OSM   C13S11511   4.357   4.892   9.530  0.0368  0.0753 -0.2164
  111OSM   H13S11512   4.285   4.964   9.485  1.8046  1.4424 -0.9708
  111OSM   H13T11513   4.314   4.790   9.515  0.7531  0.0128 -2.1424
  111OSM   C14S11514   4.497   4.871   9.464  0.4529  0.0058 -0.2362
  111OSM   H14S11515   4.559   4.788   9.504  0.7883 -0.2798 -1.3114
  111OSM   H14T11516   4.560   4.959   9.488 -0.7642  0.6271  0.8037
  111OSM   C15S11517   4.496   4.877   9.314 -0.1353 -0.6835  0.2711
  111OSM   H15S11518   4.454   4.975   9.283 -1.0043 -1.1238  0.0280
  111OSM   H15T11519   4.420   4.806   9.277  0.4957 -0.6272 -1.1902
  111OSM   C16S11520   4.631   4.853   9.242  0.3095 -0.2018  1.1570
  111OSM   H16S11521   4.666   4.748   9.256  1.0404 -0.2736 -0.9535
  111OSM   H16T11522   4.715   4.917   9.276 -0.5817  1.6641  0.0092
  111OSM   C17S11523   4.616   4.868   9.094  0.3208 -0.4254  0.8207
  111OSM   H17S11524   4.524   4.807   9.077  0.1566  0.2513 -0.9771
  111OSM   H17T11525   4.694   4.823   9.029 -0.6485  2.2484 -2.4893
  111OSM   C18S11526   4.600   5.010   9.039  0.3562 -1.2810  0.0518
  111OSM   H18S11527   4.546   5.087   9.098  0.7950  1.1301 -2.4796
  111OSM   H18T11528   4.569   5.023   8.933 -2.7916  0.5780  1.0756
  111OSM   H18U11529   4.699   5.061   9.031  0.1207 -0.9953 -1.3223
  111OSM    C1F11530   4.558   4.037  10.346 -1.0539  0.2210  0.8504
  111OSM     OF11531   4.490   4.006  10.438 -0.0774 -0.5621  0.1172
  111OSM    C2F11532   4.540   3.976  10.210  0.1137  0.4852 -0.1760
  111OSM    H2F11533   4.624   3.905  10.195 -0.9335 -1.5762  2.7927
  111OSM    H2G11534   4.540   4.056  10.133  0.2748 -0.5569 -1.2859
  111OSM    C3F11535   4.404   3.892  10.194 -0.0523  0.0671 -0.6505
  111OSM    H3F11536   4.308   3.938  10.228  0.1390  0.3837 -0.5287
  111OSM    H3G11537   4.408   3.802  10.258 -0.2340  1.0134  0.7385
  111OSM    C4F11538   4.377   3.849  10.043 -0.6231 -0.3491  0.1205
  111OSM    H4F11539   4.278   3.800  10.041 -0.3575 -0.9257  0.7753
  111OSM    H4G11540   4.450   3.770  10.016 -1.6185 -1.3099  0.1594
  111OSM    C5F11541   4.373   3.971   9.949  0.4047 -0.2440 -0.0313
  111OSM    H5F11542   4.470   4.020   9.930 -0.1886  1.0687  0.2250
  111OSM    H5G11543   4.316   4.054   9.996  1.4977  1.5826 -1.8155
  111OSM    C6F11544   4.317   3.926   9.816 -0.3482  0.0871  0.4024
  111OSM    H6F11545   4.227   3.989   9.800  0.3148  1.3212  1.2956
  111OSM    H6G11546   4.296   3.818   9.823  0.0484 -0.1594 -1.5596
  111OSM    C7F11547   4.407   3.959   9.698  0.2335 -0.0722  1.1612
  111OSM    H7F11548   4.508   3.913   9.693  0.8778  1.3886 -2.6453
  111OSM    H7G11549   4.426   4.069   9.697 -0.7947  0.2329 -3.5512
  111OSM    C8F11550   4.346   3.913   9.559  0.1374 -0.3805 -0.1369
  111OSM    H8F11551   4.259   3.981   9.547 -0.3028 -1.1791 -1.7574
  111OSM    H8G11552   4.328   3.805   9.577 -0.3608 -0.3784 -0.5720
  111OSM    C9F11553   4.442   3.928   9.440  0.1007 -0.6130 -0.2237
  111OSM    H9F11554   4.544   3.901   9.471  1.4243  1.0616 -2.7693
  111OSM   C10F11555   4.418   3.962   9.312 -0.2315 -0.0448 -0.0800
  111OSM   H10F11556   4.504   3.974   9.244  0.0898 -0.7073  0.2019
  111OSM   C11F11557   4.283   3.999   9.247  0.4044 -0.4187  0.2690
  111OSM   H11F11558   4.207   4.022   9.325  0.0399 -0.9428  0.0688
  111OSM   H11G11559   4.246   3.914   9.186  0.9191 -0.5701  0.1677
  111OSM   C12F11560   4.309   4.131   9.172 -0.4897  0.1807  0.2282
  111OSM   H12F11561   4.369   4.104   9.083  0.2173 -1.0233  1.0296
  111OSM   H12G11562   4.366   4.207   9.231  1.8565 -0.2594 -1.3378
  111OSM   C13F11563   4.183   4.199   9.114  0.1314 -0.9644  0.3453
  111OSM   H13F11564   4.221   4.288   9.060  1.2428 -1.6551 -0.0562
  111OSM   H13G11565   4.123   4.229   9.202 -0.8246 -0.9238 -0.3049
  111OSM   C14F11566   4.101   4.112   9.023 -1.0154  0.2786  0.0744
  111OSM   H14F11567   4.068   4.021   9.079 -1.5685  1.6007  2.0034
  111OSM   H14G11568   4.173   4.082   8.944  0.7072  2.3097  0.7695
  111OSM   C15F11569   3.975   4.186   8.970  0.3262  0.0756  0.3287
  111OSM   H15F11570   4.016   4.273   8.914 -0.0494 -0.2263 -0.4319
  111OSM   H15G11571   3.907   4.231   9.046  1.5223  0.5897  1.1255
  111OSM   C16F11572   3.902   4.106   8.863  0.7200  0.6248 -0.9186
  111OSM   H16F11573   3.861   4.011   8.903  1.9436 -0.1450 -1.4260
  111OSM   H16G11574   3.965   4.070   8.779  2.4029  0.5124  0.3535
  111OSM   C17F11575   3.795   4.189   8.790  0.7573  0.1266  0.4256
  111OSM   H17F11576   3.842   4.278   8.742 -2.0579  0.5242 -1.8789
  111OSM   H17G11577   3.720   4.228   8.862  0.1125 -1.9033  0.9153
  111OSM   C18F11578   3.733   4.096   8.681 -0.2657 -0.1349  0.0893
  111OSM   H18F11579   3.807   4.085   8.599 -0.3905  0.6671 -0.1347
  111OSM   H18G11580   3.644   4.151   8.645 -1.3323 -0.5651  1.8949
  111OSM   H18H11581   3.707   3.992   8.710 -2.2881  0.1125 -0.7064
  112OSM      N11582   5.400   0.894  11.416 -0.4834  0.0944 -0.3021
  112OSM    C1511583   5.327   0.959  11.530  0.1030 -0.3277  0.0784
  112OSM   H15A11584   5.369   0.948  11.628  0.1851 -1.0398 -0.0288
  112OSM   H15B11585   5.226   0.919  11.534  0.9300 -2.5820 -0.1762
  112OSM   H15C11586   5.326   1.062  11.498 -0.5471 -0.7527 -1.3868
  112OSM    C1411587   5.547   0.934  11.427  0.2268  0.5975 -0.9342
  112OSM   H14A11588   5.603   0.883  11.350  0.2075  0.0930 -0.6266
  112OSM   H14B11589   5.603   0.906  11.516  2.1311  0.3345 -2.1628
  112OSM   H14C11590   5.561   1.040  11.418  2.3927  0.5127  0.4465
  112OSM    C1311591   5.405   0.746  11.429 -0.0386  0.5665 -0.8570
  112OSM   H13A11592   5.467   0.690  11.360 -1.5584 -0.1052 -1.7178
  112OSM   H13B11593   5.312   0.695  11.413  1.1739 -3.4252  2.7271
  112OSM   H13C11594   5.434   0.716  11.529 -1.1440 -0.8154 -0.9247
  112OSM    C1211595   5.337   0.939  11.282  0.3651  0.1096  0.0728
  112OSM   H12A11596   5.356   1.045  11.273  0.2030  0.0969 -0.4199
  112OSM   H12B11597   5.230   0.931  11.296  0.0454  1.0046 -1.6682
  112OSM    C1111598   5.389   0.877  11.156  0.4535  0.2237 -0.0717
  112OSM   H11A11599   5.326   0.921  11.076  1.1292  0.6522 -0.3792
  112OSM   H11B11600   5.381   0.767  11.159 -0.4897  0.2753  3.2427
  112OSM      P11601   5.567   1.042  11.068  0.0674 -0.2973 -0.0481
  112OSM    O1311602   5.506   1.145  11.151  0.2380 -0.0536 -0.1588
  112OSM    O1411603   5.715   1.052  11.045  0.1502 -0.4337 -0.0500
  112OSM    O1111604   5.494   1.039  10.923  0.1313 -0.0802 -0.4412
  112OSM    O1211605   5.533   0.906  11.137  0.3875  0.2969  0.3633
  112OSM    C1S11606   5.570   1.100  10.812  0.1673  0.3591 -0.2062
  112OSM    H1S11607   5.657   1.031  10.806  0.6541  0.8045  1.2522
  112OSM    H1T11608   5.620   1.193  10.844  1.1502 -0.8856  2.1686
  112OSM     NF11609   5.580   1.136  10.579  0.2799 -0.1074 -0.0772
  112OSM    HNF11610   5.588   1.234  10.559 -0.2173 -0.1375 -0.4213
  112OSM    C2S11611   5.489   1.107  10.682 -0.7245  0.4134 -0.0007
  112OSM    H2S11612   5.445   1.006  10.666  0.8793 -0.1186 -1.3253
  112OSM    C3S11613   5.375   1.213  10.696 -0.1275  0.1029 -0.5977
  112OSM    H3S11614   5.420   1.313  10.684  2.7668 -0.6491  2.5954
  112OSM     O311615   5.311   1.217  10.820 -0.5977  0.5688 -0.2642
  112OSM    HO311616   5.362   1.163  10.880 -1.5952 -0.1020  0.0161
  112OSM    C4S11617   5.282   1.206  10.580  0.6842 -0.0855 -0.1102
  112OSM    H4S11618   5.299   1.276  10.497 -0.6933  0.4228  0.0180
  112OSM    C5S11619   5.178   1.120  10.568  0.4917  0.8041  0.0367
  112OSM    H5S11620   5.155   1.060  10.657 -0.6480 -0.9128 -1.3649
  112OSM    C6S11621   5.085   1.108  10.456 -0.8022  0.3091  0.3407
  112OSM    H6S11622   4.986   1.135  10.498 -1.2911  0.1460 -0.6898
  112OSM    H6T11623   5.089   1.001  10.426 -1.0319 -0.0603  1.6009
  112OSM    C7S11624   5.118   1.200  10.338  0.1765 -0.5664 -0.0073
  112OSM    H7S11625   5.226   1.197  10.309 -0.3327 -3.0474 -2.0031
  112OSM    H7T11626   5.103   1.304  10.372 -0.9660 -0.8910  0.5215
  112OSM    C8S11627   5.024   1.176  10.226  0.7212  0.6625  0.4177
  112OSM    H8S11628   4.921   1.213  10.248 -0.6576 -1.9072 -1.2156
  112OSM    H8T11629   5.003   1.067  10.231  0.0202  0.8078  0.7996
  112OSM    C9S11630   5.081   1.216  10.090  0.4637 -0.7386 -0.2576
  112OSM    H9S11631   5.187   1.185  10.075  0.1874 -0.8012 -2.5491
  112OSM    H9T11632   5.073   1.326  10.080  0.3848 -0.8294 -1.3131
  112OSM   C10S11633   5.004   1.147   9.971 -0.4332 -0.0981 -0.7690
  112OSM   H10S11634   4.896   1.173   9.985 -0.5526  0.2921 -2.2572
  112OSM   H10T11635   5.018   1.040   9.998 -1.6045  0.1120  0.8213
  112OSM   C11S11636   5.032   1.173   9.825  0.4891 -0.2770 -0.1466
  112OSM   H11S11637   5.134   1.129   9.815  0.6695  0.0443  0.2275
  112OSM   H11T11638   5.022   1.282   9.808  1.1167 -0.6634 -3.8491
  112OSM   C12S11639   4.923   1.115   9.731 -0.3577 -1.1323  0.0831
  112OSM   H12S11640   4.836   1.184   9.724  2.4010  2.8079  1.4212
  112OSM   H12T11641   4.886   1.021   9.778 -0.6527 -0.8686  0.3849
  112OSM   C13S11642   4.982   1.077   9.589 -0.0124  0.5833  0.3624
  112OSM   H13S11643   5.067   1.008   9.612 -0.2645 -1.2828 -3.4285
  112OSM   H13T11644   5.016   1.160   9.524 -0.2080 -0.0333 -0.5544
  112OSM   C14S11645   4.883   0.993   9.504 -0.2001  0.1880 -0.0608
  112OSM   H14S11646   4.804   1.068   9.482 -1.6308 -1.4062 -0.5875
  112OSM   H14T11647   4.843   0.903   9.555  0.5179 -1.0418 -1.5720
  112OSM   C15S11648   4.951   0.945   9.371 -0.0578  0.3467 -0.2233
  112OSM   H15S11649   5.011   0.852   9.385 -0.4267  0.2546  0.8369
  112OSM   H15T11650   5.022   1.022   9.335 -1.1576  1.8384  0.6936
  112OSM   C16S11651   4.825   0.913   9.273  0.0773  0.0988  0.8223
  112OSM   H16S11652   4.770   1.007   9.251  2.9699  2.2065  1.9091
  112OSM   H16T11653   4.755   0.841   9.319 -1.0100  0.1991 -0.6071
  112OSM   C17S11654   4.876   0.844   9.143  0.3701  0.0917 -0.3072
  112OSM   H17S11655   4.947   0.764   9.174  2.8634  1.8152 -1.1601
  112OSM   H17T11656   4.939   0.917   9.087 -2.1610  1.3594 -1.6448
  112OSM   C18S11657   4.761   0.805   9.045  0.2333 -0.0362  0.3248
  112OSM   H18S11658   4.680   0.880   9.045 -0.7618 -0.9937  2.6082
  112OSM   H18T11659   4.709   0.714   9.083  0.2649 -0.3461 -0.3589
  112OSM   H18U11660   4.802   0.806   8.942  0.1231  0.9387  0.2873
  112OSM    C1F11661   5.651   1.040  10.521 -0.3698 -0.1546  0.7984
  112OSM     OF11662   5.647   0.928  10.561  0.4218 -0.0219 -0.1509
  112OSM    C2F11663   5.742   1.085  10.409  0.6947  0.1300  0.4113
  112OSM    H2F11664   5.847   1.068  10.442  0.4736 -0.6220  0.7449
  112OSM    H2G11665   5.727   1.192  10.384 -1.5159 -0.0446  0.8370
  112OSM    C3F11666   5.722   1.005  10.276 -0.1179 -0.7196 -0.2079
  112OSM    H3F11667   5.624   1.045  10.242 -0.8786 -0.3650  2.1897
  112OSM    H3G11668   5.728   0.896  10.294 -1.3970 -0.8391 -0.3856
  112OSM    C4F11669   5.817   1.045  10.168  0.3740 -0.2795  0.2125
  112OSM    H4F11670   5.920   1.014  10.193  0.6805  0.5079 -0.0438
  112OSM    H4G11671   5.823   1.156  10.157 -0.7366 -0.0361  1.7090
  112OSM    C5F11672   5.780   0.983  10.034 -0.2231 -0.7720  0.2115
  112OSM    H5F11673   5.724   1.048   9.964  0.6841 -0.4320 -0.2154
  112OSM    H5G11674   5.728   0.885  10.040  1.4998 -2.0467 -2.8756
  112OSM    C6F11675   5.907   0.959   9.939 -0.3272 -0.0257 -0.5135
  112OSM    H6F11676   5.977   0.886   9.985 -0.9719 -0.3487 -0.0337
  112OSM    H6G11677   5.956   1.059   9.946 -2.0009  0.8015 -0.0114
  112OSM    C7F11678   5.873   0.932   9.791 -0.2125 -0.2662  0.3727
  112OSM    H7F11679   5.794   0.854   9.787  0.3435 -0.8255  0.0788
  112OSM    H7G11680   5.959   0.879   9.744 -0.9103 -3.1108  2.0354
  112OSM    C8F11681   5.818   1.046   9.708  0.6406  0.0468  0.4367
  112OSM    H8F11682   5.736   1.091   9.768 -0.1692 -2.0845  1.0357
  112OSM    H8G11683   5.779   1.013   9.609  0.2588  2.2869 -0.2167
  112OSM    C9F11684   5.927   1.143   9.675  0.0545 -0.3929 -0.0740
  112OSM    H9F11685   5.965   1.201   9.761 -0.1603  1.5372 -1.2297
  112OSM   C10F11686   5.979   1.174   9.557 -0.2034  0.0823  0.5297
  112OSM   H10F11687   6.068   1.239   9.552 -0.7944  1.0008  1.6133
  112OSM   C11F11688   5.943   1.123   9.421  0.0907 -0.1166 -0.4075
  112OSM   H11F11689   5.863   1.046   9.416 -1.3525  1.3743 -1.2244
  112OSM   H11G11690   6.036   1.081   9.378  0.3568 -1.8139  1.6624
  112OSM   C12F11691   5.907   1.246   9.324  0.4085 -0.2971  0.5642
  112OSM   H12F11692   5.994   1.308   9.292  0.5909 -1.2437 -0.8937
  112OSM   H12G11693   5.832   1.308   9.377  0.0127 -0.3432  0.0634
  112OSM   C13F11694   5.845   1.191   9.200  0.6605 -0.0285 -0.4440
  112OSM   H13F11695   5.774   1.117   9.242  1.0412  1.0285  2.2555
  112OSM   H13G11696   5.926   1.153   9.134  0.7018 -1.2402  0.2830
  112OSM   C14F11697   5.775   1.292   9.115 -0.2183 -1.3961 -0.5888
  112OSM   H14F11698   5.854   1.368   9.098  1.1214 -2.5923  0.0152
  112OSM   H14G11699   5.693   1.344   9.168  0.6127  1.3537 -1.8374
  112OSM   C15F11700   5.732   1.248   8.973  0.2222  0.2695 -0.5136
  112OSM   H15F11701   5.681   1.149   8.979 -0.3245  0.5277 -0.8365
  112OSM   H15G11702   5.817   1.223   8.905 -1.3911 -4.0745 -1.3027
  112OSM   C16F11703   5.665   1.362   8.897 -0.6539  0.2125  0.3830
  112OSM   H16F11704   5.574   1.395   8.952 -1.0742 -0.2307 -0.0395
  112OSM   H16G11705   5.620   1.310   8.810  0.9751 -2.1891  0.8895
  112OSM   C17F11706   5.756   1.470   8.846 -0.6710 -0.2251  0.1865
  112OSM   H17F11707   5.844   1.414   8.807 -0.5359 -0.1810  0.4319
  112OSM   H17G11708   5.792   1.534   8.929 -1.7529  0.8814 -0.1701
  112OSM   C18F11709   5.700   1.561   8.733  0.4450 -0.3264  0.2096
  112OSM   H18F11710   5.628   1.638   8.769  1.1815  1.1794 -1.3763
  112OSM   H18G11711   5.644   1.502   8.657  0.5203 -1.8272  1.2886
  112OSM   H18H11712   5.787   1.615   8.690  0.8670  0.6985  2.2128
  113OSM      N11713   2.161   3.016  10.792  0.4179 -0.7703  0.4112
  113OSM    C1511714   2.187   3.154  10.839 -0.3983  0.2120 -0.2554
  113OSM   H15A11715   2.289   3.162  10.873 -1.5350 -1.3310  4.1406
  113OSM   H15B11716   2.126   3.179  10.924  0.0871 -2.0860  0.8711
  113OSM   H15C11717   2.167   3.225  10.760 -0.9618  0.0270 -0.2826
  113OSM    C1411718   2.226   3.001  10.662  0.0849 -0.0815 -0.2014
  113OSM   H14A11719   2.185   3.063  10.584 -0.1998  1.0648  0.8320
  113OSM   H14B11720   2.214   2.897  10.634 -0.3639 -0.4406  1.2396
  113OSM   H14C11721   2.331   3.016  10.681 -0.0117  3.9708 -1.9513
  113OSM    C1311722   2.199   2.917  10.898 -0.4648  0.5878  0.6742
  113OSM   H13A11723   2.136   2.917  10.986 -1.0265  0.5952  0.2734
  113OSM   H13B11724   2.303   2.938  10.918 -0.8785  1.7177  1.8093
  113OSM   H13C11725   2.192   2.819  10.854 -1.0926  1.3639 -1.0328
  113OSM    C1211726   2.009   3.017  10.770  0.7036  0.3540  0.3155
  113OSM   H12A11727   1.978   2.926  10.721 -0.9098  2.1547 -2.3038
  113OSM   H12B11728   1.997   3.096  10.697  0.8887  2.0671  2.0589
  113OSM    C1111729   1.914   3.035  10.887 -0.1390  0.2861 -0.1659
  113OSM   H11A11730   1.930   2.947  10.952  1.3977  1.0418  0.5418
  113OSM   H11B11731   1.817   3.020  10.835  0.3104  0.5711 -1.1050
  113OSM      P11732   1.831   3.264  10.945  0.2362 -0.3909  0.1576
  113OSM    O1311733   1.704   3.239  11.020 -0.1604 -0.9235  0.3232
  113OSM    O1411734   1.904   3.384  10.992 -0.2072 -0.4579  0.6981
  113OSM    O1111735   1.813   3.273  10.791 -0.0097 -0.2358 -0.6753
  113OSM    O1211736   1.926   3.150  10.969  0.3545 -0.1909 -0.1649
  113OSM    C1S11737   1.690   3.272  10.730  0.3285 -0.5299 -1.3264
  113OSM    H1S11738   1.619   3.335  10.789  0.9797 -0.1441 -0.9445
  113OSM    H1T11739   1.640   3.172  10.725  0.4983 -0.6711 -0.4325
  113OSM     NF11740   1.567   3.341  10.530  0.0199  0.0461 -0.0375
  113OSM    HNF11741   1.547   3.280  10.455 -0.9479  0.3807 -0.0677
  113OSM    C2S11742   1.699   3.329  10.590  0.2463  0.5223 -0.0728
  113OSM    H2S11743   1.740   3.431  10.607  0.5816  0.2238  0.9887
  113OSM    C3S11744   1.800   3.245  10.504 -0.6609 -0.0275 -0.0524
  113OSM    H3S11745   1.772   3.138  10.501 -0.8809 -0.0158  1.2055
  113OSM     O311746   1.932   3.244  10.559 -0.1373  0.6267 -0.0935
  113OSM    HO311747   1.916   3.276  10.648 -1.5608  0.1131 -0.1422
  113OSM    C4S11748   1.818   3.299  10.365  0.3079 -0.3496  0.6185
  113OSM    H4S11749   1.875   3.393  10.361  1.9639 -1.2812  1.1862
  113OSM    C5S11750   1.760   3.245  10.255  0.5434 -0.2394 -0.5692
  113OSM    H5S11751   1.693   3.159  10.249 -0.3019  0.4091 -0.6083
  113OSM    C6S11752   1.770   3.308  10.118 -0.2849 -0.5894  0.8829
  113OSM    H6S11753   1.870   3.348  10.095 -1.1326  0.8254 -0.5583
  113OSM    H6T11754   1.712   3.402  10.120 -0.0111 -0.3887 -0.1210
  113OSM    C7S11755   1.735   3.206  10.007 -0.1410  0.5508  0.2210
  113OSM    H7S11756   1.727   3.263   9.911  0.3520  0.5180  0.1595
  113OSM    H7T11757   1.626   3.185  10.012 -0.5445  2.4221  0.1755
  113OSM    C8S11758   1.819   3.085   9.979 -0.3600 -0.2005  0.3482
  113OSM    H8S11759   1.791   3.014  10.061  0.2073  0.8248  1.4666
  113OSM    H8T11760   1.925   3.114   9.999  0.2081 -1.5838 -0.5198
  113OSM    C9S11761   1.798   3.038   9.834  0.3174  0.8433 -0.7082
  113OSM    H9S11762   1.814   3.123   9.763  2.9549 -1.1063 -2.6293
  113OSM    H9T11763   1.693   3.010   9.810 -0.3231  2.2166  0.2980
  113OSM   C10S11764   1.889   2.920   9.810  0.0431 -0.2381 -0.0935
  113OSM   H10S11765   1.880   2.850   9.895 -0.5605 -0.9296 -0.7123
  113OSM   H10T11766   1.994   2.958   9.813 -0.2076  0.5113 -0.3670
  113OSM   C11S11767   1.863   2.850   9.678 -0.2120  0.4552 -0.8373
  113OSM   H11S11768   1.759   2.813   9.680 -1.0572  2.3749 -3.6064
  113OSM   H11T11769   1.934   2.764   9.680  1.3697  1.6935  0.9834
  113OSM   C12S11770   1.881   2.939   9.555  0.0872 -0.1540 -0.1423
  113OSM   H12S11771   1.976   2.996   9.565  0.2211  0.1473 -2.6429
  113OSM   H12T11772   1.793   3.006   9.553 -0.8894 -1.2897  1.9557
  113OSM   C13S11773   1.908   2.854   9.431 -0.2318 -0.3020  0.5924
  113OSM   H13S11774   1.991   2.782   9.445  0.0394 -0.2280 -0.5883
  113OSM   H13T11775   1.943   2.925   9.353 -1.2928 -2.7075 -2.2535
  113OSM   C14S11776   1.792   2.767   9.367 -0.4455  0.4135 -0.3934
  113OSM   H14S11777   1.738   2.711   9.447 -1.2397  0.7523 -0.6739
  113OSM   H14T11778   1.831   2.696   9.292  3.6312  1.2064  0.7712
  113OSM   C15S11779   1.697   2.857   9.290  0.4707 -0.4422 -0.0580
  113OSM   H15S11780   1.758   2.919   9.221  0.6152  1.1635  1.4518
  113OSM   H15T11781   1.647   2.927   9.360 -1.6170  0.7755 -2.5675
  113OSM   C16S11782   1.584   2.769   9.220  0.7331 -0.2285  0.0410
  113OSM   H16S11783   1.498   2.834   9.194  1.9313  1.3463 -0.0891
  113OSM   H16T11784   1.532   2.700   9.290  1.2801 -0.5835  0.1101
  113OSM   C17S11785   1.629   2.704   9.092  0.1879  0.6811  1.1812
  113OSM   H17S11786   1.703   2.625   9.115  2.0161  0.9959 -2.8167
  113OSM   H17T11787   1.677   2.778   9.024 -1.4500  0.4034 -0.3686
  113OSM   C18S11788   1.512   2.660   9.000 -0.6733  0.2885  0.1529
  113OSM   H18S11789   1.439   2.742   8.985 -0.6772  0.0121 -1.5402
  113OSM   H18T11790   1.467   2.568   9.044 -1.0447 -0.3619 -1.5215
  113OSM   H18U11791   1.554   2.635   8.900  3.9668  0.6484  1.7852
  113OSM    C1F11792   1.468   3.414  10.566  0.0864  0.1305  0.2700
  113OSM     OF11793   1.480   3.507  10.644  0.1341  0.4521  0.0242
  113OSM    C2F11794   1.335   3.390  10.500  0.5658  0.4107 -0.6598
  113OSM    H2F11795   1.264   3.385  10.585  0.8385  0.6195 -0.4227
  113OSM    H2G11796   1.348   3.289  10.454  0.1578 -1.0481  2.2149
  113OSM    C3F11797   1.296   3.491  10.393  0.6605 -0.4317 -0.6434
  113OSM    H3F11798   1.292   3.593  10.437  0.3262 -1.0997  0.9389
  113OSM    H3G11799   1.190   3.476  10.364  0.1917 -2.9053  1.9604
  113OSM    C4F11800   1.382   3.482  10.266  0.1154 -0.1688  0.2210
  113OSM    H4F11801   1.360   3.376  10.241  0.1150 -0.9463  3.1564
  113OSM    H4G11802   1.491   3.495  10.285  0.5032 -0.2443 -1.7267
  113OSM    C5F11803   1.330   3.582  10.159 -0.2577  0.4236  0.4532
  113OSM    H5F11804   1.356   3.686  10.190 -0.7359 -0.1132  2.8096
  113OSM    H5G11805   1.219   3.578  10.168 -0.3424  0.5804 -0.3659
  113OSM    C6F11806   1.376   3.546  10.012 -0.1648  0.0228  0.0530
  113OSM    H6F11807   1.469   3.486  10.011 -0.5767 -0.6160 -0.5808
  113OSM    H6G11808   1.384   3.638   9.949  3.3939 -0.3698 -0.3162
  113OSM    C7F11809   1.275   3.463   9.936 -0.6395 -0.1190  0.6832
  113OSM    H7F11810   1.180   3.516   9.959 -0.9365 -1.8443  3.9810
  113OSM    H7G11811   1.270   3.359   9.976  1.2892 -1.8503 -3.0032
  113OSM    C8F11812   1.304   3.456   9.783  0.2034 -0.0255  0.0289
  113OSM    H8F11813   1.323   3.559   9.746  0.3329 -0.6632 -1.7447
  113OSM    H8G11814   1.208   3.414   9.746  0.0637  0.0562  0.2946
  113OSM    C9F11815   1.413   3.365   9.756  0.7268 -0.1889 -0.0419
  113OSM    H9F11816   1.411   3.276   9.820 -1.5740  1.2095  2.0184
  113OSM   C10F11817   1.520   3.378   9.676 -0.3546  0.7001 -0.3829
  113OSM   H10F11818   1.592   3.296   9.690  0.6565  1.7968  1.0658
  113OSM   C11F11819   1.562   3.496   9.598 -0.1099 -0.1937  0.6833
  113OSM   H11F11820   1.655   3.529   9.649  0.5817 -1.1409  0.0614
  113OSM   H11G11821   1.486   3.577   9.605  1.9019  1.8353  0.2221
  113OSM   C12F11822   1.595   3.460   9.454 -0.1366 -0.3881 -0.6953
  113OSM   H12F11823   1.637   3.358   9.443 -0.3018 -0.4115 -1.1287
  113OSM   H12G11824   1.680   3.523   9.418  0.9948 -1.7656 -0.5487
  113OSM   C13F11825   1.482   3.457   9.359 -0.3002 -0.2387  0.1606
  113OSM   H13F11826   1.427   3.553   9.370  1.6183  1.0572 -0.9358
  113OSM   H13G11827   1.420   3.369   9.387  1.9133 -1.9484 -0.0626
  113OSM   C14F11828   1.517   3.435   9.211  0.2962 -0.6044 -0.1963
  113OSM   H14F11829   1.430   3.433   9.142  0.4245 -2.9315 -0.3559
  113OSM   H14G11830   1.573   3.340   9.198  1.5423  0.1425 -0.4959
  113OSM   C15F11831   1.608   3.549   9.163  0.2989 -0.0541  0.0020
  113OSM   H15F11832   1.710   3.562   9.205  1.3922  1.6168 -2.8448
  113OSM   H15G11833   1.565   3.648   9.186  0.8226  0.5307 -1.4024
  113OSM   C16F11834   1.623   3.550   9.010 -0.0374 -0.0117  0.3655
  113OSM   H16F11835   1.527   3.554   8.954  0.1669  3.2722  0.0874
  113OSM   H16G11836   1.680   3.460   8.980  1.4316  0.4955  1.5092
  113OSM   C17F11837   1.714   3.669   8.970  0.3802 -0.9273  0.1771
  113OSM   H17F11838   1.814   3.644   9.012 -0.6175 -1.6162  2.3213
  113OSM   H17G11839   1.675   3.764   9.010  0.7891 -0.4682 -0.4954
  113OSM   C18F11840   1.714   3.690   8.818 -0.3313 -0.7128  0.1583
  113OSM   H18F11841   1.782   3.613   8.775  2.2237  1.4441  0.0472
  113OSM   H18G11842   1.767   3.787   8.803 -0.3651 -0.8845 -1.1161
  113OSM   H18H11843   1.617   3.700   8.766  0.0749  3.9748 -0.1575
  114OSM      N11844   4.665   0.873  11.255 -0.4185 -0.6960  0.3943
  114OSM    C1511845   4.527   0.866  11.317  0.6384 -0.4672 -0.4884
  114OSM   H15A11846   4.530   0.820  11.415 -1.1057 -1.6697 -0.9561
  114OSM   H15B11847   4.454   0.814  11.258 -0.1061 -2.2575  1.8455
  114OSM   H15C11848   4.485   0.966  11.318  2.1298  0.1890 -0.6414
  114OSM    C1411849   4.748   0.974  11.331  0.3939  0.3700  0.7239
  114OSM   H14A11850   4.846   0.969  11.288 -0.3949 -0.1243 -1.1127
  114OSM   H14B11851   4.754   0.957  11.437  0.3963  0.3499  0.7204
  114OSM   H14C11852   4.719   1.075  11.305 -2.3673 -0.3679  0.5793
  114OSM    C1311853   4.730   0.741  11.285  0.6444  0.1873  1.6244
  114OSM   H13A11854   4.732   0.717  11.390  1.3302 -1.6031  1.2470
  114OSM   H13B11855   4.829   0.731  11.243  0.3024 -1.5707  1.1812
  114OSM   H13C11856   4.663   0.665  11.248  0.2597  0.8143  0.9960
  114OSM    C1211857   4.665   0.906  11.108 -0.4095 -0.3542 -0.2460
  114OSM   H12A11858   4.768   0.905  11.074  0.2311  0.4198  1.5524
  114OSM   H12B11859   4.633   1.009  11.104 -0.7660 -0.3631  1.5264
  114OSM    C1111860   4.582   0.809  11.021  0.2900 -0.5240 -0.2316
  114OSM   H11A11861   4.633   0.713  11.043 -0.9038 -0.5190  3.0401
  114OSM   H11B11862   4.602   0.823  10.912  0.5356 -0.6988 -0.2113
  114OSM      P11863   4.333   0.913  11.027 -0.6292  0.3297 -0.5714
  114OSM    O1311864   4.217   0.863  11.098  0.2768 -0.4988  0.1271
  114OSM    O1411865   4.391   1.047  11.058 -0.0365 -0.3224 -0.0606
  114OSM    O1111866   4.285   0.903  10.877  0.3874  0.2691 -0.5980
  114OSM    O1211867   4.444   0.794  11.058 -0.1165  0.2936  0.3144
  114OSM    C1S11868   4.289   0.773  10.813  0.0260  0.2046  0.3416
  114OSM    H1S11869   4.199   0.716  10.844 -0.0810 -0.8654 -1.7686
  114OSM    H1T11870   4.385   0.718  10.829  0.1649  0.3654  0.0726
  114OSM     NF11871   4.255   0.658  10.586 -0.3313 -0.6562  0.0845
  114OSM    HNF11872   4.336   0.616  10.548 -0.2682  0.6289 -1.2709
  114OSM    C2S11873   4.285   0.783  10.656  0.1351 -0.3548  0.1136
  114OSM    H2S11874   4.208   0.856  10.624  0.7772 -0.3614 -1.5206
  114OSM    C3S11875   4.426   0.836  10.617  0.4527 -0.0122 -0.3288
  114OSM    H3S11876   4.505   0.758  10.613 -0.9161 -1.4121 -1.3366
  114OSM     O311877   4.489   0.929  10.701 -0.3988 -0.1303  0.4392
  114OSM    HO311878   4.437   0.924  10.781 -0.6914  0.3374  0.2867
  114OSM    C4S11879   4.425   0.885  10.477  0.6617 -0.3980  0.9877
  114OSM    H4S11880   4.420   0.802  10.404 -2.3625 -0.7919  1.4732
  114OSM    C5S11881   4.428   1.014  10.431 -0.2875  0.2578 -0.8718
  114OSM    H5S11882   4.435   1.099  10.501 -1.6032 -0.3148 -0.0102
  114OSM    C6S11883   4.429   1.076  10.298  0.0090  0.3813  0.6936
  114OSM    H6S11884   4.528   1.127  10.296 -1.1379  2.7742  0.9609
  114OSM    H6T11885   4.341   1.144  10.289 -0.3430 -0.0807  0.5637
  114OSM    C7S11886   4.430   0.972  10.181 -0.1753 -0.5013  0.5586
  114OSM    H7S11887   4.340   0.909  10.198 -0.8150 -0.2782 -1.6169
  114OSM    H7T11888   4.522   0.910  10.176 -0.1590 -0.5297  1.1756
  114OSM    C8S11889   4.419   1.040  10.043 -0.1503  0.1126 -0.6679
  114OSM    H8S11890   4.512   1.099  10.028 -0.1404 -0.2298 -2.1353
  114OSM    H8T11891   4.334   1.111  10.051 -0.4469 -0.0652 -1.9871
  114OSM    C9S11892   4.391   0.940   9.927 -0.7469 -0.5151  0.2291
  114OSM    H9S11893   4.288   0.898   9.938 -0.6279 -1.0792 -0.7116
  114OSM    H9T11894   4.460   0.854   9.941  0.0781  0.0126 -0.5158
  114OSM   C10S11895   4.413   1.017   9.794  0.4361  0.7666 -0.7220
  114OSM   H10S11896   4.511   1.065   9.814  0.5047  0.7848 -1.1095
  114OSM   H10T11897   4.331   1.091   9.781 -2.6477 -2.0928  0.8142
  114OSM   C11S11898   4.422   0.932   9.669  0.3675 -0.1970 -0.1040
  114OSM   H11S11899   4.341   0.856   9.681  1.6423 -1.4343  1.0694
  114OSM   H11T11900   4.503   0.857   9.656 -0.1485 -1.0521  1.3691
  114OSM   C12S11901   4.418   1.009   9.539  1.1968 -0.2705  0.6615
  114OSM   H12S11902   4.502   1.082   9.534  0.8651  0.0911  0.2014
  114OSM   H12T11903   4.322   1.064   9.548  0.0018 -2.4385  1.6907
  114OSM   C13S11904   4.421   0.934   9.402  0.8799  0.5540  0.1220
  114OSM   H13S11905   4.322   0.883   9.400  1.3664 -0.7269  3.0825
  114OSM   H13T11906   4.505   0.862   9.413 -0.9443 -1.5342  1.4875
  114OSM   C14S11907   4.433   1.018   9.275  0.3570  0.6747 -0.6591
  114OSM   H14S11908   4.541   1.042   9.279  1.0444 -2.2194  0.9360
  114OSM   H14T11909   4.366   1.106   9.270  0.2504  0.5425 -3.8768
  114OSM   C15S11910   4.400   0.936   9.149  0.4318 -0.2329  0.7848
  114OSM   H15S11911   4.291   0.917   9.150  0.5342 -0.9406 -0.4304
  114OSM   H15T11912   4.446   0.835   9.148 -3.7423 -2.3311  0.3862
  114OSM   C16S11913   4.423   1.015   9.017  0.2734  0.3106 -0.4924
  114OSM   H16S11914   4.532   1.038   9.012  0.6034 -0.1163  2.6155
  114OSM   H16T11915   4.367   1.111   9.019  2.4309  1.6433  1.7180
  114OSM   C17S11916   4.390   0.932   8.886  0.2552  0.3152  0.0777
  114OSM   H17S11917   4.415   0.996   8.798 -2.1673 -1.9329 -2.4132
  114OSM   H17T11918   4.281   0.911   8.887  0.2884  0.0916  1.6667
  114OSM   C18S11919   4.466   0.799   8.861  0.0758 -0.4312 -0.1625
  114OSM   H18S11920   4.455   0.746   8.957 -3.8348 -4.2413 -2.3592
  114OSM   H18T11921   4.577   0.804   8.851  0.3852  1.0881  2.9355
  114OSM   H18U11922   4.420   0.731   8.786  0.5598  1.3671 -2.1945
  114OSM    C1F11923   4.138   0.599  10.592 -0.4361  0.5424 -0.5075
  114OSM     OF11924   4.057   0.626  10.673 -0.0935 -0.1423 -0.0405
  114OSM    C2F11925   4.102   0.498  10.488 -0.4059 -0.1680  0.5076
  114OSM    H2F11926   4.175   0.414  10.482  0.4622  0.6270 -0.6423
  114OSM    H2G11927   4.125   0.560  10.399  0.9132 -2.2094 -0.6652
  114OSM    C3F11928   3.955   0.451  10.486  0.0430  0.4718  0.5483
  114OSM    H3F11929   3.884   0.537  10.488 -0.0692  0.4289 -0.8677
  114OSM    H3G11930   3.942   0.383  10.573  1.3524 -0.4027  0.0927
  114OSM    C4F11931   3.918   0.368  10.361 -0.1773  0.3571 -0.4327
  114OSM    H4F11932   3.819   0.325  10.387 -0.2237  1.7000  2.0253
  114OSM    H4G11933   3.990   0.286  10.345  0.1298  0.4274  0.4930
  114OSM    C5F11934   3.933   0.443  10.222  0.6308 -0.5291 -0.5809
  114OSM    H5F11935   4.039   0.475  10.220  0.4785 -0.0467 -0.8722
  114OSM    H5G11936   3.868   0.532  10.233 -1.4715 -2.0655  0.2016
  114OSM    C6F11937   3.895   0.349  10.108  0.6470 -0.6249  0.1675
  114OSM    H6F11938   3.788   0.317  10.111  0.0681  1.0678 -1.1815
  114OSM    H6G11939   3.953   0.254  10.113  1.0464 -0.3286  1.6148
  114OSM    C7F11940   3.916   0.424   9.977 -0.6301 -0.2775  0.1068
  114OSM    H7F11941   3.901   0.346   9.899 -1.1227  2.2598 -2.4838
  114OSM    H7G11942   4.016   0.472   9.974 -1.5397  1.6788 -1.1769
  114OSM    C8F11943   3.827   0.540   9.943  0.1952 -0.0734  0.0790
  114OSM    H8F11944   3.878   0.603   9.867 -0.1127 -0.4111 -0.4103
  114OSM    H8G11945   3.834   0.610  10.030  0.4606  1.3207 -1.0206
  114OSM    C9F11946   3.689   0.514   9.900  0.2864 -0.6933 -0.2663
  114OSM    H9F11947   3.614   0.517   9.980 -2.1229  1.9610 -2.4189
  114OSM   C10F11948   3.647   0.509   9.771 -0.5035  0.3146 -0.4164
  114OSM   H10F11949   3.544   0.479   9.747  0.1911 -1.1808 -1.8372
  114OSM   C11F11950   3.727   0.527   9.643  1.3069 -0.2464  0.0155
  114OSM   H11F11951   3.744   0.425   9.602  0.2020  0.1265 -1.4948
  114OSM   H11G11952   3.827   0.572   9.657  1.9775 -0.9421 -2.1981
  114OSM   C12F11953   3.658   0.606   9.534  0.0133  0.8014  0.0869
  114OSM   H12F11954   3.650   0.715   9.553 -0.8537  0.6796  0.4831
  114OSM   H12G11955   3.554   0.570   9.519  0.2870  0.7033 -1.8718
  114OSM   C13F11956   3.727   0.588   9.397 -0.2434  0.3255 -0.2292
  114OSM   H13F11957   3.811   0.522   9.429  0.9224  2.4299  1.3288
  114OSM   H13G11958   3.769   0.686   9.368  1.2313 -0.1131  0.3129
  114OSM   C14F11959   3.630   0.528   9.299  0.4773 -0.1131 -0.2137
  114OSM   H14F11960   3.559   0.612   9.287 -0.0708 -0.1510  2.2613
  114OSM   H14G11961   3.580   0.439   9.343 -0.5482  0.5247 -0.0686
  114OSM   C15F11962   3.690   0.501   9.163  0.1852  0.3282 -0.0300
  114OSM   H15F11963   3.783   0.442   9.178 -0.6398 -1.0362 -0.1744
  114OSM   H15G11964   3.720   0.596   9.113  0.8907  0.1129 -0.0353
  114OSM   C16F11965   3.601   0.427   9.064  0.2808 -0.0058  0.4489
  114OSM   H16F11966   3.514   0.492   9.041 -0.1372  0.6798  3.4815
  114OSM   H16G11967   3.561   0.329   9.098 -0.5794 -0.1617 -0.9482
  114OSM   C17F11968   3.684   0.406   8.937 -0.1688 -0.0563  0.0498
  114OSM   H17F11969   3.773   0.350   8.971  0.2935  1.5647  1.6469
  114OSM   H17G11970   3.721   0.504   8.901 -0.2049 -0.0082  0.1443
  114OSM   C18F11971   3.605   0.323   8.829 -0.1104 -0.7639  0.4409
  114OSM   H18F11972   3.673   0.285   8.750 -1.2872 -1.4026 -0.2874
  114OSM   H18G11973   3.522   0.386   8.790 -0.4852 -0.8007  1.1533
  114OSM   H18H11974   3.566   0.227   8.869 -0.3776 -0.9605 -0.2820
  115OSM      N11975   1.323   6.232  11.281 -0.0331 -0.2132 -0.0445
  115OSM    C1511976   1.293   6.300  11.151 -0.3625 -0.4549 -0.0724
  115OSM   H15A11977   1.196   6.273  11.111 -0.7403 -0.7582  1.0248
  115OSM   H15B11978   1.376   6.287  11.083 -0.4905  0.5016 -0.4313
  115OSM   H15C11979   1.283   6.407  11.166 -1.2184 -0.6121  0.5590
  115OSM    C1411980   1.209   6.270  11.374  0.3989 -0.0700 -0.2449
  115OSM   H14A11981   1.198   6.377  11.369  0.8734 -0.0393 -0.7635
  115OSM   H14B11982   1.228   6.235  11.474  0.2964 -1.4458 -0.6788
  115OSM   H14C11983   1.120   6.227  11.330  1.2579 -1.1504 -0.9846
  115OSM    C1311984   1.329   6.082  11.267 -0.6798 -1.2454  0.4671
  115OSM   H13A11985   1.414   6.043  11.213 -2.5316 -5.2566  0.0629
  115OSM   H13B11986   1.245   6.052  11.206 -1.2281 -1.1389  1.1573
  115OSM   H13C11987   1.334   6.027  11.360  1.8375 -1.4930  0.2583
  115OSM    C1211988   1.453   6.290  11.339 -0.6238 -0.2728 -1.1389
  115OSM   H12A11989   1.448   6.268  11.445 -1.1929  0.7518 -0.9434
  115OSM   H12B11990   1.443   6.397  11.336 -0.6100 -0.1402  1.3071
  115OSM    C1111991   1.588   6.259  11.279 -0.5262 -0.3937 -0.1271
  115OSM   H11A11992   1.593   6.153  11.245  1.3280 -0.7701  1.1895
  115OSM   H11B11993   1.671   6.284  11.348 -1.9115 -1.1692  1.9123
  115OSM      P11994   1.667   6.480  11.149  0.3569  0.1375 -0.2044
  115OSM    O1311995   1.573   6.572  11.208  0.2830  0.8862 -0.1299
  115OSM    O1411996   1.802   6.478  11.199  1.0291  0.1463  0.0370
  115OSM    O1111997   1.671   6.509  10.995 -0.1876  0.9968 -0.1422
  115OSM    O1211998   1.610   6.331  11.157  0.2364  0.1095 -0.8479
  115OSM    C1S11999   1.613   6.407  10.909 -0.5714 -0.3018 -0.3145
  115OSM    H1S12000   1.505   6.403  10.935 -0.7726  0.5135 -1.0030
  115OSM    H1T12001   1.640   6.302  10.934 -1.6242 -0.6582 -0.6245
  115OSM     NF12002   1.567   6.322  10.682  0.1372 -0.0802  0.1455
  115OSM    HNF12003   1.633   6.256  10.647  0.5567  0.5354 -0.2487
  115OSM    C2S12004   1.635   6.433  10.755 -0.6800  0.5359  0.6771
  115OSM    H2S12005   1.592   6.527  10.714 -0.8859  0.3790  0.5324
  115OSM    C3S12006   1.792   6.441  10.730 -0.1909  0.1495  0.2899
  115OSM    H3S12007   1.842   6.353  10.775  2.0830  0.3151 -1.7108
  115OSM     O312008   1.846   6.557  10.791 -0.4501 -0.5686 -0.1699
  115OSM    HO312009   1.781   6.592  10.853  1.4862  0.1561  1.6031
  115OSM    C4S12010   1.819   6.450  10.586 -0.2598 -0.6360  0.3858
  115OSM    H4S12011   1.789   6.547  10.543  0.7293  0.0277  1.1074
  115OSM    C5S12012   1.893   6.367  10.506 -0.0395  0.5222 -0.5512
  115OSM    H5S12013   1.918   6.270  10.551  0.9446  1.9439  2.2363
  115OSM    C6S12014   1.922   6.393  10.361 -0.0599  0.3617 -0.2451
  115OSM    H6S12015   1.895   6.304  10.301 -0.0178  2.1288 -3.0726
  115OSM    H6T12016   2.029   6.423  10.353 -0.3256  1.0847 -1.3091
  115OSM    C7S12017   1.825   6.485  10.296  0.0510 -0.0916  0.1252
  115OSM    H7S12018   1.860   6.587  10.324  1.4078 -0.3597 -0.5172
  115OSM    H7T12019   1.720   6.460  10.324 -0.8335 -0.0752 -2.8226
  115OSM    C8S12020   1.837   6.488  10.141  0.4411 -0.3332  0.1524
  115OSM    H8S12021   1.819   6.387  10.099 -1.7954 -0.0464  0.3432
  115OSM    H8T12022   1.942   6.522  10.130 -0.1169  1.5005  0.2629
  115OSM    C9S12023   1.755   6.604  10.067 -0.0113 -0.4588  0.7380
  115OSM    H9S12024   1.795   6.700  10.106 -0.1641 -0.6981  1.4943
  115OSM    H9T12025   1.646   6.591  10.087 -0.3727 -0.0337 -0.8548
  115OSM   C10S12026   1.774   6.589   9.914 -0.0231 -0.4957 -0.5650
  115OSM   H10S12027   1.685   6.611   9.851  0.6364  1.1192 -0.9996
  115OSM   H10T12028   1.805   6.486   9.890 -0.1284 -0.8758  0.8474
  115OSM   C11S12029   1.889   6.683   9.871 -0.0515  0.0582  0.7272
  115OSM   H11S12030   1.993   6.650   9.892  1.2172  2.2525 -1.4984
  115OSM   H11T12031   1.880   6.779   9.926  3.3150  0.0030  1.6493
  115OSM   C12S12032   1.878   6.706   9.720 -0.8176  0.2447  0.4736
  115OSM   H12S12033   1.932   6.801   9.700  0.3933 -0.5654 -0.2946
  115OSM   H12T12034   1.772   6.718   9.690 -0.5623  0.0494 -0.5469
  115OSM   C13S12035   1.941   6.592   9.634  1.2882  0.1755  0.0191
  115OSM   H13S12036   1.881   6.499   9.648 -0.3717  1.2589  0.3456
  115OSM   H13T12037   2.045   6.577   9.671  0.3449 -0.5171  2.6267
  115OSM   C14S12038   1.958   6.638   9.492  0.4143 -0.2045 -0.0646
  115OSM   H14S12039   2.021   6.568   9.434  2.1678 -1.6174  3.2582
  115OSM   H14T12040   2.018   6.731   9.489  0.6645 -0.3225  0.9965
  115OSM   C15S12041   1.822   6.651   9.412 -0.0858  0.5238 -0.4128
  115OSM   H15S12042   1.761   6.735   9.451  0.4479  0.3161  0.9316
  115OSM   H15T12043   1.765   6.558   9.429  2.2704 -1.0042 -0.4495
  115OSM   C16S12044   1.848   6.682   9.262  0.3568 -0.1212 -0.9373
  115OSM   H16S12045   1.914   6.605   9.217  1.1227 -0.7043  1.0816
  115OSM   H16T12046   1.894   6.782   9.257 -1.3129  0.8463  1.3451
  115OSM   C17S12047   1.724   6.681   9.174 -0.6096  0.2124  0.0108
  115OSM   H17S12048   1.633   6.709   9.232 -0.5528  0.4180  0.0001
  115OSM   H17T12049   1.693   6.581   9.137 -0.1232  0.7455 -1.9738
  115OSM   C18S12050   1.728   6.780   9.054  0.2329 -0.1279 -0.3802
  115OSM   H18S12051   1.637   6.769   8.991  0.9293  1.6439 -1.7838
  115OSM   H18T12052   1.814   6.762   8.986  0.5570  3.1462 -0.9779
  115OSM   H18U12053   1.740   6.879   9.103 -0.3933 -0.1358 -0.2089
  115OSM    C1F12054   1.435   6.314  10.658  0.7330 -0.1124  0.3225
  115OSM     OF12055   1.372   6.417  10.665 -0.1265  0.3187  0.1397
  115OSM    C2F12056   1.370   6.185  10.611  0.1745  0.0794  0.2744
  115OSM    H2F12057   1.268   6.188  10.655 -0.3491  0.1652 -0.9186
  115OSM    H2G12058   1.431   6.099  10.646 -0.8956 -0.7849  0.0610
  115OSM    C3F12059   1.347   6.163  10.462  0.9710  0.3052  0.8550
  115OSM    H3F12060   1.259   6.220  10.425  1.4167 -0.0551 -0.8216
  115OSM    H3G12061   1.333   6.054  10.448 -0.0555  0.3014  1.7558
  115OSM    C4F12062   1.462   6.204  10.366  0.0246 -0.4719 -0.5028
  115OSM    H4F12063   1.550   6.139  10.386 -0.1323 -1.3394 -2.4415
  115OSM    H4G12064   1.489   6.311  10.381  2.1117 -0.7906 -1.5896
  115OSM    C5F12065   1.420   6.190  10.218  0.0306  0.1394 -0.0919
  115OSM    H5F12066   1.329   6.251  10.201 -0.0272 -0.4580 -2.2813
  115OSM    H5G12067   1.385   6.084  10.212 -2.8883  0.9717  0.6248
  115OSM    C6F12068   1.529   6.211  10.113 -0.5058 -0.3670  0.2038
  115OSM    H6F12069   1.617   6.148  10.142  1.4727  1.3460 -1.7101
  115OSM    H6G12070   1.567   6.314  10.127  0.5417 -0.4489 -1.6402
  115OSM    C7F12071   1.479   6.198   9.973 -0.0926 -0.0448  0.8011
  115OSM    H7F12072   1.384   6.250   9.950  0.2039  0.8558  1.5521
  115OSM    H7G12073   1.461   6.089   9.958  0.3476 -0.7201  4.1585
  115OSM    C8F12074   1.591   6.245   9.868  0.8928  0.0192 -0.9187
  115OSM    H8F12075   1.686   6.200   9.904 -0.0947 -1.0467  0.4737
  115OSM    H8G12076   1.588   6.353   9.889 -0.1745  0.0426 -1.1491
  115OSM    C9F12077   1.548   6.216   9.725  0.2555  0.4558  0.7903
  115OSM    H9F12078   1.439   6.212   9.712  0.1878  1.1978  1.0592
  115OSM   C10F12079   1.629   6.190   9.617 -0.4651 -0.4990 -0.0316
  115OSM   H10F12080   1.581   6.165   9.522  1.8716 -0.6151 -1.2450
  115OSM   C11F12081   1.783   6.196   9.616 -1.5573  0.0935  1.0390
  115OSM   H11F12082   1.826   6.164   9.713 -2.2749 -3.2314  0.3797
  115OSM   H11G12083   1.827   6.293   9.584 -1.0327 -0.4741 -0.0076
  115OSM   C12F12084   1.837   6.094   9.512 -0.5651  0.1633  0.5896
  115OSM   H12F12085   1.786   5.999   9.536  2.1533 -0.9633  2.3507
  115OSM   H12G12086   1.947   6.080   9.517 -0.2888  2.0496  0.5147
  115OSM   C13F12087   1.814   6.134   9.363 -0.4648 -0.0270 -0.2568
  115OSM   H13F12088   1.705   6.126   9.342 -0.5224  0.2691 -0.0798
  115OSM   H13G12089   1.856   6.053   9.300 -0.8341 -0.8836  0.5663
  115OSM   C14F12090   1.869   6.272   9.324 -0.1544 -0.0330  0.3413
  115OSM   H14F12091   1.979   6.282   9.337 -0.0295  1.4712 -1.4544
  115OSM   H14G12092   1.830   6.359   9.381 -0.7622  0.8600 -1.3693
  115OSM   C15F12093   1.852   6.312   9.175 -0.4207  0.1981 -0.0466
  115OSM   H15F12094   1.903   6.232   9.117  0.1012  0.1287  0.4909
  115OSM   H15G12095   1.887   6.414   9.149 -0.4716  0.6352  1.5118
  115OSM   C16F12096   1.706   6.314   9.138  0.8921  0.6571 -0.0887
  115OSM   H16F12097   1.646   6.376   9.208  1.1222 -1.3243  2.0182
  115OSM   H16G12098   1.669   6.211   9.155 -0.6067  0.9499 -1.3838
  115OSM   C17F12099   1.667   6.345   8.987 -0.6118  0.0930  0.3762
  115OSM   H17F12100   1.722   6.285   8.912  0.0311  2.1220 -0.8606
  115OSM   H17G12101   1.698   6.451   8.976  0.5403 -0.3059 -0.4032
  115OSM   C18F12102   1.517   6.335   8.933 -0.4758 -0.1506 -0.0405
  115OSM   H18F12103   1.484   6.230   8.949  1.3865 -1.1677 -2.3803
  115OSM   H18G12104   1.527   6.356   8.825  1.2386 -2.2406 -0.3514
  115OSM   H18H12105   1.446   6.407   8.980 -0.6179 -0.4781  0.2516
  116OSM      N12106   3.505   4.235  11.109 -0.1257  0.3219  0.0744
  116OSM    C1512107   3.631   4.225  11.195  0.8128 -0.6874 -0.5154
  116OSM   H15A12108   3.714   4.241  11.128  0.4805 -1.4237 -1.1176
  116OSM   H15B12109   3.648   4.128  11.239  0.8782  0.8082  3.1136
  116OSM   H15C12110   3.630   4.304  11.268  2.4871 -0.5319 -0.6146
  116OSM    C1412111   3.520   4.136  10.997 -0.2537 -0.2257 -0.3835
  116OSM   H14A12112   3.520   4.035  11.036 -0.5315  0.1347  0.5726
  116OSM   H14B12113   3.603   4.165  10.933 -2.2920  0.5497 -2.8455
  116OSM   H14C12114   3.432   4.137  10.934 -0.3117  2.2692 -0.3821
  116OSM    C1312115   3.382   4.198  11.194  0.3165  0.6109 -0.8493
  116OSM   H13A12116   3.385   4.097  11.231 -1.0129  0.1420 -1.9328
  116OSM   H13B12117   3.291   4.210  11.137  0.3584 -0.4892 -1.1700
  116OSM   H13C12118   3.363   4.263  11.278  1.0817 -0.4622  0.1764
  116OSM    C1212119   3.499   4.385  11.060  0.2861 -0.0664 -0.6550
  116OSM   H12A12120   3.505   4.450  11.146 -1.4695  0.4211 -0.8691
  116OSM   H12B12121   3.405   4.402  11.011  1.2142  1.0352 -2.1316
  116OSM    C1112122   3.602   4.439  10.955 -0.7773 -0.0634  0.0520
  116OSM   H11A12123   3.566   4.537  10.919  0.1574  0.0888 -0.5009
  116OSM   H11B12124   3.606   4.378  10.862  0.2071  1.6855 -1.1112
  116OSM      P12125   3.858   4.407  10.960 -0.1642  0.3549 -0.3237
  116OSM    O1312126   3.973   4.426  11.051  0.4258 -0.6130  0.2369
  116OSM    O1412127   3.830   4.269  10.913  0.2939  0.4646 -0.3707
  116OSM    O1112128   3.865   4.496  10.839  0.0294  0.2564  0.9912
  116OSM    O1212129   3.726   4.465  11.022  0.2466  0.6042 -0.2191
  116OSM    C1S12130   3.989   4.527  10.773 -0.0829  0.0589  0.0121
  116OSM    H1S12131   4.065   4.452  10.800 -0.7374 -0.7148 -0.2486
  116OSM    H1T12132   4.032   4.624  10.807 -0.4203  0.1953  0.0612
  116OSM     NF12133   4.073   4.528  10.534  0.0923 -0.5534  0.2825
  116OSM    HNF12134   4.077   4.596  10.461  0.2046 -1.4234 -0.5493
  116OSM    C2S12135   3.951   4.536  10.618  0.4814 -0.0876  0.0386
  116OSM    H2S12136   3.890   4.444  10.604 -0.2912  0.3120  0.6789
  116OSM    C3S12137   3.857   4.649  10.572  0.1000 -0.0094 -0.3468
  116OSM    H3S12138   3.909   4.747  10.571  0.2414 -0.0429  1.4056
  116OSM     O312139   3.738   4.652  10.652 -0.4127 -0.3080 -0.0621
  116OSM    HO312140   3.764   4.607  10.732 -0.3256  1.5999  1.0324
  116OSM    C4S12141   3.825   4.630  10.425 -0.4807  0.3333 -0.7894
  116OSM    H4S12142   3.872   4.704  10.358  0.2479  1.4076  0.8384
  116OSM    C5S12143   3.737   4.551  10.367  0.1579 -0.1705 -0.3392
  116OSM    H5S12144   3.676   4.489  10.435 -0.1349  0.9132  0.4221
  116OSM    C6S12145   3.701   4.543  10.220 -0.7520 -0.4324 -0.6040
  116OSM    H6S12146   3.787   4.556  10.151  0.7709 -0.1448  1.2616
  116OSM    H6T12147   3.623   4.616  10.188 -1.0580  0.2759  1.5724
  116OSM    C7S12148   3.639   4.405  10.199 -0.1795  1.1307 -0.2091
  116OSM    H7S12149   3.556   4.402  10.273 -0.3760  0.1159 -0.4518
  116OSM    H7T12150   3.703   4.321  10.235 -0.1966  0.8712 -0.7706
  116OSM    C8S12151   3.600   4.385  10.045  0.0855  0.1249 -0.3411
  116OSM    H8S12152   3.617   4.280  10.015  1.5592  0.0441  0.6747
  116OSM    H8T12153   3.663   4.443   9.975 -1.2368  1.7581 -0.2371
  116OSM    C9S12154   3.455   4.425  10.032  0.4379 -0.0717  1.0222
  116OSM    H9S12155   3.443   4.535  10.048  1.7243  0.0660  1.2305
  116OSM    H9T12156   3.395   4.365  10.103 -0.1175  0.5181  1.0668
  116OSM   C10S12157   3.405   4.387   9.892 -0.7642  0.3811 -0.5925
  116OSM   H10S12158   3.295   4.373   9.890 -0.9883  1.6336  0.8574
  116OSM   H10T12159   3.444   4.286   9.868 -0.3966  0.4918 -0.4799
  116OSM   C11S12160   3.442   4.483   9.778 -0.5949  0.5798  1.4239
  116OSM   H11S12161   3.553   4.478   9.771 -0.7069 -4.7084 -0.5282
  116OSM   H11T12162   3.425   4.590   9.803 -1.4517  1.2827 -1.7344
  116OSM   C12S12163   3.388   4.436   9.640  0.6660  0.5111 -0.4851
  116OSM   H12S12164   3.278   4.450   9.639  0.5591 -0.2879 -0.5374
  116OSM   H12T12165   3.390   4.325   9.645 -1.7802  0.4318  0.3148
  116OSM   C13S12166   3.451   4.504   9.519  0.5398 -1.1197 -0.2022
  116OSM   H13S12167   3.557   4.470   9.519  1.3819  1.2660 -0.4777
  116OSM   H13T12168   3.445   4.615   9.517  0.0646 -1.1108  1.2800
  116OSM   C14S12169   3.402   4.454   9.379  0.2442  0.1908  0.5494
  116OSM   H14S12170   3.292   4.463   9.372  0.2546 -0.1343 -0.1209
  116OSM   H14T12171   3.432   4.347   9.377  4.6220  1.1985  0.4928
  116OSM   C15S12172   3.441   4.517   9.247 -1.0257 -0.0522  0.0678
  116OSM   H15S12173   3.458   4.626   9.261  1.0128 -0.4555  1.1492
  116OSM   H15T12174   3.371   4.499   9.162  0.3019 -0.9355 -0.8858
  116OSM   C16S12175   3.575   4.464   9.201 -0.1485  0.1332 -0.3901
  116OSM   H16S12176   3.563   4.371   9.140 -1.8522 -0.4986  0.8318
  116OSM   H16T12177   3.637   4.438   9.289  1.4628  1.7158 -0.9912
  116OSM   C17S12178   3.665   4.558   9.119  0.2450 -0.1371  0.2429
  116OSM   H17S12179   3.685   4.646   9.183 -2.1062  1.4902 -1.1002
  116OSM   H17T12180   3.607   4.593   9.031  2.1090  0.8085 -0.6505
  116OSM   C18S12181   3.790   4.492   9.065  0.6807 -0.5196 -0.1369
  116OSM   H18S12182   3.757   4.399   9.014 -0.5795 -1.4786  2.2691
  116OSM   H18T12183   3.867   4.464   9.141  1.6059  1.3800 -0.3158
  116OSM   H18U12184   3.843   4.561   8.996  1.1413 -0.0147  0.6969
  116OSM    C1F12185   4.156   4.420  10.535 -0.3864 -0.1801 -0.1121
  116OSM     OF12186   4.112   4.313  10.580 -0.0429 -0.2810 -0.0358
  116OSM    C2F12187   4.283   4.442  10.465 -0.0731 -0.1486  0.1498
  116OSM    H2F12188   4.369   4.438  10.536 -0.1194 -0.6951  0.1784
  116OSM    H2G12189   4.285   4.547  10.428  0.3745 -0.6409 -1.2895
  116OSM    C3F12190   4.303   4.331  10.350  0.4435  0.6849 -0.7106
  116OSM    H3F12191   4.289   4.228  10.388 -1.3082  0.4665 -1.8296
  116OSM    H3G12192   4.405   4.336  10.308  0.3402  0.8603 -0.9470
  116OSM    C4F12193   4.214   4.370  10.218 -0.3286 -0.0448  0.5405
  116OSM    H4F12194   4.268   4.457  10.174 -0.9349 -1.1363 -2.6472
  116OSM    H4G12195   4.120   4.408  10.263 -0.6433  0.1531 -0.2609
  116OSM    C5F12196   4.194   4.256  10.119 -0.9411  0.0210 -0.1397
  116OSM    H5F12197   4.173   4.162  10.175 -1.0349 -0.0622 -0.3118
  116OSM    H5G12198   4.287   4.246  10.059  0.0075  0.3943  1.2385
  116OSM    C6F12199   4.085   4.277  10.015 -0.5783 -0.5758  0.0766
  116OSM    H6F12200   3.990   4.285  10.071 -0.4331 -0.3642  0.2975
  116OSM    H6G12201   4.081   4.190   9.946 -0.2740 -0.7085  0.2224
  116OSM    C7F12202   4.078   4.402   9.931 -0.6526  0.2197 -0.0434
  116OSM    H7F12203   4.076   4.488  10.000 -0.1095 -0.5312  0.9325
  116OSM    H7G12204   3.979   4.407   9.880 -0.7036 -1.0788 -0.1115
  116OSM    C8F12205   4.188   4.424   9.836 -0.1383 -0.3255 -0.3803
  116OSM    H8F12206   4.286   4.429   9.889  0.5279  2.8352 -1.6497
  116OSM    H8G12207   4.172   4.531   9.809  1.8265  0.1007  0.0186
  116OSM    C9F12208   4.196   4.334   9.716 -0.2883  0.1134 -0.7700
  116OSM    H9F12209   4.197   4.224   9.726 -2.0244  0.0839 -0.6089
  116OSM   C10F12210   4.194   4.380   9.588  0.4804 -0.0490  0.2397
  116OSM   H10F12211   4.215   4.306   9.509  2.7071  1.2457 -0.4770
  116OSM   C11F12212   4.185   4.520   9.529 -0.0786  0.0789 -0.0346
  116OSM   H11F12213   4.278   4.538   9.472  1.1053 -1.5256  1.3058
  116OSM   H11G12214   4.180   4.605   9.601  0.9300 -0.1439  0.3117
  116OSM   C12F12215   4.064   4.543   9.437 -0.6911 -0.0809 -0.2922
  116OSM   H12F12216   3.976   4.588   9.486 -2.0960 -0.6413 -2.1946
  116OSM   H12G12217   4.030   4.445   9.398  1.3312 -1.3809  0.9756
  116OSM   C13F12218   4.094   4.638   9.318  0.1411  0.2364  0.0336
  116OSM   H13F12219   4.137   4.733   9.357  1.3484  0.0029 -0.6538
  116OSM   H13G12220   3.992   4.659   9.281  0.6962  3.4594 -0.0267
  116OSM   C14F12221   4.187   4.576   9.213 -0.5139 -0.3818  0.5152
  116OSM   H14F12222   4.138   4.485   9.174 -3.0770  1.7358 -1.5627
  116OSM   H14G12223   4.280   4.548   9.268  0.4741  3.6530  1.2787
  116OSM   C15F12224   4.212   4.663   9.089 -0.3487  0.5390  1.0520
  116OSM   H15F12225   4.255   4.761   9.120  0.0129  0.5468  0.5424
  116OSM   H15G12226   4.110   4.686   9.053 -0.8993  0.4022  2.4737
  116OSM   C16F12227   4.284   4.589   8.983 -0.7126 -0.0462  0.5861
  116OSM   H16F12228   4.250   4.484   8.976 -1.2155  0.1272  0.3861
  116OSM   H16G12229   4.390   4.592   9.016 -0.5672  0.5412  0.0900
  116OSM   C17F12230   4.256   4.638   8.838 -0.9813 -0.5063 -0.5865
  116OSM   H17F12231   4.146   4.634   8.825 -0.9893  0.2663 -0.8038
  116OSM   H17G12232   4.302   4.547   8.794  1.5576 -2.7776  5.6988
  116OSM   C18F12233   4.306   4.774   8.796  0.1345  0.0176  0.0527
  116OSM   H18F12234   4.415   4.776   8.816 -0.0142  1.7109  0.8639
  116OSM   H18G12235   4.258   4.859   8.850  0.9000  0.5948 -0.1426
  116OSM   H18H12236   4.296   4.789   8.686 -1.0630 -1.5662 -0.0809
  117OSM      N12237   0.826   3.855  11.297  0.2258  0.8427 -0.3367
  117OSM    C1512238   0.795   3.718  11.233 -0.4007  0.1974  0.3795
  117OSM   H15A12239   0.738   3.725  11.142 -0.5238 -1.2035  0.3301
  117OSM   H15B12240   0.747   3.647  11.298  0.1491  0.8029  1.4880
  117OSM   H15C12241   0.888   3.666  11.213  0.9162  2.0646  1.2361
  117OSM    C1412242   0.690   3.908  11.308 -0.3104  0.0512 -0.4212
  117OSM   H14A12243   0.669   3.909  11.202  1.7791 -2.5024 -0.9634
  117OSM   H14B12244   0.696   4.006  11.353  0.6353 -0.7649  1.3489
  117OSM   H14C12245   0.620   3.846  11.363  0.8049  0.1238  1.1495
  117OSM    C1312246   0.901   3.839  11.426  0.2593  0.4562 -0.1875
  117OSM   H13A12247   0.928   3.936  11.466  1.2340  0.0774  0.0826
  117OSM   H13B12248   0.979   3.765  11.425 -1.5247 -1.4894 -0.8564
  117OSM   H13C12249   0.835   3.788  11.494 -1.7822  0.4710 -2.0198
  117OSM    C1212250   0.899   3.947  11.204 -0.6179  0.0104 -0.0053
  117OSM   H12A12251   1.006   3.933  11.201 -0.8108 -1.6025 -2.2217
  117OSM   H12B12252   0.876   4.043  11.248 -0.6761 -0.3301  0.7099
  117OSM    C1112253   0.849   3.954  11.058 -0.0671  0.6276  0.7998
  117OSM   H11A12254   0.841   3.850  11.022  1.0494  1.8696 -3.5786
  117OSM   H11B12255   0.940   3.997  11.011  0.9076 -1.5023  0.6475
  117OSM      P12256   0.743   4.182  11.001  0.2681  0.1091 -0.1093
  117OSM    O1312257   0.613   4.238  10.958  0.1843  0.6554 -0.1056
  117OSM    O1412258   0.801   4.244  11.119  0.2201 -0.1272 -0.5958
  117OSM    O1112259   0.854   4.186  10.882 -0.3384  0.1238 -0.0301
  117OSM    O1212260   0.729   4.020  11.036  0.0225 -0.1404  0.4614
  117OSM    C1S12261   0.827   4.101  10.764  0.2595  0.0854  0.4263
  117OSM    H1S12262   0.726   4.112  10.720  0.6687 -2.3496 -1.4108
  117OSM    H1T12263   0.836   3.994  10.792  0.8583  0.4752  1.7851
  117OSM     NF12264   0.887   4.036  10.533  0.4986  0.0129  0.0629
  117OSM    HNF12265   0.916   3.941  10.525 -2.4267 -1.1451  1.6485
  117OSM    C2S12266   0.931   4.117  10.643  0.1536 -0.3791  0.1585
  117OSM    H2S12267   0.937   4.227  10.624  2.7831 -0.2300  1.3781
  117OSM    C3S12268   1.079   4.095  10.699  0.5830  0.4173  0.0994
  117OSM    H3S12269   1.083   3.986  10.722 -0.8425  1.0165  3.9036
  117OSM     O312270   1.115   4.164  10.816  0.0450 -0.5591 -0.1799
  117OSM    HO312271   1.029   4.195  10.845  0.1948  0.3644 -0.6668
  117OSM    C4S12272   1.186   4.123  10.599  0.3110  0.2108  0.3757
  117OSM    H4S12273   1.212   4.230  10.598 -0.3070  0.3774  1.0432
  117OSM    C5S12274   1.254   4.039  10.528 -0.3632 -0.5656 -0.7024
  117OSM    H5S12275   1.234   3.932  10.542 -0.9272 -0.5121 -1.0793
  117OSM    C6S12276   1.359   4.084  10.420  1.0299  0.0378  0.6528
  117OSM    H6S12277   1.460   4.044  10.443  0.6019 -2.8016 -1.7976
  117OSM    H6T12278   1.372   4.194  10.405  2.2019 -0.2949 -1.0630
  117OSM    C7S12279   1.311   4.010  10.289 -1.0424 -0.9102  0.0209
  117OSM    H7S12280   1.209   4.042  10.258 -0.9763 -2.3152 -1.8246
  117OSM    H7T12281   1.318   3.902  10.311 -3.0617 -0.6944  2.1433
  117OSM    C8S12282   1.415   4.054  10.176  0.6627  0.0682 -0.0599
  117OSM    H8S12283   1.513   4.010  10.201 -0.4246 -2.9945 -0.6978
  117OSM    H8T12284   1.421   4.165  10.174  2.4334  0.0417  1.3726
  117OSM    C9S12285   1.357   3.984  10.050  0.5640  0.5072  0.3223
  117OSM    H9S12286   1.249   4.003  10.032  0.1176  0.9966  3.1559
  117OSM    H9T12287   1.367   3.875  10.065 -0.0893  0.3489 -0.3067
  117OSM   C10S12288   1.439   4.025   9.927 -0.8618 -0.8377  1.0304
  117OSM   H10S12289   1.549   4.035   9.940 -0.6507  0.6304 -1.2555
  117OSM   H10T12290   1.404   4.128   9.906  2.1779  0.0167 -0.2921
  117OSM   C11S12291   1.403   3.937   9.806  0.9918  0.6237 -0.6025
  117OSM   H11S12292   1.292   3.940   9.802  0.9035 -0.2349  0.8664
  117OSM   H11T12293   1.427   3.832   9.829 -1.7098 -0.2423 -1.3692
  117OSM   C12S12294   1.466   3.977   9.674 -0.5604  0.3648  0.5963
  117OSM   H12S12295   1.577   3.979   9.679 -0.5634  0.8090  0.5083
  117OSM   H12T12296   1.452   4.087   9.664  0.3212  0.3185 -1.7517
  117OSM   C13S12297   1.412   3.892   9.556 -0.1946 -0.7506  0.5283
  117OSM   H13S12298   1.303   3.902   9.538 -0.0418 -0.8626 -0.5088
  117OSM   H13T12299   1.431   3.783   9.568  0.8008 -0.5921  0.4959
  117OSM   C14S12300   1.471   3.932   9.418  0.6243 -0.1421 -0.2222
  117OSM   H14S12301   1.442   3.860   9.338 -1.1544 -0.6069  0.7849
  117OSM   H14T12302   1.580   3.918   9.428  0.3528 -1.2128  1.8307
  117OSM   C15S12303   1.454   4.078   9.390 -0.1008 -0.5477  1.0416
  117OSM   H15S12304   1.512   4.132   9.468  1.1618  1.1714 -0.9862
  117OSM   H15T12305   1.351   4.119   9.400 -0.5632 -1.3545 -0.2389
  117OSM   C16S12306   1.523   4.117   9.253  0.1201 -0.0298 -0.2451
  117OSM   H16S12307   1.616   4.056   9.249  0.0454 -0.0978 -0.9617
  117OSM   H16T12308   1.540   4.226   9.255  1.9325 -0.0968 -3.9165
  117OSM   C17S12309   1.440   4.081   9.133 -0.1356  0.0855  0.7425
  117OSM   H17S12310   1.353   4.151   9.135 -0.5934 -0.4890  1.4695
  117OSM   H17T12311   1.385   3.985   9.146  0.7357 -0.2495  2.1543
  117OSM   C18S12312   1.501   4.095   8.989 -0.3500  0.6958 -0.5078
  117OSM   H18S12313   1.553   4.003   8.955 -0.8230  0.5488 -0.8267
  117OSM   H18T12314   1.571   4.181   8.980 -1.4763  1.7202  0.1476
  117OSM   H18U12315   1.422   4.112   8.914 -0.3861 -0.0828 -0.6528
  117OSM    C1F12316   0.785   4.075  10.457  0.6442  0.3139 -1.0073
  117OSM     OF12317   0.730   4.183  10.481 -0.0310  0.9962  0.2691
  117OSM    C2F12318   0.742   3.993  10.338 -0.1769  0.3473  0.2834
  117OSM    H2F12319   0.706   4.059  10.256 -0.3973  0.3384  0.3735
  117OSM    H2G12320   0.663   3.920  10.365 -0.8949  0.5203 -1.2332
  117OSM    C3F12321   0.863   3.909  10.279  0.2896  0.1627  0.4134
  117OSM    H3F12322   0.868   3.813  10.335 -0.0246  0.1130  0.3571
  117OSM    H3G12323   0.959   3.962  10.297 -0.3309  1.4208  0.1584
  117OSM    C4F12324   0.834   3.863  10.129  0.7566  0.1875  0.2188
  117OSM    H4F12325   0.830   3.953  10.063 -0.4206 -0.0026  0.0098
  117OSM    H4G12326   0.732   3.819  10.129  1.5966 -2.0476 -2.8674
  117OSM    C5F12327   0.928   3.759  10.078 -0.8161 -0.5033 -0.4803
  117OSM    H5F12328   0.925   3.668  10.141  3.9563  0.1706  1.1000
  117OSM    H5G12329   1.028   3.804  10.095 -0.6851 -1.3166  1.0187
  117OSM    C6F12330   0.904   3.721   9.938  0.6334 -0.2257  0.3786
  117OSM    H6F12331   0.802   3.679   9.926 -0.0088  0.4915  2.8380
  117OSM    H6G12332   0.973   3.634   9.925  0.9249 -0.4360  2.7589
  117OSM    C7F12333   0.928   3.839   9.844  0.4568 -0.2141  0.5752
  117OSM    H7F12334   1.003   3.907   9.891  2.0206 -2.7859  2.0424
  117OSM    H7G12335   0.831   3.891   9.836 -0.6248 -2.4036 -2.7181
  117OSM    C8F12336   0.957   3.806   9.695 -0.2774 -0.7701  0.2394
  117OSM    H8F12337   1.057   3.758   9.689 -0.5019 -1.0825 -1.9569
  117OSM    H8G12338   0.977   3.902   9.644  0.3486 -1.1816 -0.3252
  117OSM    C9F12339   0.852   3.735   9.630 -0.0869  0.0296 -0.0176
  117OSM    H9F12340   0.751   3.756   9.668  0.1864 -2.1067  2.0771
  117OSM   C10F12341   0.861   3.647   9.525  0.2024  0.0648  0.1897
  117OSM   H10F12342   0.769   3.600   9.488 -0.2305  0.7600  0.3568
  117OSM   C11F12343   0.993   3.613   9.465  0.1617 -0.1015  0.2457
  117OSM   H11F12344   1.004   3.509   9.426 -1.6886 -0.1234 -0.3219
  117OSM   H11G12345   1.077   3.638   9.533  1.0447  1.0478 -1.2244
  117OSM   C12F12346   1.019   3.711   9.346 -1.0036 -0.1596 -0.4408
  117OSM   H12F12347   1.048   3.808   9.393  0.6330  0.3575 -2.3603
  117OSM   H12G12348   0.926   3.727   9.288 -0.9638  0.4972 -0.3342
  117OSM   C13F12349   1.131   3.671   9.256 -0.2440  0.2673  0.3578
  117OSM   H13F12350   1.105   3.566   9.230 -0.0047 -0.2257  2.0418
  117OSM   H13G12351   1.231   3.685   9.302  0.5668 -0.4760 -1.0775
  117OSM   C14F12352   1.116   3.753   9.126 -0.0951 -0.4741 -0.9685
  117OSM   H14F12353   1.105   3.862   9.145 -3.0067 -0.8736  0.1776
  117OSM   H14G12354   1.034   3.717   9.060 -2.0535  1.5667  0.2238
  117OSM   C15F12355   1.238   3.732   9.038 -0.1612 -0.3743  0.4668
  117OSM   H15F12356   1.254   3.623   9.028 -1.1805 -0.4187 -1.0184
  117OSM   H15G12357   1.330   3.765   9.092  1.4237 -3.0108 -0.4567
  117OSM   C16F12358   1.228   3.787   8.893  0.7297 -0.1782  0.2475
  117OSM   H16F12359   1.202   3.895   8.897  0.7084 -0.1487 -0.5184
  117OSM   H16G12360   1.137   3.745   8.845 -0.1436  0.2809  1.4295
  117OSM   C17F12361   1.350   3.762   8.806  0.3781 -0.1161 -0.1413
  117OSM   H17F12362   1.354   3.652   8.794  0.5052  0.0725 -2.0900
  117OSM   H17G12363   1.445   3.790   8.857  0.3913  1.3705 -0.9002
  117OSM   C18F12364   1.351   3.827   8.665 -0.9065 -0.3231 -0.1330
  117OSM   H18F12365   1.268   3.779   8.608 -1.6747  0.8984 -0.0669
  117OSM   H18G12366   1.442   3.798   8.607 -0.4128  0.8741  0.0170
  117OSM   H18H12367   1.344   3.937   8.663 -0.3373 -0.2593  0.7272
  118OSM      N12368   2.387   5.622  11.142  0.0859  0.3821 -0.1648
  118OSM    C1512369   2.447   5.760  11.156  0.0928  0.8973 -0.2340
  118OSM   H15A12370   2.553   5.755  11.136  0.1701 -2.5130  0.4298
  118OSM   H15B12371   2.421   5.803  11.252 -0.5742 -1.7794  0.8779
  118OSM   H15C12372   2.403   5.825  11.081 -0.5558  1.6996  0.8103
  118OSM    C1412373   2.248   5.623  11.179  0.3858  0.5143 -0.6074
  118OSM   H14A12374   2.223   5.678  11.268  1.3938 -0.3141  0.2029
  118OSM   H14B12375   2.206   5.526  11.200 -0.4369  0.9374 -0.2585
  118OSM   H14C12376   2.195   5.666  11.095 -0.1502  1.8875  0.3891
  118OSM    C1312377   2.401   5.560  11.002  0.2908  0.0608 -0.6537
  118OSM   H13A12378   2.506   5.549  10.983  1.2236  2.4030  2.4741
  118OSM   H13B12379   2.354   5.621  10.926 -1.9723 -2.4229 -1.4497
  118OSM   H13C12380   2.365   5.459  10.987  3.3333 -1.2680  0.2907
  118OSM    C1212381   2.464   5.532  11.239 -0.3397 -0.4992  0.0437
  118OSM   H12A12382   2.424   5.433  11.223  1.2448 -1.7909  3.2019
  118OSM   H12B12383   2.431   5.560  11.338 -1.1084  0.7936 -0.5640
  118OSM    C1112384   2.617   5.533  11.227  0.1520 -0.2276  0.3817
  118OSM   H11A12385   2.658   5.474  11.312 -1.1538 -0.3755  0.9278
  118OSM   H11B12386   2.648   5.638  11.245 -0.8181  0.2108 -0.3601
  118OSM      P12387   2.789   5.545  11.041 -0.4258  0.0660  0.0459
  118OSM    O1312388   2.788   5.689  11.045 -0.2328 -0.4296  0.2343
  118OSM    O1412389   2.899   5.480  11.116  0.7228  0.8164  0.8133
  118OSM    O1112390   2.794   5.506  10.884  0.4672  0.4419  0.2163
  118OSM    O1212391   2.654   5.485  11.100 -0.1925 -0.1479  0.1625
  118OSM    C1S12392   2.682   5.538  10.807  0.4661 -0.0016  0.4834
  118OSM    H1S12393   2.633   5.632  10.841 -0.7803 -0.2994 -0.4275
  118OSM    H1T12394   2.612   5.452  10.802  1.3463 -0.7660  0.8711
  118OSM     NF12395   2.591   5.584  10.596  0.1135  0.3290  0.0780
  118OSM    HNF12396   2.534   5.504  10.579  1.4222 -0.3894 -1.1467
  118OSM    C2S12397   2.718   5.565  10.658 -0.1405  0.3632 -0.0129
  118OSM    H2S12398   2.783   5.655  10.663  1.4264 -0.6780 -0.9243
  118OSM    C3S12399   2.806   5.449  10.606  0.1978 -0.1149  0.5235
  118OSM    H3S12400   2.739   5.361  10.593  1.4212 -1.2581  1.5557
  118OSM     O312401   2.913   5.395  10.687  0.4384 -0.1189  0.4749
  118OSM    HO312402   2.898   5.439  10.772  1.1660 -0.1634  0.6351
  118OSM    C4S12403   2.846   5.485  10.463  0.0117  0.2225 -0.5566
  118OSM    H4S12404   2.766   5.490  10.387  0.3104 -0.7331 -0.9583
  118OSM    C5S12405   2.968   5.509  10.417 -0.7734 -0.1504  0.8256
  118OSM    H5S12406   3.055   5.500  10.483  1.0764 -1.1043 -1.6059
  118OSM    C6S12407   3.000   5.546  10.275 -0.5039 -0.1429 -0.0984
  118OSM    H6S12408   3.049   5.458  10.228 -1.4931 -0.5999 -0.2963
  118OSM    H6T12409   3.063   5.637  10.284  1.2108 -1.2201 -0.8553
  118OSM    C7S12410   2.882   5.595  10.189  0.0732 -0.4532  0.7299
  118OSM    H7S12411   2.813   5.673  10.229 -0.6197  0.2556 -1.7039
  118OSM    H7T12412   2.825   5.501  10.171  0.6325 -1.0290  1.8763
  118OSM    C8S12413   2.926   5.648  10.049  0.3244  0.3845 -0.5141
  118OSM    H8S12414   3.006   5.583  10.008  1.1303  1.7388 -1.1827
  118OSM    H8T12415   2.978   5.745  10.063  1.2062 -0.2366  0.7230
  118OSM    C9S12416   2.815   5.648   9.935 -0.1653 -0.1847 -0.6472
  118OSM    H9S12417   2.721   5.692   9.975 -0.7996 -2.5713  0.6471
  118OSM    H9T12418   2.795   5.543   9.905 -4.3245  0.3469 -0.3203
  118OSM   C10S12419   2.866   5.717   9.804 -0.3822  0.6063 -0.1095
  118OSM   H10S12420   2.940   5.655   9.749 -1.3620  0.1694 -0.9749
  118OSM   H10T12421   2.914   5.814   9.827 -0.5748  0.4094  1.1999
  118OSM   C11S12422   2.749   5.739   9.715  0.4854 -0.9237  0.5375
  118OSM   H11S12423   2.673   5.808   9.758 -2.3103 -2.0638 -2.1589
  118OSM   H11T12424   2.691   5.644   9.704  0.5134 -0.9861  0.9162
  118OSM   C12S12425   2.783   5.798   9.578 -1.0396  0.7225 -0.0538
  118OSM   H12S12426   2.833   5.720   9.518 -0.8315 -1.5748  2.8447
  118OSM   H12T12427   2.859   5.879   9.578 -0.7497  0.4497  0.0946
  118OSM   C13S12428   2.656   5.831   9.501 -0.1882  0.1785 -0.1013
  118OSM   H13S12429   2.599   5.918   9.540 -0.6119  0.3149 -1.0017
  118OSM   H13T12430   2.590   5.741   9.503  1.3183 -0.9390  1.4331
  118OSM   C14S12431   2.693   5.872   9.363 -0.8596 -0.3980 -0.8109
  118OSM   H14S12432   2.733   5.786   9.307  0.2259  0.2912 -1.1216
  118OSM   H14T12433   2.765   5.956   9.371 -1.1678 -0.1892 -0.0195
  118OSM   C15S12434   2.572   5.926   9.284 -0.1312 -0.0586 -0.7050
  118OSM   H15S12435   2.524   6.014   9.333  0.9216  0.5104 -0.6723
  118OSM   H15T12436   2.497   5.844   9.289  1.3221 -1.5200 -1.7685
  118OSM   C16S12437   2.599   5.953   9.137  0.1322  0.4231 -0.0243
  118OSM   H16S12438   2.676   6.032   9.122 -1.4577  1.8257 -1.0734
  118OSM   H16T12439   2.503   5.994   9.100  0.0289  0.9476  0.8140
  118OSM   C17S12440   2.642   5.835   9.060  0.4398 -0.7372  0.1061
  118OSM   H17S12441   2.751   5.816   9.073  0.8446  1.0656 -0.3144
  118OSM   H17T12442   2.618   5.858   8.954 -1.9745 -2.1040  0.2885
  118OSM   C18S12443   2.559   5.702   9.072 -0.3461 -0.9179 -0.8033
  118OSM   H18S12444   2.617   5.626   9.017  1.8707  1.1542 -1.5302
  118OSM   H18T12445   2.456   5.714   9.031 -0.6217 -1.0502 -0.1665
  118OSM   H18U12446   2.556   5.676   9.180  2.5987 -1.7447 -0.8501
  118OSM    C1F12447   2.537   5.710  10.598  0.0761 -0.2472 -0.3074
  118OSM     OF12448   2.609   5.801  10.634  0.2194  0.2253 -0.4897
  118OSM    C2F12449   2.389   5.734  10.554  0.4673  0.4710 -0.3365
  118OSM    H2F12450   2.333   5.784  10.635  2.1254  2.5919 -0.4156
  118OSM    H2G12451   2.332   5.641  10.532 -1.5975  2.1291 -2.4330
  118OSM    C3F12452   2.385   5.829  10.438 -0.3363 -0.2860 -0.1220
  118OSM    H3F12453   2.441   5.922  10.457 -1.3792  0.0418  1.5288
  118OSM    H3G12454   2.278   5.860  10.432 -0.7119 -1.6159 -1.0317
  118OSM    C4F12455   2.428   5.757  10.313 -0.0246  0.1811 -0.4307
  118OSM    H4F12456   2.502   5.675  10.326 -0.4387  0.1526  2.2511
  118OSM    H4G12457   2.474   5.829  10.242  0.5009 -0.8331 -1.1431
  118OSM    C5F12458   2.313   5.684  10.232 -0.1227 -0.7941  0.3375
  118OSM    H5F12459   2.234   5.757  10.205  0.9296  0.3260  0.1950
  118OSM    H5G12460   2.272   5.610  10.305 -1.7639 -1.3729 -1.0870
  118OSM    C6F12461   2.360   5.596  10.112 -0.3547  0.1015  0.0430
  118OSM    H6F12462   2.273   5.531  10.089  0.5681 -1.5887  1.0805
  118OSM    H6G12463   2.439   5.529  10.153  0.7661 -0.3010 -2.5767
  118OSM    C7F12464   2.411   5.686   9.998  0.5103 -0.6435  0.5223
  118OSM    H7F12465   2.515   5.716  10.022  0.8259 -0.0470 -1.4563
  118OSM    H7G12466   2.353   5.781  10.006  1.2266 -0.2942  1.9624
  118OSM    C8F12467   2.413   5.617   9.862 -0.4010 -0.1758  0.3264
  118OSM    H8F12468   2.440   5.682   9.776 -0.9764 -0.1948  0.1310
  118OSM    H8G12469   2.311   5.579   9.843  0.0348 -2.5782  2.2997
  118OSM    C9F12470   2.504   5.495   9.873  0.2345 -0.4657  0.0843
  118OSM    H9F12471   2.590   5.510   9.939 -0.1521  0.9765  0.2835
  118OSM   C10F12472   2.502   5.391   9.791  0.1287  0.9439  0.1616
  118OSM   H10F12473   2.574   5.308   9.803 -0.3421  0.7205  1.5893
  118OSM   C11F12474   2.406   5.374   9.673  0.7469 -0.4658 -1.3859
  118OSM   H11F12475   2.314   5.433   9.692  1.0621 -0.7709  1.7316
  118OSM   H11G12476   2.368   5.271   9.691  3.8053 -1.3964  0.6203
  118OSM   C12F12477   2.466   5.412   9.539 -0.0557  0.3934  0.3019
  118OSM   H12F12478   2.556   5.353   9.514  1.3028  0.7057  3.8507
  118OSM   H12G12479   2.487   5.520   9.552 -0.7573  0.5166  0.4730
  118OSM   C13F12480   2.362   5.387   9.429  0.4772  0.3477  0.6512
  118OSM   H13F12481   2.276   5.452   9.457  1.3313  1.3997  0.8773
  118OSM   H13G12482   2.331   5.282   9.414  0.1975  0.8327 -3.2592
  118OSM   C14F12483   2.409   5.442   9.285 -0.1548  0.2192 -0.7696
  118OSM   H14F12484   2.493   5.379   9.248  0.8894  1.1835 -0.1130
  118OSM   H14G12485   2.428   5.550   9.302 -0.6243 -0.1676  2.9506
  118OSM   C15F12486   2.304   5.422   9.174  0.1660 -0.2203 -0.3769
  118OSM   H15F12487   2.315   5.481   9.081 -2.9474  1.9592  0.4410
  118OSM   H15G12488   2.207   5.464   9.209  0.1711 -0.4225 -0.1103
  118OSM   C16F12489   2.276   5.279   9.146 -0.8170 -0.0012  0.1171
  118OSM   H16F12490   2.235   5.234   9.239  2.2777 -0.9777  1.1367
  118OSM   H16G12491   2.367   5.218   9.125 -0.4478  0.8356 -0.8233
  118OSM   C17F12492   2.190   5.253   9.024  0.5084 -0.1346  0.2404
  118OSM   H17F12493   2.100   5.318   9.026 -0.4006 -1.3540 -0.3610
  118OSM   H17G12494   2.158   5.147   9.024 -3.5346  0.9363 -0.2160
  118OSM   C18F12495   2.269   5.267   8.897 -0.2076 -0.1768 -0.2694
  118OSM   H18F12496   2.218   5.219   8.810  0.0645 -0.3951 -0.3115
  118OSM   H18G12497   2.371   5.226   8.910 -0.1031 -0.1694 -1.0155
  118OSM   H18H12498   2.286   5.375   8.884 -1.4790  0.2582  1.3495
  119OSM      N12499   2.734   4.061  11.148  0.1488 -0.0720  0.2128
  119OSM    C1512500   2.689   3.956  11.242 -0.5293 -0.0214  0.1860
  119OSM   H15A12501   2.774   3.901  11.281  0.0675 -0.5603 -1.7633
  119OSM   H15B12502   2.640   3.879  11.185  3.2728 -2.2617 -0.4053
  119OSM   H15C12503   2.625   4.003  11.315  0.0921  0.8269  0.2037
  119OSM    C1412504   2.612   4.135  11.093 -0.1544  0.4566  0.1658
  119OSM   H14A12505   2.565   4.061  11.029 -1.1562 -2.8280  4.2552
  119OSM   H14B12506   2.642   4.222  11.037  0.7305 -0.5206 -0.9538
  119OSM   H14C12507   2.545   4.158  11.174 -0.6554 -0.7980  0.1378
  119OSM    C1312508   2.820   4.158  11.229  0.3223 -0.1884 -0.2119
  119OSM   H13A12509   2.896   4.209  11.171  0.0636  1.8794  1.1616
  119OSM   H13B12510   2.854   4.108  11.318 -1.6009 -1.1638  0.0337
  119OSM   H13C12511   2.763   4.244  11.261  2.0827 -0.2756  3.7420
  119OSM    C1212512   2.811   4.006  11.029 -0.1575 -0.0409  1.0940
  119OSM   H12A12513   2.897   3.956  11.072 -1.1193 -0.1515  3.0412
  119OSM   H12B12514   2.855   4.089  10.976 -0.3393 -1.5358 -1.5465
  119OSM    C1112515   2.754   3.894  10.930  1.1894 -0.1409 -0.6969
  119OSM   H11A12516   2.755   3.797  10.985 -0.9707  0.3752  0.3386
  119OSM   H11B12517   2.819   3.885  10.840 -0.3128 -3.6085 -1.5943
  119OSM      P12518   2.507   3.821  10.915  0.0429  0.1153 -0.2286
  119OSM    O1312519   2.531   3.777  11.052  0.7566  0.2550  0.1200
  119OSM    O1412520   2.386   3.908  10.894  0.2806 -0.2017  0.2578
  119OSM    O1112521   2.524   3.706  10.809 -0.1489  0.4327  0.3225
  119OSM    O1212522   2.620   3.920  10.885  0.6482  0.0516 -0.1692
  119OSM    C1S12523   2.447   3.704  10.689  0.3361 -0.2848  0.3584
  119OSM    H1S12524   2.388   3.796  10.672 -0.1771 -0.9728 -1.9578
  119OSM    H1T12525   2.375   3.619  10.689  0.4360 -0.3748  0.0304
  119OSM     NF12526   2.456   3.713  10.447 -0.5982  0.3451  0.0583
  119OSM    HNF12527   2.466   3.630  10.393  2.5186  0.8940 -0.4002
  119OSM    C2S12528   2.537   3.699  10.563 -0.2713 -0.0854  0.0034
  119OSM    H2S12529   2.599   3.791  10.564 -1.7313  0.9378 -0.3005
  119OSM    C3S12530   2.644   3.582  10.562  0.1310  0.5667 -0.4603
  119OSM    H3S12531   2.582   3.492  10.582  2.2715 -0.7843  0.4577
  119OSM     O312532   2.732   3.599  10.675 -1.2663  0.4717 -0.0836
  119OSM    HO312533   2.678   3.655  10.731 -1.8153  0.8785 -0.9959
  119OSM    C4S12534   2.715   3.569  10.426  0.5795 -0.3601  0.0515
  119OSM    H4S12535   2.668   3.489  10.367  1.4061 -0.3682 -0.6168
  119OSM    C5S12536   2.824   3.640  10.392  0.0882 -0.6007 -0.2173
  119OSM    H5S12537   2.874   3.711  10.460  0.5523 -0.1380 -1.0370
  119OSM    C6S12538   2.897   3.622  10.263 -0.1195  0.5921 -0.0048
  119OSM    H6S12539   2.912   3.513  10.247 -1.6670  0.6465 -2.2020
  119OSM    H6T12540   2.994   3.675  10.271 -0.3707  1.1470 -0.5639
  119OSM    C7S12541   2.812   3.682  10.148 -0.4459 -0.0406 -0.1000
  119OSM    H7S12542   2.787   3.790  10.154 -2.8205 -0.4524 -1.3460
  119OSM    H7T12543   2.710   3.638  10.149 -1.8361  2.9707  0.4507
  119OSM    C8S12544   2.871   3.641  10.013 -0.0809 -0.2277 -0.0049
  119OSM    H8S12545   2.883   3.531  10.006  0.5891 -0.1187 -0.7016
  119OSM    H8T12546   2.975   3.680  10.014  0.7334 -2.2507  0.7767
  119OSM    C9S12547   2.796   3.696   9.891 -0.0050  0.4180 -0.0125
  119OSM    H9S12548   2.778   3.803   9.914  0.4799  0.7752 -1.2214
  119OSM    H9T12549   2.703   3.641   9.867 -0.7817 -0.0975  3.5748
  119OSM   C10S12550   2.898   3.694   9.776  0.3616 -0.2735 -0.1568
  119OSM   H10S12551   2.938   3.591   9.762 -0.2141 -0.8217  1.8849
  119OSM   H10T12552   2.987   3.754   9.805 -0.9787  1.3396  0.7729
  119OSM   C11S12553   2.851   3.737   9.636 -0.2666 -0.1963 -0.0407
  119OSM   H11S12554   2.815   3.842   9.637 -1.0068 -0.4264  2.2235
  119OSM   H11T12555   2.777   3.660   9.603 -2.2303  1.1893  0.9640
  119OSM   C12S12556   2.968   3.736   9.536 -0.7883  0.2417 -0.1977
  119OSM   H12S12557   3.029   3.644   9.552 -0.4694 -0.0719 -2.7526
  119OSM   H12T12558   3.034   3.825   9.540 -1.3741  0.8724 -2.5660
  119OSM   C13S12559   2.924   3.731   9.393 -0.0042 -0.0582 -0.2095
  119OSM   H13S12560   2.890   3.832   9.362  1.0015  0.2292 -0.4027
  119OSM   H13T12561   2.835   3.665   9.389 -0.3774  0.3671  0.6836
  119OSM   C14S12562   3.020   3.659   9.301 -0.2226 -0.2449  0.9009
  119OSM   H14S12563   3.029   3.553   9.333 -0.5624 -0.2751  0.9010
  119OSM   H14T12564   3.117   3.711   9.293  1.3541 -3.1053 -0.1879
  119OSM   C15S12565   2.963   3.651   9.154  0.2778  0.1893  0.6106
  119OSM   H15S12566   2.852   3.643   9.159  0.3033 -1.9605 -0.7382
  119OSM   H15T12567   2.991   3.557   9.101  1.4201  0.6876  0.2916
  119OSM   C16S12568   3.006   3.775   9.087 -0.0180 -0.1345 -0.1799
  119OSM   H16S12569   3.117   3.783   9.084 -0.0220 -0.1549 -0.4467
  119OSM   H16T12570   2.974   3.866   9.142  1.1083 -0.2434  0.6877
  119OSM   C17S12571   2.963   3.778   8.941 -0.6021 -0.0928  0.5592
  119OSM   H17S12572   2.860   3.738   8.929 -0.6115 -0.0240  0.4184
  119OSM   H17T12573   3.035   3.710   8.892 -0.8658 -0.8539  1.1881
  119OSM   C18S12574   2.965   3.909   8.871  0.2838  0.1284 -0.0260
  119OSM   H18S12575   2.981   3.904   8.761 -1.5855  1.9118 -0.4425
  119OSM   H18T12576   3.045   3.971   8.916  0.8158 -1.4857  1.2977
  119OSM   H18U12577   2.869   3.964   8.887 -0.3094 -0.5327 -1.1821
  119OSM    C1F12578   2.377   3.809  10.408  0.6250 -0.2458  0.2804
  119OSM     OF12579   2.352   3.909  10.475 -0.4303 -0.4104  0.1668
  119OSM    C2F12580   2.314   3.794  10.264 -0.1201 -0.1494  0.6111
  119OSM    H2F12581   2.214   3.746  10.270 -0.5075 -0.0790 -2.9363
  119OSM    H2G12582   2.376   3.726  10.202  1.2304  0.4760  1.2241
  119OSM    C3F12583   2.311   3.932  10.198 -0.3268 -0.4225  0.8382
  119OSM    H3F12584   2.262   3.995  10.275  2.6408  1.4419  1.3328
  119OSM    H3G12585   2.263   3.929  10.098  0.8411  1.8169  0.1541
  119OSM    C4F12586   2.451   3.989  10.171 -0.0684  0.3686  0.5554
  119OSM    H4F12587   2.488   3.904  10.110  0.2058 -0.5739  1.9950
  119OSM    H4G12588   2.517   3.989  10.261 -0.0057  0.0785  0.5083
  119OSM    C5F12589   2.452   4.133  10.109  0.5615  0.7273  0.1504
  119OSM    H5F12590   2.395   4.197  10.179  1.9208  0.8521  1.1938
  119OSM    H5G12591   2.410   4.131  10.006 -0.6775  1.5250  0.6141
  119OSM    C6F12592   2.600   4.175  10.095 -0.5652 -0.2816  0.8091
  119OSM    H6F12593   2.654   4.182  10.192  1.1835  1.4036 -0.2231
  119OSM    H6G12594   2.614   4.280  10.060  3.4115 -0.5141  1.3208
  119OSM    C7F12595   2.679   4.090  10.002 -0.6609 -0.4055  0.1476
  119OSM    H7F12596   2.621   4.068   9.910 -2.5124  0.5548  1.0227
  119OSM    H7G12597   2.701   3.992  10.049 -2.1886 -1.1554 -0.6211
  119OSM    C8F12598   2.818   4.159   9.979 -0.5685 -0.3233  0.5963
  119OSM    H8F12599   2.864   4.163  10.080  1.0154 -1.6582 -0.0160
  119OSM    H8G12600   2.806   4.258   9.932  0.8189 -1.1940 -1.7580
  119OSM    C9F12601   2.897   4.061   9.891  0.1680 -0.4722 -0.1154
  119OSM    H9F12602   2.912   3.967   9.945 -0.4484 -0.4015  0.1948
  119OSM   C10F12603   2.941   4.086   9.765  0.3031 -0.2689  0.2350
  119OSM   H10F12604   2.997   4.005   9.716 -0.5830 -0.5867 -0.2820
  119OSM   C11F12605   2.922   4.214   9.689  0.1333  0.4395  0.7203
  119OSM   H11F12606   3.017   4.271   9.686 -0.1740  0.9297 -0.0019
  119OSM   H11G12607   2.854   4.280   9.747 -0.0198 -0.0034  1.0557
  119OSM   C12F12608   2.871   4.202   9.545 -0.9461 -0.7723 -0.8175
  119OSM   H12F12609   2.927   4.132   9.479  0.6131 -0.1625 -0.1935
  119OSM   H12G12610   2.876   4.305   9.503  0.1784  0.1205  1.2979
  119OSM   C13F12611   2.727   4.154   9.548 -0.0466 -0.8551 -0.3177
  119OSM   H13F12612   2.657   4.239   9.565 -0.7303 -0.7741 -3.1001
  119OSM   H13G12613   2.713   4.075   9.626  1.6755 -2.3257 -1.4231
  119OSM   C14F12614   2.681   4.101   9.410  0.0345 -0.9314 -0.2089
  119OSM   H14F12615   2.583   4.049   9.421 -0.0131 -0.5233  1.6502
  119OSM   H14G12616   2.754   4.021   9.386 -0.8835 -1.5983 -0.8723
  119OSM   C15F12617   2.675   4.212   9.306 -0.3032  1.4562 -0.5261
  119OSM   H15F12618   2.779   4.240   9.280 -0.0992  1.0372 -0.1791
  119OSM   H15G12619   2.625   4.304   9.345 -3.1441 -0.8783  1.8240
  119OSM   C16F12620   2.613   4.175   9.173 -0.6847 -0.1346 -0.0896
  119OSM   H16F12621   2.627   4.269   9.115 -0.1100  0.0874  0.4022
  119OSM   H16G12622   2.510   4.145   9.201  0.1903 -0.2294  3.4250
  119OSM   C17F12623   2.693   4.066   9.103 -0.7827  0.3217 -0.3930
  119OSM   H17F12624   2.756   4.014   9.179 -0.6375  0.5053 -0.3854
  119OSM   H17G12625   2.764   4.123   9.039 -1.5545  0.7038 -0.9144
  119OSM   C18F12626   2.618   3.958   9.027  0.1117 -0.5116  0.4233
  119OSM   H18F12627   2.556   3.895   9.095 -2.0487  1.3366  0.3146
  119OSM   H18G12628   2.682   3.901   8.958 -2.4439 -1.2091 -1.5211
  119OSM   H18H12629   2.546   4.007   8.958 -4.5995 -3.4383  2.7042
  120OSM      N12630   2.783   1.577  10.946 -0.6753  0.4609 -0.1915
  120OSM    C1512631   2.759   1.635  10.809  0.3192 -0.1822 -0.1323
  120OSM   H15A12632   2.757   1.743  10.810  0.7001 -0.1668 -0.6139
  120OSM   H15B12633   2.659   1.609  10.776  0.0892 -0.7997  0.9975
  120OSM   H15C12634   2.825   1.593  10.735  0.4946  0.5055 -0.3707
  120OSM    C1412635   2.932   1.594  10.986  0.2420 -0.3949  0.3480
  120OSM   H14A12636   2.949   1.701  10.991  0.9871 -0.5126  0.3148
  120OSM   H14B12637   3.005   1.562  10.914 -0.6444  1.9721 -1.7741
  120OSM   H14C12638   2.955   1.544  11.079  2.1867 -0.5838 -0.1999
  120OSM    C1312639   2.688   1.639  11.046  0.4231  0.1766 -0.3194
  120OSM   H13A12640   2.586   1.630  11.013  0.7468  1.0717 -1.6746
  120OSM   H13B12641   2.712   1.744  11.051  0.3635  0.1395  1.9870
  120OSM   H13C12642   2.694   1.608  11.149 -2.5063 -0.3256 -0.2200
  120OSM    C1212643   2.748   1.431  10.935 -0.4385 -0.5405 -0.5828
  120OSM   H12A12644   2.641   1.417  10.945 -0.1808 -1.7262  0.8166
  120OSM   H12B12645   2.786   1.386  11.025  1.2654  1.1106 -0.4140
  120OSM    C1112646   2.815   1.346  10.826  0.0664 -0.8411  0.1280
  120OSM   H11A12647   2.813   1.238  10.855  0.4278 -0.6232  1.0213
  120OSM   H11B12648   2.924   1.370  10.829  0.2095 -1.1486 -1.6687
  120OSM      P12649   2.622   1.323  10.658  0.0701  0.0714 -0.0869
  120OSM    O1312650   2.620   1.204  10.575 -0.3329  1.0047  0.5510
  120OSM    O1412651   2.546   1.312  10.784  0.3582 -0.4815  0.4022
  120OSM    O1112652   2.563   1.441  10.570  0.2872  0.1632 -0.4189
  120OSM    O1212653   2.764   1.380  10.695 -0.3035 -0.2346  0.1053
  120OSM    C1S12654   2.628   1.470  10.443  0.1397 -0.5916 -0.2188
  120OSM    H1S12655   2.738   1.480  10.452 -0.2404  1.8543  3.7834
  120OSM    H1T12656   2.593   1.572  10.415 -0.6825 -1.0629 -1.0029
  120OSM     NF12657   2.660   1.433  10.204  1.3260  0.8482  0.0255
  120OSM    HNF12658   2.601   1.469  10.131 -1.3800 -1.7307  0.7518
  120OSM    C2S12659   2.580   1.386  10.321 -0.0279 -0.4531  0.2193
  120OSM    H2S12660   2.607   1.281  10.347  0.5869 -0.5607 -0.8046
  120OSM    C3S12661   2.424   1.393  10.303  0.5996 -0.0653 -0.0059
  120OSM    H3S12662   2.399   1.494  10.264 -2.1069 -0.7521 -0.2592
  120OSM     O312663   2.333   1.390  10.416  0.9353  0.6827  0.5785
  120OSM    HO312664   2.399   1.403  10.484  0.9041 -0.6009  0.8842
  120OSM    C4S12665   2.398   1.291  10.195  0.4059 -0.6829  0.2633
  120OSM    H4S12666   2.428   1.320  10.093  0.7521  0.3142  0.6287
  120OSM    C5S12667   2.351   1.169  10.213  0.6547 -0.4483 -0.8201
  120OSM    H5S12668   2.326   1.140  10.316 -1.7041 -1.0437 -1.5007
  120OSM    C6S12669   2.322   1.054  10.116  0.1350  0.3797  0.3306
  120OSM    H6S12670   2.217   1.021  10.134 -0.2223  0.4495 -1.4202
  120OSM    H6T12671   2.382   0.965  10.145  0.6661  1.2486  2.0249
  120OSM    C7S12672   2.348   1.083   9.970 -0.8450  0.2702  0.0324
  120OSM    H7S12673   2.330   0.985   9.920  0.1779  0.6243 -1.0859
  120OSM    H7T12674   2.455   1.104   9.949 -0.8937 -1.0213 -1.7827
  120OSM    C8S12675   2.245   1.177   9.914 -0.0543 -0.1416  0.0814
  120OSM    H8S12676   2.272   1.277   9.954 -1.3683  0.7309 -1.1069
  120OSM    H8T12677   2.145   1.151   9.955 -1.1435  1.8349 -1.2030
  120OSM    C9S12678   2.236   1.159   9.762  0.5233 -0.2607 -0.6400
  120OSM    H9S12679   2.156   1.232   9.735 -0.5170 -0.5729  1.3890
  120OSM    H9T12680   2.186   1.063   9.737  1.0132 -0.5226 -0.6234
  120OSM   C10S12681   2.374   1.163   9.682  0.5458 -0.0834  0.1862
  120OSM   H10S12682   2.433   1.072   9.706 -1.7673 -1.6124  0.4139
  120OSM   H10T12683   2.433   1.253   9.708  2.3835 -0.9581 -0.7737
  120OSM   C11S12684   2.351   1.178   9.530 -0.2774 -0.8908  0.3317
  120OSM   H11S12685   2.256   1.235   9.529  0.7043  0.7935 -0.5352
  120OSM   H11T12686   2.331   1.076   9.491 -0.6453 -0.2257 -1.2647
  120OSM   C12S12687   2.459   1.255   9.458  0.3719  0.4393  0.8671
  120OSM   H12S12688   2.551   1.194   9.449 -0.2046 -0.2022 -1.1188
  120OSM   H12T12689   2.492   1.344   9.517  0.4281  0.3004  1.0443
  120OSM   C13S12690   2.429   1.285   9.312  0.5391  0.0555  0.6843
  120OSM   H13S12691   2.516   1.344   9.275  0.9181 -0.8620  0.0960
  120OSM   H13T12692   2.330   1.335   9.302  0.0972 -0.5513  1.9157
  120OSM   C14S12693   2.435   1.155   9.225 -0.1034 -0.4164 -0.8858
  120OSM   H14S12694   2.379   1.078   9.282 -0.8607  1.1986  0.6634
  120OSM   H14T12695   2.540   1.119   9.219  0.8949  1.8681  1.0043
  120OSM   C15S12696   2.366   1.180   9.088 -0.3665 -0.6951  0.1791
  120OSM   H15S12697   2.442   1.242   9.035 -1.2046  1.6795  1.5905
  120OSM   H15T12698   2.271   1.236   9.098  0.7691  1.0068  2.1417
  120OSM   C16S12699   2.338   1.051   9.012 -0.3385  0.4199  0.0826
  120OSM   H16S12700   2.264   0.981   9.055 -1.1607  0.1837 -1.6039
  120OSM   H16T12701   2.431   0.989   9.009 -0.6311 -0.0486  0.6226
  120OSM   C17S12702   2.309   1.066   8.860  0.2690 -0.4450 -0.6206
  120OSM   H17S12703   2.404   1.107   8.819  1.9639 -1.2225  2.2367
  120OSM   H17T12704   2.223   1.131   8.833  0.2123 -0.4510 -0.4569
  120OSM   C18S12705   2.276   0.930   8.788 -0.3276 -0.0165 -0.1020
  120OSM   H18S12706   2.288   0.948   8.679  0.3523 -1.9912 -0.3978
  120OSM   H18T12707   2.172   0.898   8.810 -0.5588  0.2475 -0.7841
  120OSM   H18U12708   2.348   0.847   8.806  1.8042  1.6086 -0.7398
  120OSM    C1F12709   2.790   1.420  10.203  0.2826  1.0411 -0.6550
  120OSM     OF12710   2.834   1.333  10.280  0.2545  0.0353  0.2553
  120OSM    C2F12711   2.860   1.493  10.100 -0.7330 -0.2721 -0.1733
  120OSM    H2F12712   2.855   1.603  10.116  0.5960 -0.6744  4.5617
  120OSM    H2G12713   2.821   1.473   9.998  0.2968  3.9730 -1.6070
  120OSM    C3F12714   3.014   1.467  10.102 -0.0350 -0.4354  0.2485
  120OSM    H3F12715   3.031   1.357  10.099  1.5988 -0.2269  0.8270
  120OSM    H3G12716   3.069   1.515  10.185  0.6673 -0.2870 -0.2911
  120OSM    C4F12717   3.084   1.523   9.974 -0.6707  0.1760  0.3096
  120OSM    H4F12718   3.060   1.455   9.890  0.9992  0.4737 -0.4446
  120OSM    H4G12719   3.191   1.512  10.002 -0.5536 -0.2730 -0.2936
  120OSM    C5F12720   3.059   1.670   9.938  0.2065 -0.7423 -0.9113
  120OSM    H5F12721   3.070   1.732  10.029 -0.1412  0.4788 -1.6758
  120OSM    H5G12722   2.953   1.689   9.909 -0.6586  1.5937  2.9679
  120OSM    C6F12723   3.152   1.725   9.826  0.2974  0.3928 -0.2293
  120OSM    H6F12724   3.257   1.691   9.839  0.0460 -0.6073 -0.7429
  120OSM    H6G12725   3.150   1.836   9.824  0.9615  0.4013 -1.1271
  120OSM    C7F12726   3.115   1.681   9.689 -0.7324  0.3778  0.4024
  120OSM    H7F12727   3.007   1.705   9.674 -0.7712  0.0771  0.1717
  120OSM    H7G12728   3.133   1.572   9.676 -0.1343  0.4156  0.8779
  120OSM    C8F12729   3.189   1.768   9.582  0.0528  0.3338  0.4658
  120OSM    H8F12730   3.287   1.800   9.623  0.8478  0.0529 -1.1635
  120OSM    H8G12731   3.120   1.855   9.579 -1.0399 -0.4887  1.0388
  120OSM    C9F12732   3.204   1.679   9.463  0.0029 -0.6357  0.5140
  120OSM    H9F12733   3.161   1.579   9.475  0.5646 -0.8345  0.9161
  120OSM   C10F12734   3.259   1.708   9.347 -0.2639  0.7817  0.2883
  120OSM   H10F12735   3.274   1.626   9.276  0.9731  1.1779  0.0860
  120OSM   C11F12736   3.310   1.842   9.300 -0.2377 -0.0106 -0.9090
  120OSM   H11F12737   3.420   1.838   9.312 -0.3874 -0.0543  0.6330
  120OSM   H11G12738   3.269   1.928   9.357  0.5845  0.6014 -1.2160
  120OSM   C12F12739   3.290   1.864   9.144  0.4772 -0.3567 -0.4944
  120OSM   H12F12740   3.344   1.784   9.088  3.1687  0.7958  0.3114
  120OSM   H12G12741   3.324   1.967   9.123 -2.5234  0.4976 -1.7308
  120OSM   C13F12742   3.142   1.852   9.101 -0.3561  0.9663  0.0310
  120OSM   H13F12743   3.077   1.930   9.147  0.0804  2.3137 -1.5187
  120OSM   H13G12744   3.110   1.746   9.109 -0.5443  0.9856 -0.4073
  120OSM   C14F12745   3.129   1.885   8.944  0.0750  0.4323 -0.3991
  120OSM   H14F12746   3.189   1.810   8.887  0.8310 -0.0849  1.0264
  120OSM   H14G12747   3.176   1.985   8.934 -0.7861  0.7957 -0.9031
  120OSM   C15F12748   2.987   1.869   8.902 -0.5872  0.1044  0.9287
  120OSM   H15F12749   2.925   1.951   8.944 -0.7528  0.1242  0.6529
  120OSM   H15G12750   2.941   1.774   8.933  0.6437 -0.2176  1.8330
  120OSM   C16F12751   2.977   1.864   8.744 -0.6286  0.4235 -0.0963
  120OSM   H16F12752   3.045   1.781   8.718  0.1818  0.0350  2.9340
  120OSM   H16G12753   3.008   1.959   8.695  0.8389  0.3983  0.7416
  120OSM   C17F12754   2.840   1.819   8.689  0.6273  0.0223 -0.2883
  120OSM   H17F12755   2.766   1.887   8.737 -0.7843 -1.8721  0.3042
  120OSM   H17G12756   2.832   1.712   8.716  0.7299 -0.3528 -1.6567
  120OSM   C18F12757   2.829   1.837   8.539  0.5906  0.0116  0.1690
  120OSM   H18F12758   2.728   1.798   8.514  1.1695 -0.4525 -1.5852
  120OSM   H18G12759   2.902   1.769   8.490 -1.1286 -0.6822 -1.5550
  120OSM   H18H12760   2.838   1.943   8.508  1.1939 -0.1854 -0.3562
  121OSM      N12761   2.134   3.920  11.246  0.3190  0.5389 -0.1432
  121OSM    C1512762   2.245   3.860  11.171 -0.2218  0.6278  0.2751
  121OSM   H15A12763   2.338   3.910  11.193  1.6933 -3.0456  1.3088
  121OSM   H15B12764   2.224   3.872  11.066 -0.4756  2.3482  0.4893
  121OSM   H15C12765   2.267   3.756  11.187  2.5071  0.8897 -1.2301
  121OSM    C1412766   2.008   3.854  11.190 -0.5101 -0.7967  0.4120
  121OSM   H14A12767   2.013   3.861  11.082  0.7330  3.6030  0.5664
  121OSM   H14B12768   1.917   3.896  11.230 -1.5471 -0.4447 -2.1196
  121OSM   H14C12769   2.009   3.748  11.211  2.4589 -0.4670  2.5067
  121OSM    C1312770   2.139   3.885  11.396 -0.1006  0.4815 -0.2231
  121OSM   H13A12771   2.167   3.787  11.433 -1.6173 -0.1509 -0.6525
  121OSM   H13B12772   2.039   3.903  11.433  0.5831  0.3406  1.8396
  121OSM   H13C12773   2.213   3.954  11.433 -0.2087  1.4465 -1.7568
  121OSM    C1212774   2.117   4.069  11.225  0.0250 -0.1463 -0.7249
  121OSM   H12A12775   2.091   4.093  11.124  2.1206 -1.9192 -1.7745
  121OSM   H12B12776   2.209   4.120  11.250 -1.5940  2.5289  0.1990
  121OSM    C1112777   1.998   4.138  11.307  0.5701  0.4728  0.6956
  121OSM   H11A12778   1.987   4.246  11.283 -1.5332  0.8870  3.0003
  121OSM   H11B12779   2.034   4.131  11.412  1.0009 -2.2649  0.4284
  121OSM      P12780   1.735   4.119  11.266 -0.0152  0.2439 -0.1042
  121OSM    O1312781   1.629   4.028  11.297 -0.8702  0.5818  0.2090
  121OSM    O1412782   1.718   4.260  11.316 -0.1500 -0.2397 -0.0437
  121OSM    O1112783   1.737   4.135  11.114 -0.1075 -0.4073 -0.2955
  121OSM    O1212784   1.875   4.067  11.310  0.7228 -0.1940  0.5049
  121OSM    C1S12785   1.725   4.028  11.011 -0.6159 -0.4508 -0.1368
  121OSM    H1S12786   1.617   4.009  10.998 -0.8081  1.2231 -1.3520
  121OSM    H1T12787   1.771   3.932  11.043 -0.0565 -0.6775 -1.5807
  121OSM     NF12788   1.765   3.960  10.788 -0.4204  0.3689  0.6114
  121OSM    HNF12789   1.837   3.892  10.782 -0.5832  0.3167 -1.3230
  121OSM    C2S12790   1.788   4.073  10.881 -0.0750 -0.2443  0.3617
  121OSM    H2S12791   1.741   4.164  10.837  1.2754  0.9369  1.2809
  121OSM    C3S12792   1.941   4.112  10.897 -0.7636  0.3917 -0.0634
  121OSM    H3S12793   1.994   4.028  10.946  0.1735  1.6160  1.0966
  121OSM     O312794   1.960   4.230  10.983 -0.0894 -0.3930  0.0004
  121OSM    HO312795   1.888   4.224  11.046 -1.0298 -2.3485 -1.1351
  121OSM    C4S12796   2.006   4.135  10.769  0.1837 -0.0493 -0.0349
  121OSM    H4S12797   2.093   4.072  10.746  1.2402  1.5338 -0.5378
  121OSM    C5S12798   1.969   4.222  10.675 -0.5787 -0.0627  0.2689
  121OSM    H5S12799   1.869   4.266  10.686 -1.0934 -1.0066 -0.4234
  121OSM    C6S12800   2.059   4.243  10.555  0.3631 -0.7385  0.3239
  121OSM    H6S12801   2.140   4.167  10.563  0.7533 -0.1825  1.9947
  121OSM    H6T12802   2.101   4.346  10.563 -0.5374  0.4882 -5.8203
  121OSM    C7S12803   1.976   4.236  10.423 -0.5412 -0.6250 -0.0575
  121OSM    H7S12804   1.901   4.316  10.441 -0.6341 -0.9003  0.7994
  121OSM    H7T12805   1.916   4.143  10.415  1.1976 -1.9011  1.0541
  121OSM    C8S12806   2.067   4.243  10.296  1.2116 -0.5287 -0.3511
  121OSM    H8S12807   2.155   4.176  10.303  0.9331 -1.0688 -1.8136
  121OSM    H8T12808   2.110   4.341  10.266 -3.1063  1.3402 -1.3295
  121OSM    C9S12809   1.987   4.186  10.185  0.8914  0.1783 -0.3025
  121OSM    H9S12810   1.895   4.245  10.165  0.8493  0.4101  0.5467
  121OSM    H9T12811   1.966   4.079  10.207  1.7054  0.4580  2.0455
  121OSM   C10S12812   2.070   4.191  10.058  0.0197  0.3673  0.3103
  121OSM   H10S12813   2.160   4.127  10.064 -1.0607 -1.1634  0.6799
  121OSM   H10T12814   2.108   4.295  10.051 -0.0358  0.4307  0.8892
  121OSM   C11S12815   1.992   4.163   9.930  0.6402  0.3708  0.2824
  121OSM   H11S12816   1.933   4.256   9.910 -0.0373  0.4016  2.2791
  121OSM   H11T12817   1.921   4.078   9.940  0.1425  0.4466 -2.0043
  121OSM   C12S12818   2.075   4.139   9.809  0.7573  0.0846  1.1222
  121OSM   H12S12819   2.104   4.228   9.748 -1.0413 -0.1940 -0.2217
  121OSM   H12T12820   2.006   4.092   9.735  1.1997 -0.0393  0.7840
  121OSM   C13S12821   2.193   4.037   9.811  0.2209 -0.2487 -0.7094
  121OSM   H13S12822   2.165   3.940   9.858 -0.1865  0.1310 -0.1488
  121OSM   H13T12823   2.272   4.075   9.880 -2.1045  0.5129  1.7168
  121OSM   C14S12824   2.260   4.021   9.676  0.0247  0.1346  0.2582
  121OSM   H14S12825   2.312   4.118   9.660 -2.0921  1.3998  0.5793
  121OSM   H14T12826   2.183   4.014   9.596  0.4748  1.3502 -0.3017
  121OSM   C15S12827   2.365   3.913   9.651 -0.1863 -0.4889 -0.1574
  121OSM   H15S12828   2.454   3.936   9.712 -1.2327 -1.0512  1.6602
  121OSM   H15T12829   2.390   3.919   9.543 -3.3179 -0.4642 -0.9773
  121OSM   C16S12830   2.344   3.766   9.684  0.2510 -0.4866 -0.1866
  121OSM   H16S12831   2.242   3.737   9.649 -0.3866 -0.0040  1.1740
  121OSM   H16T12832   2.352   3.762   9.795  1.7567 -1.0405 -0.2902
  121OSM   C17S12833   2.455   3.675   9.628 -0.3381 -0.0682 -0.3014
  121OSM   H17S12834   2.447   3.589   9.697 -4.8434  1.0597  0.9076
  121OSM   H17T12835   2.548   3.728   9.658 -0.8644  1.9245 -1.8935
  121OSM   C18S12836   2.457   3.647   9.481  0.3833  0.1615  0.4876
  121OSM   H18S12837   2.500   3.719   9.409 -0.6501  0.1670 -0.1587
  121OSM   H18T12838   2.349   3.640   9.452  0.3843 -0.9647  0.7163
  121OSM   H18U12839   2.510   3.551   9.460 -0.4997 -0.0705 -0.8621
  121OSM    C1F12840   1.652   3.967  10.711 -0.4129  0.8633 -0.0425
  121OSM     OF12841   1.553   4.032  10.739 -0.1720 -0.0266 -0.2889
  121OSM    C2F12842   1.645   3.868  10.602  0.0704  0.5108 -0.0051
  121OSM    H2F12843   1.577   3.907  10.523  1.2528 -0.0162 -1.3386
  121OSM    H2G12844   1.594   3.772  10.625 -1.4885  1.0123 -1.1449
  121OSM    C3F12845   1.775   3.843  10.519 -0.0105 -0.1462  0.9344
  121OSM    H3F12846   1.858   3.807  10.583  0.7298 -1.0963 -0.5075
  121OSM    H3G12847   1.814   3.943  10.487  0.7108 -0.7759 -0.2249
  121OSM    C4F12848   1.771   3.742  10.408  0.2500 -0.3797 -1.1427
  121OSM    H4F12849   1.713   3.651  10.434  3.5531 -2.7189 -1.3345
  121OSM    H4G12850   1.874   3.704  10.391  0.2866 -1.1566  0.5711
  121OSM    C5F12851   1.707   3.794  10.283  0.3559 -0.0280 -0.6569
  121OSM    H5F12852   1.747   3.894  10.258  0.1542  0.7865  2.0337
  121OSM    H5G12853   1.598   3.807  10.297 -0.0796 -2.1613 -1.6608
  121OSM    C6F12854   1.725   3.705  10.162 -0.1342  0.2691 -0.3121
  121OSM    H6F12855   1.671   3.609  10.172  1.2450 -0.3833  1.1977
  121OSM    H6G12856   1.831   3.674  10.168 -0.7682 -1.7012  2.0667
  121OSM    C7F12857   1.692   3.783  10.027  0.5619 -0.4124  0.6180
  121OSM    H7F12858   1.749   3.878  10.025 -2.8386  1.7698 -0.1554
  121OSM    H7G12859   1.590   3.827  10.026  0.2055 -1.0751 -2.3702
  121OSM    C8F12860   1.716   3.709   9.889  0.6931 -0.6381  0.0442
  121OSM    H8F12861   1.672   3.764   9.804 -1.6404 -1.4720  0.6418
  121OSM    H8G12862   1.669   3.609   9.900  0.1008 -0.3354  0.2680
  121OSM    C9F12863   1.864   3.677   9.878  0.1905 -0.4268  0.3348
  121OSM    H9F12864   1.930   3.681   9.966  0.8040  0.9348 -0.1582
  121OSM   C10F12865   1.937   3.675   9.767 -0.2347  0.1778  0.4391
  121OSM   H10F12866   2.046   3.660   9.768  0.2753  3.1841 -0.2382
  121OSM   C11F12867   1.888   3.698   9.629 -0.1460  0.7454  0.8446
  121OSM   H11F12868   1.778   3.689   9.618 -0.2471  1.9898  0.6571
  121OSM   H11G12869   1.926   3.616   9.565  0.6091 -0.7680  3.1137
  121OSM   C12F12870   1.928   3.829   9.554 -0.2618  0.6813 -0.6364
  121OSM   H12F12871   2.030   3.860   9.586 -0.3602  0.5500 -0.1868
  121OSM   H12G12872   1.856   3.905   9.590 -2.3021 -0.4391 -2.1441
  121OSM   C13F12873   1.916   3.818   9.403 -0.3076 -0.7117  0.2733
  121OSM   H13F12874   1.817   3.776   9.374  1.0675 -3.1918 -1.2084
  121OSM   H13G12875   1.990   3.740   9.374  1.1940  0.4110  0.9484
  121OSM   C14F12876   1.952   3.947   9.322 -0.7472 -0.3132 -0.3911
  121OSM   H14F12877   2.023   4.001   9.388  0.0339 -2.0321  0.2265
  121OSM   H14G12878   1.860   4.008   9.309 -1.2539 -1.6120 -4.0187
  121OSM   C15F12879   2.004   3.929   9.181 -0.4341 -0.4286  0.7964
  121OSM   H15F12880   2.032   4.030   9.143  0.5639 -0.9208  0.1781
  121OSM   H15G12881   1.921   3.885   9.122  0.4442 -1.4081  0.2585
  121OSM   C16F12882   2.123   3.834   9.160 -0.4859  0.6460 -0.2657
  121OSM   H16F12883   2.152   3.833   9.052  0.3186  2.0754 -0.0824
  121OSM   H16G12884   2.083   3.731   9.172  3.7245 -1.0526  0.8254
  121OSM   C17F12885   2.242   3.834   9.254 -0.1939 -0.0234  1.0322
  121OSM   H17F12886   2.290   3.737   9.230  0.0444  0.3439 -0.0247
  121OSM   H17G12887   2.210   3.827   9.360  1.7585 -0.9927  1.6098
  121OSM   C18F12888   2.330   3.959   9.243  0.9242  0.5667  0.5827
  121OSM   H18F12889   2.288   4.036   9.311  2.1247  2.1435 -0.4033
  121OSM   H18G12890   2.336   3.997   9.139  0.3018 -2.0461 -0.4801
  121OSM   H18H12891   2.431   3.944   9.287  0.6755  4.0843  2.7378
  122OSM      N12892   1.055   2.721  10.815 -0.4825 -0.0182 -1.2128
  122OSM    C1512893   0.983   2.678  10.692  0.6514  0.1988  0.2545
  122OSM   H15A12894   1.042   2.684  10.601  0.2388  0.2480 -0.0153
  122OSM   H15B12895   0.893   2.737  10.683 -0.0834 -1.1593 -2.4815
  122OSM   H15C12896   0.952   2.575  10.704  0.2854  0.3971  1.0442
  122OSM    C1412897   1.067   2.872  10.832  0.4218 -0.2933 -0.2024
  122OSM   H14A12898   1.103   2.891  10.932  0.9048 -0.1660 -0.3969
  122OSM   H14B12899   0.981   2.938  10.823  1.5581  1.1625 -0.8237
  122OSM   H14C12900   1.148   2.907  10.770  1.2036 -2.2779 -0.3582
  122OSM    C1312901   0.964   2.678  10.930  0.0643  0.8117  1.0280
  122OSM   H13A12902   1.009   2.697  11.026  2.0698  0.8353  0.1301
  122OSM   H13B12903   0.962   2.570  10.928  1.1082  0.7273 -2.4836
  122OSM   H13C12904   0.864   2.718  10.927  0.6590  2.3314 -0.6511
  122OSM    C1212905   1.195   2.651  10.836 -0.0474 -0.2981  0.1902
  122OSM   H12A12906   1.178   2.548  10.862  0.0300 -0.1926  0.6733
  122OSM   H12B12907   1.257   2.697  10.912 -0.4486  0.3610  0.1313
  122OSM    C1112908   1.283   2.649  10.713 -0.5282  0.3921  0.5610
  122OSM   H11A12909   1.227   2.633  10.618  0.6159  1.3871 -0.3190
  122OSM   H11B12910   1.361   2.571  10.726 -0.5969  0.5483  2.1206
  122OSM      P12911   1.474   2.824  10.757 -0.2538  0.3993  0.0674
  122OSM    O1312912   1.461   2.955  10.836 -0.8308  0.8813 -0.0479
  122OSM    O1412913   1.529   2.706  10.824  0.0551 -0.1313  0.4969
  122OSM    O1112914   1.566   2.862  10.637  0.1749 -0.0415  0.0642
  122OSM    O1212915   1.336   2.789  10.696 -1.2101  0.2227 -0.5583
  122OSM    C1S12916   1.597   2.762  10.545  0.2973 -0.4199  0.6132
  122OSM    H1S12917   1.578   2.658  10.580 -1.2732 -0.4599 -0.2701
  122OSM    H1T12918   1.705   2.786  10.529  0.3375  0.0131  1.4810
  122OSM     NF12919   1.572   2.672  10.319  0.2590  0.8828 -0.0393
  122OSM    HNF12920   1.643   2.691  10.252 -0.4821 -1.9604 -1.8176
  122OSM    C2S12921   1.529   2.780  10.408  0.6302 -0.4519  0.5907
  122OSM    H2S12922   1.419   2.767  10.416  0.6600 -0.1335  1.6250
  122OSM    C3S12923   1.563   2.927  10.358 -0.5611  0.1174 -0.4592
  122OSM    H3S12924   1.673   2.936  10.362 -0.5337 -0.4268  0.6286
  122OSM     O312925   1.515   3.042  10.433 -0.0520 -0.3923 -0.2845
  122OSM    HO312926   1.516   3.013  10.525 -0.6136 -0.3691 -0.2716
  122OSM    C4S12927   1.519   2.951  10.214 -0.0122  0.2245  0.8314
  122OSM    H4S12928   1.592   2.909  10.143  0.7778  0.4286  1.5002
  122OSM    C5S12929   1.394   2.993  10.172 -0.4862  0.4299  0.5291
  122OSM    H5S12930   1.321   3.009  10.253  1.0488 -2.9528  2.7789
  122OSM    C6S12931   1.342   3.007  10.031  0.3564 -0.0188  1.1594
  122OSM    H6S12932   1.321   3.116  10.018  1.3364 -0.1182 -2.0446
  122OSM    H6T12933   1.243   2.957  10.029  0.3227  0.0620 -0.5874
  122OSM    C7S12934   1.424   2.962   9.916 -0.4218 -0.0591 -0.5298
  122OSM    H7S12935   1.464   2.858   9.921  1.2641  0.6311  1.6344
  122OSM    H7T12936   1.517   3.022   9.920 -0.4465 -0.0617  3.0690
  122OSM    C8S12937   1.351   2.978   9.777  0.8725  0.7937 -0.4047
  122OSM    H8S12938   1.328   3.082   9.747  1.4027  0.6758 -1.2540
  122OSM    H8T12939   1.255   2.921   9.770  2.4535 -2.2741  1.2010
  122OSM    C9S12940   1.439   2.918   9.670  0.2227 -0.1327 -0.1935
  122OSM    H9S12941   1.468   2.813   9.694 -0.5066  0.1682  2.2875
  122OSM    H9T12942   1.530   2.980   9.655  0.0140 -0.0027 -0.9780
  122OSM   C10S12943   1.375   2.907   9.534  0.3595 -1.3272  0.7449
  122OSM   H10S12944   1.264   2.896   9.538 -0.2855  2.4571 -1.7904
  122OSM   H10T12945   1.427   2.825   9.480 -0.5809 -2.4228  1.4543
  122OSM   C11S12946   1.376   3.035   9.450  0.1741 -0.3383 -0.2000
  122OSM   H11S12947   1.482   3.058   9.427  0.7926 -2.7425  0.0153
  122OSM   H11T12948   1.323   3.117   9.504  2.0422  0.7172  0.1281
  122OSM   C12S12949   1.307   3.007   9.317 -0.1028  0.1287  0.8400
  122OSM   H12S12950   1.202   3.034   9.340  0.2973 -0.3130  3.4815
  122OSM   H12T12951   1.299   2.897   9.304  0.1342  0.2855 -0.8344
  122OSM   C13S12952   1.369   3.082   9.196  0.2751  0.8735 -0.2007
  122OSM   H13S12953   1.475   3.051   9.181  0.5806  1.8750 -0.2113
  122OSM   H13T12954   1.362   3.192   9.210  1.0558  0.7063  1.7432
  122OSM   C14S12955   1.296   3.055   9.065 -0.4005  0.5555 -0.1503
  122OSM   H14S12956   1.190   3.086   9.077  0.2227  2.8175 -0.0723
  122OSM   H14T12957   1.299   2.949   9.031  0.6675  0.3608  0.5300
  122OSM   C15S12958   1.342   3.144   8.947  0.3512 -0.1471  0.4557
  122OSM   H15S12959   1.449   3.128   8.926  0.2293 -0.1775 -0.1524
  122OSM   H15T12960   1.327   3.248   8.984 -1.5053 -0.9026  2.0111
  122OSM   C16S12961   1.251   3.115   8.832 -0.3176  0.2844 -0.4854
  122OSM   H16S12962   1.148   3.148   8.855 -0.9151 -2.4195  1.1507
  122OSM   H16T12963   1.245   3.006   8.809  1.7450  0.0019  0.0900
  122OSM   C17S12964   1.297   3.201   8.714 -0.4866  0.5510  0.5596
  122OSM   H17S12965   1.396   3.161   8.686  0.7144  4.5213 -1.7497
  122OSM   H17T12966   1.304   3.310   8.733 -0.8789  0.5595  0.6750
  122OSM   C18S12967   1.190   3.171   8.602 -0.3075 -0.1370  1.2001
  122OSM   H18S12968   1.223   3.216   8.506  0.4023 -0.8875  1.0773
  122OSM   H18T12969   1.087   3.203   8.626 -0.1866  0.2197  1.2555
  122OSM   H18U12970   1.187   3.062   8.581 -0.5991  0.1899 -0.6481
  122OSM    C1F12971   1.518   2.547  10.327 -0.5891  0.3526 -0.2272
  122OSM     OF12972   1.421   2.524  10.395  0.9139  0.7680  0.1993
  122OSM    C2F12973   1.592   2.447  10.253 -0.4561  0.3313 -0.2802
  122OSM    H2F12974   1.634   2.377  10.328  0.3329  0.5799 -0.4737
  122OSM    H2G12975   1.674   2.506  10.206 -0.9424  0.3430 -1.1409
  122OSM    C3F12976   1.526   2.349  10.157  0.3738  0.2167 -0.1487
  122OSM    H3F12977   1.456   2.282  10.210  0.3107  2.0499  2.2115
  122OSM    H3G12978   1.607   2.287  10.111  0.9293  1.3382 -0.7328
  122OSM    C4F12979   1.465   2.415  10.032  0.6863 -0.0048 -0.6397
  122OSM    H4F12980   1.536   2.476   9.972  0.6734 -2.3333 -3.1984
  122OSM    H4G12981   1.386   2.487  10.065  1.6070  2.0820 -2.7427
  122OSM    C5F12982   1.399   2.312   9.940 -0.3192  0.3901  0.0149
  122OSM    H5F12983   1.332   2.252  10.005 -0.4334  0.9070  0.3844
  122OSM    H5G12984   1.483   2.251   9.899  0.5048  0.9087  0.8915
  122OSM    C6F12985   1.317   2.383   9.827  0.3183 -0.1685 -0.5162
  122OSM    H6F12986   1.382   2.454   9.772  0.1763 -0.1422 -0.6504
  122OSM    H6G12987   1.235   2.443   9.872  0.1781 -0.3982 -0.4652
  122OSM    C7F12988   1.270   2.290   9.711 -0.2009 -0.3336  0.2268
  122OSM    H7F12989   1.193   2.344   9.652  1.2809  0.5134 -0.9991
  122OSM    H7G12990   1.220   2.197   9.748 -0.5471 -0.2634 -0.0592
  122OSM    C8F12991   1.388   2.269   9.614 -0.0979 -0.3892 -0.5858
  122OSM    H8F12992   1.480   2.241   9.668  2.1529  0.4951 -3.6782
  122OSM    H8G12993   1.410   2.368   9.570  2.1270  0.0619  1.3588
  122OSM    C9F12994   1.370   2.160   9.505  0.1023  0.5199  0.3298
  122OSM    H9F12995   1.400   2.062   9.545  0.2470  0.7609  0.8230
  122OSM   C10F12996   1.337   2.171   9.375  0.3052  0.2189 -0.4772
  122OSM   H10F12997   1.327   2.081   9.312  1.9067 -0.2725 -0.0613
  122OSM   C11F12998   1.302   2.310   9.325 -0.2927  0.5379 -0.3230
  122OSM   H11F12999   1.366   2.389   9.369 -0.0949 -0.1756  0.7025
  122OSM   H11G13000   1.198   2.336   9.355 -0.7538 -2.1863  0.7422
  122OSM   C12F13001   1.323   2.325   9.174  0.7180 -0.6615 -0.5030
  122OSM   H12F13002   1.431   2.314   9.152  1.0205 -0.9524  1.0114
  122OSM   H12G13003   1.298   2.433   9.157 -0.5355 -0.7647  0.4939
  122OSM   C13F13004   1.235   2.238   9.092 -0.0503  0.5757  0.5312
  122OSM   H13F13005   1.129   2.241   9.124  0.0040 -1.3178  0.9502
  122OSM   H13G13006   1.270   2.133   9.101  0.4287  0.3166 -2.7733
  122OSM   C14F13007   1.247   2.269   8.934  0.1144 -0.5187 -0.0232
  122OSM   H14F13008   1.233   2.379   8.920 -1.9684 -0.5832  1.1241
  122OSM   H14G13009   1.169   2.211   8.880 -1.7591 -0.3215  2.2818
  122OSM   C15F13010   1.379   2.219   8.875 -0.2403  0.1678 -0.5516
  122OSM   H15F13011   1.373   2.111   8.896  0.9287  0.2595  0.3828
  122OSM   H15G13012   1.466   2.256   8.934 -0.6346  1.6563 -0.8587
  122OSM   C16F13013   1.406   2.241   8.720 -0.2888 -0.0882 -0.1774
  122OSM   H16F13014   1.504   2.203   8.682 -0.4235 -0.5014 -0.1238
  122OSM   H16G13015   1.417   2.351   8.714 -2.0630  0.1588  0.4623
  122OSM   C17F13016   1.292   2.182   8.630  0.1191 -0.1989  0.0720
  122OSM   H17F13017   1.310   2.220   8.527 -0.7663 -0.7344 -0.2950
  122OSM   H17G13018   1.194   2.225   8.661  0.0389  0.3325 -0.8507
  122OSM   C18F13019   1.290   2.031   8.634 -0.3352  0.2577 -0.1220
  122OSM   H18F13020   1.393   1.993   8.617 -0.9190 -0.7500 -1.6410
  122OSM   H18G13021   1.226   1.983   8.557  0.5336 -0.6655 -0.2982
  122OSM   H18H13022   1.254   1.990   8.730  0.5761 -2.1522 -0.7193
  123OSM      N13023   3.341   1.514   5.755  0.0681  0.4362  0.0094
  123OSM    C1513024   3.209   1.570   5.723 -0.0909 -0.2761 -0.0924
  123OSM   H15A13025   3.160   1.524   5.638  0.2993  1.2319 -1.1743
  123OSM   H15B13026   3.218   1.676   5.708 -0.6675 -0.1315  0.5379
  123OSM   H15C13027   3.145   1.559   5.809 -1.7437  2.1970 -0.9054
  123OSM    C1413028   3.442   1.521   5.639  0.6626  0.8952  0.0504
  123OSM   H14A13029   3.423   1.449   5.561  4.2006  1.8063 -1.8562
  123OSM   H14B13030   3.543   1.499   5.669  0.6245 -1.5265 -1.3588
  123OSM   H14C13031   3.445   1.620   5.595  1.9469  0.7309 -0.2564
  123OSM    C1313032   3.394   1.600   5.857  0.2967  0.2836 -0.4875
  123OSM   H13A13033   3.494   1.581   5.894  0.2613 -1.0494 -1.0229
  123OSM   H13B13034   3.338   1.591   5.949 -1.8643 -1.5526 -1.8801
  123OSM   H13C13035   3.391   1.700   5.817  1.4570  0.7243  0.4543
  123OSM    C1213036   3.321   1.366   5.803 -0.4316 -0.7391 -0.0658
  123OSM   H12A13037   3.405   1.299   5.797 -0.5974 -1.0197  0.6474
  123OSM   H12B13038   3.257   1.319   5.729 -0.4528 -0.8404  0.0177
  123OSM    C1113039   3.248   1.347   5.938  0.1231  0.7756  0.1692
  123OSM   H11A13040   3.311   1.389   6.020 -1.3201  2.6091  0.3918
  123OSM   H11B13041   3.235   1.236   5.944 -3.3347  1.0924  0.3852
  123OSM      P13042   2.982   1.351   5.887 -0.2145  0.5009  0.2375
  123OSM    O1313043   2.916   1.455   5.806 -0.5060 -0.6510  0.0009
  123OSM    O1413044   3.005   1.217   5.821  0.3292 -0.2197 -0.3282
  123OSM    O1113045   2.885   1.311   6.015 -0.2864 -1.0957 -0.0548
  123OSM    O1213046   3.120   1.410   5.953  0.4369  0.1404  0.0576
  123OSM    C1S13047   2.851   1.426   6.112 -0.9540  0.4230  0.4056
  123OSM    H1S13048   2.751   1.468   6.089 -1.3125 -0.8768 -0.5330
  123OSM    H1T13049   2.925   1.508   6.101 -2.0122  1.3564  0.0056
  123OSM     NF13050   2.802   1.467   6.342  0.3749  0.4841  0.2863
  123OSM    HNF13051   2.875   1.529   6.370  0.7043  0.8066 -1.2116
  123OSM    C2S13052   2.865   1.372   6.257  0.4698 -0.1444 -0.2782
  123OSM    H2S13053   2.797   1.283   6.258 -2.8396  2.1580 -1.9955
  123OSM    C3S13054   3.010   1.321   6.287 -0.0753  0.3053  0.5932
  123OSM    H3S13055   3.080   1.404   6.261  1.2582 -1.1092 -0.4960
  123OSM     O313056   3.063   1.211   6.210  0.3173  0.4081 -0.1863
  123OSM    HO313057   3.005   1.202   6.134  0.6629  1.4988 -0.5955
  123OSM    C4S13058   3.028   1.300   6.438 -1.4078  0.2923  0.2753
  123OSM    H4S13059   3.089   1.379   6.484 -0.1230  0.5669 -1.7846
  123OSM    C5S13060   2.982   1.195   6.508  0.7743  0.2556 -0.0779
  123OSM    H5S13061   2.938   1.110   6.454  2.3188 -1.0253  0.6135
  123OSM    C6S13062   2.999   1.170   6.658  1.4584 -0.2542 -0.1168
  123OSM    H6S13063   3.065   1.082   6.673  3.4348  1.1622 -0.1350
  123OSM    H6T13064   2.897   1.146   6.696  1.5386 -0.1655  0.1539
  123OSM    C7S13065   3.034   1.287   6.747  0.5059 -0.1624 -0.0081
  123OSM    H7S13066   2.966   1.374   6.734 -2.6862 -2.7373 -2.0711
  123OSM    H7T13067   3.128   1.328   6.702 -1.3241  2.0859 -2.1172
  123OSM    C8S13068   3.052   1.249   6.895  0.1215  0.4230  0.3116
  123OSM    H8S13069   3.137   1.178   6.902 -0.0298  0.2066 -0.0093
  123OSM    H8T13070   2.960   1.192   6.917  0.4618  0.0729  0.8479
  123OSM    C9S13071   3.054   1.361   7.001 -0.0513  0.2143  0.6285
  123OSM    H9S13072   2.974   1.436   6.982 -0.4370 -0.4615 -0.5033
  123OSM    H9T13073   3.151   1.410   6.977  0.9583 -2.4123 -1.0522
  123OSM   C10S13074   3.029   1.311   7.141 -0.5859 -0.4067  0.0402
  123OSM   H10S13075   3.084   1.217   7.161  1.7702  1.0379  0.7463
  123OSM   H10T13076   2.922   1.282   7.151 -0.4712 -1.0221 -0.5158
  123OSM   C11S13077   3.068   1.415   7.249 -0.2684  0.5199  0.5501
  123OSM   H11S13078   2.997   1.499   7.232  0.2742  1.1490  1.3112
  123OSM   H11T13079   3.172   1.452   7.241  0.4633 -1.5813 -0.2980
  123OSM   C12S13080   3.028   1.346   7.385 -0.5386 -0.0354 -0.0362
  123OSM   H12S13081   3.094   1.256   7.386  0.9303  1.0011  0.7529
  123OSM   H12T13082   2.922   1.313   7.385 -0.4948 -0.1802 -0.0993
  123OSM   C13S13083   3.037   1.442   7.503 -0.2834 -0.2108  0.2587
  123OSM   H13S13084   2.961   1.522   7.491  0.8517  1.0141  0.9983
  123OSM   H13T13085   3.137   1.491   7.503 -0.8388  1.0041 -1.3749
  123OSM   C14S13086   3.013   1.368   7.639 -0.1414  0.2703  0.5035
  123OSM   H14S13087   3.078   1.279   7.626  1.6884  1.7381 -1.0306
  123OSM   H14T13088   2.912   1.323   7.653 -0.0453  0.3386  1.5071
  123OSM   C15S13089   3.049   1.450   7.759 -0.4229 -0.6456 -0.8339
  123OSM   H15S13090   3.003   1.550   7.749 -0.8776 -0.8279 -0.6132
  123OSM   H15T13091   3.159   1.465   7.758 -0.1849 -1.4917  2.1459
  123OSM   C16S13092   3.005   1.372   7.889  0.6115 -0.4008  0.1438
  123OSM   H16S13093   3.060   1.275   7.891  1.5304  0.0857 -0.5680
  123OSM   H16T13094   2.897   1.350   7.901  0.6459 -0.5613  0.1625
  123OSM   C17S13095   3.030   1.456   8.015  0.4658 -0.3479 -0.1258
  123OSM   H17S13096   2.948   1.531   8.010  0.1017 -0.5920  1.7925
  123OSM   H17T13097   3.123   1.516   8.007  0.1346 -0.0481 -2.8570
  123OSM   C18S13098   3.035   1.377   8.143 -0.6307  0.1591  0.0850
  123OSM   H18S13099   2.934   1.334   8.159 -0.4360  0.6008  3.0285
  123OSM   H18T13100   3.051   1.444   8.230 -0.9720  0.3660 -0.0101
  123OSM   H18U13101   3.115   1.300   8.142  0.4688  1.2619 -0.7922
  123OSM    C1F13102   2.666   1.484   6.358 -0.6137  0.5440 -0.2565
  123OSM     OF13103   2.595   1.409   6.298  0.3492 -0.2120 -0.4049
  123OSM    C2F13104   2.626   1.580   6.464 -0.3693 -0.4920 -0.4014
  123OSM    H2F13105   2.554   1.645   6.410  0.0398  0.5292  0.2572
  123OSM    H2G13106   2.712   1.640   6.499 -0.3953 -0.0512 -1.0677
  123OSM    C3F13107   2.556   1.506   6.581 -0.3130  0.1071 -0.1315
  123OSM    H3F13108   2.471   1.444   6.542 -0.7689  0.9916 -0.5679
  123OSM    H3G13109   2.527   1.583   6.655  1.4769 -1.1438  1.9657
  123OSM    C4F13110   2.651   1.406   6.652  0.4629 -0.0103  0.3518
  123OSM    H4F13111   2.734   1.467   6.692  0.8885 -1.0263  1.0817
  123OSM    H4G13112   2.700   1.339   6.578  0.0603  1.1730 -1.0313
  123OSM    C5F13113   2.586   1.332   6.767  0.0559 -0.3422  0.6228
  123OSM    H5F13114   2.669   1.265   6.799  1.3835  1.8903  2.1865
  123OSM    H5G13115   2.498   1.267   6.750  0.1041 -0.1078 -0.5961
  123OSM    C6F13116   2.565   1.431   6.884 -0.4829  0.0771  0.1842
  123OSM    H6F13117   2.456   1.452   6.899 -1.0719 -0.1174 -3.0287
  123OSM    H6G13118   2.607   1.531   6.863 -2.4084  0.8296 -0.3731
  123OSM    C7F13119   2.624   1.386   7.018 -0.0721 -0.3123  0.0140
  123OSM    H7F13120   2.733   1.369   7.012 -0.1917 -1.0110 -0.3182
  123OSM    H7G13121   2.574   1.288   7.033  1.3857 -1.2077 -0.7415
  123OSM    C8F13122   2.587   1.491   7.120 -0.1130 -0.2115 -0.3647
  123OSM    H8F13123   2.477   1.488   7.130 -0.1864 -0.8243 -1.2299
  123OSM    H8G13124   2.624   1.591   7.087  1.8522 -1.8048 -3.4731
  123OSM    C9F13125   2.653   1.455   7.251 -0.6861 -0.0328 -0.2210
  123OSM    H9F13126   2.724   1.372   7.247  0.1517  0.7010 -1.3644
  123OSM   C10F13127   2.630   1.521   7.366 -0.2909  0.5869 -0.2638
  123OSM   H10F13128   2.684   1.491   7.457 -1.1089 -1.4724 -0.3992
  123OSM   C11F13129   2.543   1.640   7.393  0.1026 -1.4385 -0.1067
  123OSM   H11F13130   2.494   1.685   7.303  1.3181 -0.9710 -0.5552
  123OSM   H11G13131   2.607   1.730   7.404  1.5752 -2.2899 -1.2137
  123OSM   C12F13132   2.434   1.630   7.502 -0.3305 -0.0133 -0.3855
  123OSM   H12F13133   2.385   1.533   7.478  1.6829 -2.1417  3.2550
  123OSM   H12G13134   2.358   1.710   7.495  0.6295  1.1331  1.5036
  123OSM   C13F13135   2.489   1.608   7.643 -0.0424  0.5722 -0.0218
  123OSM   H13F13136   2.584   1.664   7.654  1.0039 -1.3007  1.0254
  123OSM   H13G13137   2.502   1.499   7.661 -0.9296  0.0408 -2.2689
  123OSM   C14F13138   2.390   1.659   7.744 -0.4352  0.2130 -0.2418
  123OSM   H14F13139   2.301   1.595   7.725 -0.2248  0.1884 -1.1782
  123OSM   H14G13140   2.367   1.765   7.722 -0.0537  0.3074 -0.1927
  123OSM   C15F13141   2.438   1.667   7.891 -0.0903  0.3281 -0.1954
  123OSM   H15F13142   2.546   1.686   7.905 -0.4065 -0.0431  3.5232
  123OSM   H15G13143   2.428   1.567   7.937  2.1737 -0.3885 -1.1461
  123OSM   C16F13144   2.349   1.769   7.968  0.5068 -0.4054  0.2717
  123OSM   H16F13145   2.249   1.724   7.952  1.1352 -1.8473  0.2341
  123OSM   H16G13146   2.348   1.872   7.925 -0.9160 -0.5877 -0.1850
  123OSM   C17F13147   2.375   1.765   8.114 -0.4348  0.7366  0.3913
  123OSM   H17F13148   2.483   1.788   8.128 -0.4306  0.6688  0.4768
  123OSM   H17G13149   2.352   1.670   8.168 -0.8528  0.7629  0.2665
  123OSM   C18F13150   2.301   1.864   8.204  0.6292 -0.4037 -0.0617
  123OSM   H18F13151   2.194   1.848   8.176  0.6986 -0.1576 -0.4703
  123OSM   H18G13152   2.322   1.968   8.172  1.3433 -1.0858 -1.9770
  123OSM   H18H13153   2.305   1.854   8.314 -0.3822  0.8668  0.1120
  124OSM      N13154   6.124   5.845   6.300 -0.8750  0.6187 -0.4040
  124OSM    C1513155   6.104   5.699   6.298 -0.1372 -0.6326  0.2879
  124OSM   H15A13156   6.054   5.672   6.206 -0.0927  2.0783 -0.6351
  124OSM   H15B13157   6.030   5.674   6.372 -2.3851  0.6338 -1.3838
  124OSM   H15C13158   6.195   5.642   6.307  1.1121  1.1673 -0.2175
  124OSM    C1413159   6.202   5.885   6.417 -0.9801  0.2924 -0.2020
  124OSM   H14A13160   6.301   5.841   6.424  0.0009  2.5699  1.4946
  124OSM   H14B13161   6.149   5.852   6.505  0.5468 -0.2103  0.5610
  124OSM   H14C13162   6.215   5.992   6.425  0.4562  0.0329  1.4298
  124OSM    C1313163   6.199   5.879   6.164  0.2751  0.4204 -0.6627
  124OSM   H13A13164   6.235   5.980   6.155  1.8752 -0.0068  0.5543
  124OSM   H13B13165   6.132   5.855   6.082 -0.1536  3.0214 -1.1729
  124OSM   H13C13166   6.282   5.810   6.173  0.5079  0.9837  2.7347
  124OSM    C1213167   5.995   5.924   6.300  0.4708 -0.1780 -0.3001
  124OSM   H12A13168   5.921   5.881   6.234  2.4635 -3.2150 -0.7297
  124OSM   H12B13169   6.014   6.023   6.262  0.9001  0.6257  1.8411
  124OSM    C1113170   5.927   5.937   6.442  0.8976  0.0784  1.0337
  124OSM   H11A13171   5.851   6.017   6.431  1.4567  0.2091 -3.4532
  124OSM   H11B13172   5.998   5.965   6.522  1.5549 -0.9310  0.8289
  124OSM      P13173   5.736   5.762   6.415 -0.0089  0.0930 -0.1243
  124OSM    O1313174   5.739   5.778   6.266 -0.5403 -0.3884 -0.7213
  124OSM    O1413175   5.711   5.624   6.452  0.0259  0.0973  0.4892
  124OSM    O1113176   5.623   5.849   6.476 -0.0132  0.5512 -0.1431
  124OSM    O1213177   5.864   5.815   6.486  0.4889  0.0208  0.3648
  124OSM    C1S13178   5.627   5.865   6.621  0.2556  0.5387  0.5234
  124OSM    H1S13179   5.721   5.917   6.650  1.0101 -0.3102 -0.2891
  124OSM    H1T13180   5.627   5.769   6.678 -0.9084 -0.7191 -1.4464
  124OSM     NF13181   5.519   5.968   6.815  0.4369  0.0972  0.0809
  124OSM    HNF13182   5.457   5.908   6.866 -0.8345  2.9001  2.1049
  124OSM    C2S13183   5.513   5.954   6.676 -0.3709 -0.1556 -0.1952
  124OSM    H2S13184   5.524   6.056   6.634  1.0938  0.5825  1.8198
  124OSM    C3S13185   5.376   5.903   6.629  0.3599 -0.4044  0.5248
  124OSM    H3S13186   5.358   5.804   6.676 -0.3650 -0.6617 -0.2621
  124OSM     O313187   5.377   5.899   6.484 -0.4912 -0.2921  0.5360
  124OSM    HO313188   5.463   5.859   6.468 -0.0229  0.9623 -0.2080
  124OSM    C4S13189   5.266   6.001   6.668  0.1429 -0.2342 -0.1206
  124OSM    H4S13190   5.243   6.079   6.594  0.6783 -1.7145 -1.9119
  124OSM    C5S13191   5.187   6.001   6.778 -0.0203  0.0317  0.0325
  124OSM    H5S13192   5.205   5.924   6.854  2.6951 -0.8781 -1.3713
  124OSM    C6S13193   5.070   6.090   6.797  0.0419 -0.9775  0.8719
  124OSM    H6S13194   4.976   6.035   6.774 -1.1754  0.9842  0.8981
  124OSM    H6T13195   5.068   6.169   6.718  2.5593  0.2398  1.9018
  124OSM    C7S13196   5.049   6.155   6.930  0.6007  0.0837 -0.4497
  124OSM    H7S13197   4.995   6.250   6.914  0.0944  0.2130  1.6967
  124OSM    H7T13198   5.145   6.184   6.978  0.1348  1.5436 -0.3731
  124OSM    C8S13199   4.962   6.071   7.027  0.2481 -0.0126  0.1253
  124OSM    H8S13200   5.008   5.971   7.023  0.9702  0.3494 -1.9653
  124OSM    H8T13201   4.858   6.058   6.990 -0.1894 -1.4197  1.7189
  124OSM    C9S13202   4.962   6.122   7.175  0.0371 -0.0406  0.3213
  124OSM    H9S13203   4.891   6.207   7.171  1.1111  1.0251  2.2839
  124OSM    H9T13204   5.066   6.155   7.197  0.6953 -0.7136 -1.5935
  124OSM   C10S13205   4.907   6.036   7.292  0.9605  0.4611 -0.1440
  124OSM   H10S13206   4.939   5.930   7.280  1.2525  0.7200 -2.0577
  124OSM   H10T13207   4.796   6.036   7.292  0.9577  0.8228 -0.4893
  124OSM   C11S13208   4.964   6.072   7.437 -0.5067 -0.7912 -0.1430
  124OSM   H11S13209   5.074   6.053   7.439 -0.3947 -0.2218  1.7818
  124OSM   H11T13210   4.922   5.996   7.507  1.1506  0.5744  2.5247
  124OSM   C12S13211   4.936   6.216   7.486 -0.8456 -0.0493 -0.1798
  124OSM   H12S13212   4.986   6.287   7.417  1.5873 -0.6292  0.8406
  124OSM   H12T13213   4.969   6.230   7.592  0.4180  1.4028 -0.7270
  124OSM   C13S13214   4.786   6.244   7.492  0.1530  0.3370 -0.1079
  124OSM   H13S13215   4.741   6.224   7.393 -1.3101  3.6805 -0.2793
  124OSM   H13T13216   4.764   6.351   7.512  2.2439  1.1219 -1.6263
  124OSM   C14S13217   4.706   6.165   7.605 -0.5242 -0.3012 -0.5076
  124OSM   H14S13218   4.717   6.055   7.593 -1.1828 -0.4316  0.0309
  124OSM   H14T13219   4.599   6.185   7.583 -0.9852 -1.5725  0.4439
  124OSM   C15S13220   4.750   6.201   7.744  0.4758  0.0533 -0.5841
  124OSM   H15S13221   4.737   6.311   7.752  1.0837  0.1541 -0.9061
  124OSM   H15T13222   4.856   6.171   7.763  0.4453  0.2635 -0.0709
  124OSM   C16S13223   4.659   6.137   7.844  0.2364 -0.2615 -0.4132
  124OSM   H16S13224   4.643   6.027   7.836 -0.1295 -0.2776  0.4399
  124OSM   H16T13225   4.564   6.192   7.830  0.6952  1.0977  1.4928
  124OSM   C17S13226   4.699   6.153   7.995 -0.2790  0.1178  0.1500
  124OSM   H17S13227   4.808   6.129   7.999 -0.9116 -3.0434  1.9959
  124OSM   H17T13228   4.652   6.070   8.050 -1.0815  0.4533 -0.0213
  124OSM   C18S13229   4.670   6.283   8.061 -0.3237  0.4348 -0.5410
  124OSM   H18S13230   4.565   6.283   8.098 -0.3271  0.9739 -0.5426
  124OSM   H18T13231   4.684   6.365   7.987  2.1054 -2.3467 -3.4556
  124OSM   H18U13232   4.733   6.296   8.152 -0.2125  1.6984 -0.7822
  124OSM    C1F13233   5.616   6.037   6.883 -0.4309 -0.2079  0.9287
  124OSM     OF13234   5.682   6.123   6.820 -0.2997  0.1099  0.1832
  124OSM    C2F13235   5.637   6.011   7.029  0.6490 -0.4839  0.1225
  124OSM    H2F13236   5.680   5.908   7.026  0.0966 -0.8611  2.5782
  124OSM    H2G13237   5.538   6.010   7.079  0.6549  0.1886  0.1600
  124OSM    C3F13238   5.732   6.102   7.104 -0.5999 -0.5477 -0.1618
  124OSM    H3F13239   5.676   6.196   7.126 -0.2320 -0.5831  0.9721
  124OSM    H3G13240   5.827   6.115   7.049 -0.0318 -0.2236  0.8616
  124OSM    C4F13241   5.772   6.041   7.243  0.1468 -0.0724 -0.4422
  124OSM    H4F13242   5.815   6.127   7.299 -1.4023  0.9647 -0.7892
  124OSM    H4G13243   5.840   5.954   7.232 -1.1486 -1.2946  0.8580
  124OSM    C5F13244   5.654   5.990   7.330 -0.1950  0.6462  0.2797
  124OSM    H5F13245   5.625   5.892   7.286  1.3158  1.0633 -1.8143
  124OSM    H5G13246   5.570   6.061   7.319 -0.4092  0.0456 -3.1781
  124OSM    C6F13247   5.681   5.977   7.476 -0.2963  0.9912 -1.3542
  124OSM    H6F13248   5.578   5.985   7.518 -0.6216 -0.5858 -1.7890
  124OSM    H6G13249   5.756   6.050   7.513  1.2098 -0.4717 -1.4218
  124OSM    C7F13250   5.735   5.839   7.529  0.7537  0.3212  0.1626
  124OSM    H7F13251   5.836   5.817   7.487  1.3694 -0.4612  1.9592
  124OSM    H7G13252   5.669   5.769   7.472  0.1569  1.6168 -0.8025
  124OSM    C8F13253   5.721   5.819   7.678  0.1229  0.0035  0.9814
  124OSM    H8F13254   5.785   5.891   7.731 -1.0610 -0.0480  2.5563
  124OSM    H8G13255   5.772   5.722   7.696 -0.9412 -1.0186 -1.1043
  124OSM    C9F13256   5.578   5.811   7.725  0.7000 -0.0847  1.1980
  124OSM    H9F13257   5.509   5.781   7.645  1.6486  2.9572 -0.9011
  124OSM   C10F13258   5.535   5.840   7.851  0.1110  0.4813 -0.2617
  124OSM   H10F13259   5.430   5.830   7.883 -0.0441  1.3905 -0.4660
  124OSM   C11F13260   5.632   5.886   7.954  0.2216  0.4003  0.1198
  124OSM   H11F13261   5.703   5.961   7.913 -0.4346  1.7442  1.3524
  124OSM   H11G13262   5.694   5.805   7.997 -0.3519  1.2096  2.6016
  124OSM   C12F13263   5.569   5.961   8.078  0.3949  0.0455 -0.3639
  124OSM   H12F13264   5.533   6.063   8.050 -1.4732 -0.8564 -1.4297
  124OSM   H12G13265   5.660   5.979   8.139  0.1523 -0.7600  0.2511
  124OSM   C13F13266   5.470   5.884   8.171 -0.5560  0.3484  0.5796
  124OSM   H13F13267   5.494   5.776   8.166  1.0986  0.6861  0.6453
  124OSM   H13G13268   5.366   5.901   8.137 -0.0804  0.1770 -1.0683
  124OSM   C14F13269   5.482   5.932   8.311  0.0149  0.0876 -0.3474
  124OSM   H14F13270   5.444   6.036   8.320  0.2560  0.3633 -2.0630
  124OSM   H14G13271   5.587   5.921   8.343  1.0837 -0.8097 -3.7032
  124OSM   C15F13272   5.408   5.853   8.410 -0.3361  0.0025  0.8978
  124OSM   H15F13273   5.439   5.749   8.432  0.5796 -0.0059 -0.3726
  124OSM   H15G13274   5.303   5.837   8.376 -0.0455 -0.1495  0.0711
  124OSM   C16F13275   5.418   5.924   8.546  0.6980 -0.5165  0.6972
  124OSM   H16F13276   5.381   6.027   8.530 -0.3572 -0.9531  0.2339
  124OSM   H16G13277   5.526   5.936   8.567  0.7113  0.4009  0.1770
  124OSM   C17F13278   5.347   5.863   8.660 -0.5129  0.0778 -0.4070
  124OSM   H17F13279   5.391   5.765   8.687 -1.7627 -1.0806 -2.3058
  124OSM   H17G13280   5.239   5.850   8.637 -0.7451 -1.5366  1.3273
  124OSM   C18F13281   5.372   5.957   8.770  0.2934 -0.5504 -0.1259
  124OSM   H18F13282   5.346   6.062   8.747 -2.0975 -0.9726  0.3622
  124OSM   H18G13283   5.479   5.973   8.791  0.0670  0.7017  0.1650
  124OSM   H18H13284   5.320   5.935   8.866 -0.0944  1.9292  0.2961
  125OSM      N13285   4.936   6.525   6.182  0.4958  0.1467  0.5346
  125OSM    C1513286   4.889   6.385   6.192  0.1406 -0.1740  0.3044
  125OSM   H15A13287   4.867   6.367   6.296  1.2655 -1.0682  0.4029
  125OSM   H15B13288   4.943   6.301   6.151 -2.0885 -1.5528  0.0012
  125OSM   H15C13289   4.797   6.383   6.135  1.0963  0.3444 -1.3587
  125OSM    C1413290   5.087   6.530   6.226  0.5697 -0.5250 -0.2234
  125OSM   H14A13291   5.103   6.489   6.325  1.0912  0.6261  0.1972
  125OSM   H14B13292   5.113   6.635   6.232  2.0906 -0.7925 -1.4489
  125OSM   H14C13293   5.148   6.480   6.153 -0.9572 -0.2378 -1.7466
  125OSM    C1313294   4.934   6.562   6.036  0.1843 -0.4117  0.2358
  125OSM   H13A13295   4.982   6.659   6.035  0.7340 -0.6566  1.0630
  125OSM   H13B13296   4.832   6.577   6.004  0.4673 -0.0445 -0.5106
  125OSM   H13C13297   4.982   6.498   5.964 -0.8972 -1.0216  0.0366
  125OSM    C1213298   4.855   6.626   6.254  1.1153 -0.2284  0.6004
  125OSM   H12A13299   4.903   6.723   6.246 -1.5988  1.2620  1.3045
  125OSM   H12B13300   4.853   6.617   6.361  0.9988  0.0125  0.6181
  125OSM    C1113301   4.717   6.646   6.198  0.0944  0.4032  0.2766
  125OSM   H11A13302   4.727   6.679   6.092  0.0348 -2.1960 -0.6198
  125OSM   H11B13303   4.673   6.731   6.254 -1.8212 -1.3529  1.5774
  125OSM      P13304   4.559   6.490   6.337 -0.0161 -0.1417  0.8737
  125OSM    O1313305   4.477   6.379   6.285  0.4142  0.4559 -0.1310
  125OSM    O1413306   4.650   6.469   6.445  0.0524 -0.1484 -0.0025
  125OSM    O1113307   4.466   6.607   6.380  0.0783 -0.8551  0.3614
  125OSM    O1213308   4.635   6.536   6.209  0.1672  0.5491 -0.1953
  125OSM    C1S13309   4.351   6.593   6.463 -0.4202 -0.5518  0.1387
  125OSM    H1S13310   4.299   6.495   6.456 -2.5531  0.4934  0.4447
  125OSM    H1T13311   4.278   6.672   6.433  3.0931  2.6296 -0.8017
  125OSM     NF13312   4.256   6.604   6.701 -0.4538 -0.7435 -0.1683
  125OSM    HNF13313   4.215   6.687   6.739 -0.4011 -0.7234 -0.1552
  125OSM    C2S13314   4.375   6.615   6.614 -0.6194  0.0055 -0.1982
  125OSM    H2S13315   4.438   6.529   6.645  0.7786  1.2500  0.5310
  125OSM    C3S13316   4.442   6.755   6.642 -0.4545 -0.1394 -0.4391
  125OSM    H3S13317   4.377   6.838   6.609 -1.2117  0.5603  2.4748
  125OSM     O313318   4.578   6.768   6.585  0.8025 -0.4725  0.5487
  125OSM    HO313319   4.587   6.695   6.524 -0.1803 -1.1182  1.1610
  125OSM    C4S13320   4.469   6.771   6.786  0.4234  0.0755 -0.0348
  125OSM    H4S13321   4.562   6.729   6.825  0.5369 -0.3092 -0.7178
  125OSM    C5S13322   4.413   6.858   6.874 -0.1238 -0.2551 -0.7131
  125OSM    H5S13323   4.328   6.924   6.851 -0.3412  0.0261  0.7905
  125OSM    C6S13324   4.459   6.880   7.020 -0.1063  0.7890  0.8440
  125OSM    H6S13325   4.495   6.984   7.035  0.8706  0.7018 -0.6366
  125OSM    H6T13326   4.533   6.806   7.056 -0.1916  0.2046 -0.1432
  125OSM    C7S13327   4.351   6.850   7.120 -0.6928  0.5125  0.2954
  125OSM    H7S13328   4.306   6.749   7.119 -0.9851  0.5996 -2.7317
  125OSM    H7T13329   4.270   6.924   7.103  0.3067  1.7513  0.7230
  125OSM    C8S13330   4.403   6.869   7.267 -0.5073  0.2998 -0.5630
  125OSM    H8S13331   4.463   6.962   7.275 -0.6731  0.2600  1.9715
  125OSM    H8T13332   4.473   6.788   7.296 -2.2055 -0.3280  2.1491
  125OSM    C9S13333   4.301   6.851   7.383  0.7861  0.4754  0.1718
  125OSM    H9S13334   4.296   6.740   7.383 -1.9920  0.5378  0.7466
  125OSM    H9T13335   4.197   6.884   7.365  0.1842 -0.6204  1.5006
  125OSM   C10S13336   4.360   6.891   7.517  0.0480  0.8466 -0.0826
  125OSM   H10S13337   4.416   6.987   7.517  2.6760 -0.6107 -0.9857
  125OSM   H10T13338   4.435   6.814   7.545 -1.7620 -0.6124  1.0528
  125OSM   C11S13339   4.272   6.872   7.637  0.4479  0.4468  0.1461
  125OSM   H11S13340   4.232   6.769   7.640  1.0629  0.1998  0.1727
  125OSM   H11T13341   4.183   6.938   7.629 -0.5680 -0.9494 -0.2957
  125OSM   C12S13342   4.349   6.881   7.769  0.4327 -0.5956 -0.2566
  125OSM   H12S13343   4.384   6.986   7.780 -1.3544 -0.1072  1.3565
  125OSM   H12T13344   4.438   6.815   7.772  0.3239 -0.7041  0.9430
  125OSM   C13S13345   4.252   6.855   7.883  0.4272  0.1576 -0.2158
  125OSM   H13S13346   4.235   6.745   7.880 -0.7183  0.2270  1.7921
  125OSM   H13T13347   4.158   6.914   7.875  1.0154  1.0537 -0.5915
  125OSM   C14S13348   4.314   6.879   8.018  0.4348 -0.1901  0.1811
  125OSM   H14S13349   4.333   6.988   8.023 -1.7954  0.4388 -2.3950
  125OSM   H14T13350   4.407   6.820   8.027  1.6087  1.7508  1.6083
  125OSM   C15S13351   4.222   6.848   8.135 -0.5662 -0.1125 -0.1690
  125OSM   H15S13352   4.127   6.907   8.134 -0.7228 -0.3681 -1.2279
  125OSM   H15T13353   4.270   6.870   8.233 -2.7078  0.5455  0.7983
  125OSM   C16S13354   4.196   6.700   8.141  0.4696 -0.6663 -0.0913
  125OSM   H16S13355   4.287   6.640   8.118  2.4950  1.6903  1.2848
  125OSM   H16T13356   4.118   6.670   8.068  0.1145  0.2142 -0.0842
  125OSM   C17S13357   4.143   6.657   8.277 -0.4559 -0.3387  0.2461
  125OSM   H17S13358   4.069   6.737   8.301 -0.0230 -0.5296  2.3691
  125OSM   H17T13359   4.214   6.667   8.362 -0.5879 -1.4347  0.4987
  125OSM   C18S13360   4.075   6.525   8.288 -0.3515 -0.1462  0.9466
  125OSM   H18S13361   4.013   6.509   8.197  0.4360  1.7376  0.0278
  125OSM   H18T13362   4.021   6.517   8.385 -2.5216  0.2966 -0.1664
  125OSM   H18U13363   4.151   6.444   8.288 -0.4804 -0.2816  0.0518
  125OSM    C1F13364   4.199   6.489   6.726  0.2619 -0.6468  0.2213
  125OSM     OF13365   4.246   6.389   6.680  0.2002  0.2669  0.1329
  125OSM    C2F13366   4.071   6.486   6.803  0.0575 -0.7125 -0.2888
  125OSM    H2F13367   4.013   6.396   6.772 -0.3611  0.0843 -1.9257
  125OSM    H2G13368   4.016   6.578   6.776 -0.1128 -0.6980  0.1062
  125OSM    C3F13369   4.100   6.483   6.957  0.4608 -0.0504  0.2530
  125OSM    H3F13370   4.151   6.576   6.988  1.1601 -0.1833 -0.4741
  125OSM    H3G13371   4.163   6.393   6.975  0.1431 -0.3109  0.0743
  125OSM    C4F13372   3.970   6.475   7.037  0.6188  0.2367 -0.2678
  125OSM    H4F13373   3.914   6.387   6.998 -0.4965  0.8881 -0.1713
  125OSM    H4G13374   3.919   6.571   7.015  2.4802  1.4257  0.3432
  125OSM    C5F13375   4.004   6.452   7.184 -0.0089  0.1215 -0.4968
  125OSM    H5F13376   4.079   6.533   7.200 -0.7976  0.8021 -0.1022
  125OSM    H5G13377   4.064   6.362   7.207 -1.5640 -0.9753 -0.5381
  125OSM    C6F13378   3.885   6.459   7.281 -0.6391 -0.1459  0.0250
  125OSM    H6F13379   3.812   6.381   7.249 -0.2249 -0.4761 -0.1121
  125OSM    H6G13380   3.821   6.550   7.278  0.1051  0.4035  0.5735
  125OSM    C7F13381   3.934   6.437   7.422  0.4106  0.2359 -0.7090
  125OSM    H7F13382   3.991   6.529   7.444  0.7804 -0.4444  1.4555
  125OSM    H7G13383   3.998   6.346   7.427 -0.4934 -0.3519  2.1097
  125OSM    C8F13384   3.820   6.432   7.531  0.7080  0.2326 -0.1348
  125OSM    H8F13385   3.753   6.344   7.524  1.3448 -0.5569  2.6915
  125OSM    H8G13386   3.766   6.528   7.513 -0.3900 -0.5415 -1.2014
  125OSM    C9F13387   3.890   6.425   7.663 -0.1758  0.0779 -1.3057
  125OSM    H9F13388   3.991   6.470   7.662 -0.3215  0.4457 -0.4092
  125OSM   C10F13389   3.832   6.383   7.779  0.0693 -0.5735 -0.4195
  125OSM   H10F13390   3.886   6.375   7.874 -0.0091 -0.9154 -0.4049
  125OSM   C11F13391   3.686   6.343   7.790  0.0337  0.7328  0.1599
  125OSM   H11F13392   3.657   6.241   7.756  0.0003  0.2548  1.5588
  125OSM   H11G13393   3.627   6.410   7.724  0.2071  1.6966  0.9533
  125OSM   C12F13394   3.629   6.366   7.932  0.0029  0.0171 -0.3620
  125OSM   H12F13395   3.518   6.359   7.926  0.0773 -1.3062 -0.7117
  125OSM   H12G13396   3.652   6.472   7.956 -1.9340  0.4866 -0.4516
  125OSM   C13F13397   3.694   6.283   8.046  0.1517  1.0573  0.0850
  125OSM   H13F13398   3.805   6.291   8.034  0.0110  1.2325 -1.2623
  125OSM   H13G13399   3.670   6.175   8.037 -1.0337  1.3963 -1.2953
  125OSM   C14F13400   3.638   6.324   8.184 -0.1749  0.0546 -0.2880
  125OSM   H14F13401   3.528   6.308   8.189 -0.2896  1.2401  2.6638
  125OSM   H14G13402   3.669   6.428   8.209  1.0698 -0.0679 -1.2054
  125OSM   C15F13403   3.703   6.242   8.299 -0.2847 -0.2891  0.8397
  125OSM   H15F13404   3.810   6.269   8.311 -0.4143 -0.2341  1.9040
  125OSM   H15G13405   3.719   6.137   8.267 -0.4398  0.7965 -3.4820
  125OSM   C16F13406   3.634   6.259   8.438 -0.3555  0.3653 -0.1991
  125OSM   H16F13407   3.524   6.244   8.447 -0.2488  0.4325  1.5028
  125OSM   H16G13408   3.640   6.368   8.459 -0.3037 -0.0024  1.8663
  125OSM   C17F13409   3.701   6.184   8.556  0.5173 -0.4170  0.0010
  125OSM   H17F13410   3.730   6.079   8.531  1.8980 -0.6184  2.1499
  125OSM   H17G13411   3.622   6.179   8.634  1.4596  0.3569  1.0468
  125OSM   C18F13412   3.829   6.253   8.606 -0.1063 -0.0491  0.2276
  125OSM   H18F13413   3.819   6.363   8.595 -0.7394 -0.0838  0.3944
  125OSM   H18G13414   3.926   6.228   8.557 -0.0497  0.6949 -0.0520
  125OSM   H18H13415   3.853   6.235   8.713  0.7829  0.5685  0.1448
  126OSM      N13416   1.519   6.036   6.460  0.6841  0.2345  0.3163
  126OSM    C1513417   1.638   6.068   6.549 -0.0044  1.1395 -0.4116
  126OSM   H15A13418   1.723   6.094   6.487  1.2966 -3.8002 -1.1055
  126OSM   H15B13419   1.666   5.985   6.612 -2.4710  0.2887 -0.3285
  126OSM   H15C13420   1.607   6.147   6.616 -0.7816 -0.0329  0.6565
  126OSM    C1413421   1.553   5.910   6.372  0.0725  0.1240  1.2670
  126OSM   H14A13422   1.578   5.823   6.432 -0.0629 -1.1938 -0.5161
  126OSM   H14B13423   1.627   5.932   6.296  0.7441 -3.2222  0.8025
  126OSM   H14C13424   1.468   5.873   6.317  0.4128 -0.9908  1.4542
  126OSM    C1313425   1.406   5.999   6.550  0.6103 -0.0903 -0.2705
  126OSM   H13A13426   1.382   6.070   6.627 -2.0467 -0.5982 -0.5330
  126OSM   H13B13427   1.430   5.902   6.590  0.0806 -0.0723  0.0891
  126OSM   H13C13428   1.309   5.989   6.505 -0.5972  3.0772  1.3369
  126OSM    C1213429   1.483   6.162   6.377 -0.5119  0.0820  0.1050
  126OSM   H12A13430   1.417   6.128   6.298 -0.2343  1.1851 -0.6400
  126OSM   H12B13431   1.566   6.190   6.313 -0.5271 -1.1340 -0.4770
  126OSM    C1113432   1.424   6.280   6.447  0.3335  0.3107 -0.0829
  126OSM   H11A13433   1.323   6.248   6.478  0.3286 -0.3812 -0.7953
  126OSM   H11B13434   1.404   6.354   6.368 -0.4333  0.7218  0.4851
  126OSM      P13435   1.566   6.473   6.539  0.3563 -0.2154 -0.4002
  126OSM    O1313436   1.693   6.457   6.468 -0.0612  0.5990  0.5284
  126OSM    O1413437   1.463   6.563   6.480 -0.9088 -0.0122  0.2682
  126OSM    O1113438   1.586   6.517   6.690 -0.0048  0.4641 -0.3732
  126OSM    O1213439   1.508   6.327   6.555 -0.2829 -0.5426 -0.0693
  126OSM    C1S13440   1.474   6.561   6.768 -0.5005  0.7614 -0.5111
  126OSM    H1S13441   1.376   6.521   6.732  0.5700 -1.8092 -0.8198
  126OSM    H1T13442   1.466   6.671   6.762  3.1217  1.2514  1.1793
  126OSM     NF13443   1.367   6.541   6.983  0.7368 -0.4080  0.3568
  126OSM    HNF13444   1.348   6.631   7.023 -2.2186 -0.5851 -0.4327
  126OSM    C2S13445   1.491   6.507   6.909 -0.4514 -0.7267  0.1080
  126OSM    H2S13446   1.508   6.397   6.912  2.5749 -0.3104  0.7278
  126OSM    C3S13447   1.612   6.580   6.970 -0.0654  0.0661 -0.3241
  126OSM    H3S13448   1.588   6.688   6.964 -0.5240  0.0478  0.8722
  126OSM     O313449   1.736   6.564   6.905 -0.0444  0.3558  0.0039
  126OSM    HO313450   1.705   6.536   6.819 -4.6645 -0.0601  1.5473
  126OSM    C4S13451   1.626   6.544   7.115 -0.0223 -0.1063  0.3748
  126OSM    H4S13452   1.624   6.438   7.142 -4.2047 -0.3109  0.0168
  126OSM    C5S13453   1.626   6.642   7.211 -0.1172  0.3662 -0.0196
  126OSM    H5S13454   1.622   6.749   7.186 -1.4682  0.2827 -0.2420
  126OSM    C6S13455   1.637   6.610   7.357  0.3332  0.2469 -0.9549
  126OSM    H6S13456   1.534   6.624   7.396  0.3169 -1.1270 -0.4521
  126OSM    H6T13457   1.705   6.687   7.402 -1.2465  0.9126  0.3938
  126OSM    C7S13458   1.705   6.473   7.402  0.7595  0.5278  0.3949
  126OSM    H7S13459   1.811   6.498   7.380  0.3781  1.2999 -0.6499
  126OSM    H7T13460   1.661   6.383   7.355  1.7316 -1.3537  2.8672
  126OSM    C8S13461   1.699   6.453   7.556 -0.0374 -1.1149 -0.6341
  126OSM    H8S13462   1.707   6.550   7.610 -2.1706 -1.2215 -0.0506
  126OSM    H8T13463   1.791   6.392   7.573  0.6203  0.1019  0.3780
  126OSM    C9S13464   1.568   6.381   7.594 -0.8139 -0.2605  0.2811
  126OSM    H9S13465   1.545   6.290   7.535 -0.3889 -1.8977  2.5381
  126OSM    H9T13466   1.488   6.457   7.579  1.7332  2.6577  0.4407
  126OSM   C10S13467   1.569   6.357   7.745 -0.6628 -0.3198 -0.1078
  126OSM   H10S13468   1.586   6.448   7.806  1.3773 -0.2435 -0.7354
  126OSM   H10T13469   1.655   6.291   7.769 -0.1830 -0.0902 -1.1617
  126OSM   C11S13470   1.440   6.291   7.798 -0.1674 -0.5130 -0.8795
  126OSM   H11S13471   1.428   6.194   7.745  0.6345 -0.1185 -1.8237
  126OSM   H11T13472   1.357   6.363   7.787 -1.5161 -2.1410 -1.8317
  126OSM   C12S13473   1.464   6.259   7.940  0.3641 -0.3063 -0.0610
  126OSM   H12S13474   1.517   6.347   7.983 -0.0832  0.2226 -0.5794
  126OSM   H12T13475   1.537   6.177   7.954 -1.1882 -1.4561  1.9560
  126OSM   C13S13476   1.331   6.234   8.005 -0.7750  0.2387  0.1428
  126OSM   H13S13477   1.321   6.124   7.994 -0.2148 -0.0617  2.1053
  126OSM   H13T13478   1.251   6.290   7.953 -1.3694  2.1537  2.8914
  126OSM   C14S13479   1.337   6.274   8.151  0.0516 -0.3330 -0.0845
  126OSM   H14S13480   1.241   6.257   8.205  0.9305 -1.4755  1.2013
  126OSM   H14T13481   1.359   6.382   8.160 -0.1321 -0.3012 -0.0095
  126OSM   C15S13482   1.449   6.205   8.229 -0.0484 -0.3774  0.1081
  126OSM   H15S13483   1.547   6.225   8.181  2.1205  1.1265  4.5633
  126OSM   H15T13484   1.416   6.099   8.222  0.0022 -0.3297 -0.9662
  126OSM   C16S13485   1.463   6.243   8.376 -1.0883 -0.0507 -0.0920
  126OSM   H16S13486   1.518   6.340   8.380  1.2722 -1.3590  2.8633
  126OSM   H16T13487   1.530   6.171   8.428 -0.5490  0.9717  0.6617
  126OSM   C17S13488   1.328   6.262   8.455  0.5215 -0.2321 -0.8707
  126OSM   H17S13489   1.268   6.346   8.411 -1.0176  0.0767  1.6333
  126OSM   H17T13490   1.353   6.279   8.562 -0.2112 -0.9586 -0.5793
  126OSM   C18S13491   1.232   6.146   8.457  0.5089 -0.2772  0.3403
  126OSM   H18S13492   1.272   6.056   8.508 -2.8330 -2.0930 -0.0075
  126OSM   H18T13493   1.192   6.123   8.356 -2.3457  1.0224  1.0783
  126OSM   H18U13494   1.138   6.174   8.509 -1.7213  0.8527 -3.8769
  126OSM    C1F13495   1.254   6.472   6.970  0.2905  0.0346 -0.2916
  126OSM     OF13496   1.247   6.369   6.914 -0.2352  0.5744 -0.3296
  126OSM    C2F13497   1.131   6.533   7.031 -0.0992  0.1973 -0.1520
  126OSM    H2F13498   1.039   6.489   6.986 -0.0329 -0.0816 -0.0210
  126OSM    H2G13499   1.117   6.641   7.013 -0.6915  0.4473  1.6300
  126OSM    C3F13500   1.117   6.492   7.181 -0.3837  0.1727  0.1849
  126OSM    H3F13501   1.209   6.531   7.230  1.6552 -0.2321 -2.9571
  126OSM    H3G13502   1.105   6.384   7.204  2.3875 -0.1661  0.4596
  126OSM    C4F13503   0.987   6.549   7.255  0.1993  0.1282  0.3525
  126OSM    H4F13504   0.899   6.511   7.198 -0.9887  1.1147  1.4684
  126OSM    H4G13505   0.981   6.659   7.242 -1.5033 -0.0713 -1.0248
  126OSM    C5F13506   0.974   6.520   7.404 -0.4029  0.6112  1.3025
  126OSM    H5F13507   0.991   6.410   7.405  2.3325  0.8876  5.2319
  126OSM    H5G13508   0.877   6.540   7.454 -0.1123  1.9613  1.3650
  126OSM    C6F13509   1.080   6.580   7.492 -0.6395  0.2673 -0.4084
  126OSM    H6F13510   1.048   6.686   7.500  0.6699  0.6901 -0.4520
  126OSM    H6G13511   1.180   6.574   7.443 -1.1522 -2.3493 -1.3079
  126OSM    C7F13512   1.081   6.523   7.637  0.3298 -1.0317 -0.2192
  126OSM    H7F13513   1.099   6.414   7.629  1.3333 -0.9183  0.2767
  126OSM    H7G13514   0.974   6.529   7.666  0.1435 -1.5888 -0.7803
  126OSM    C8F13515   1.190   6.570   7.730  0.8471  0.8589  0.0408
  126OSM    H8F13516   1.283   6.533   7.681 -0.5568 -0.5824 -1.6397
  126OSM    H8G13517   1.194   6.518   7.828  1.0365  0.0345 -0.3964
  126OSM    C9F13518   1.181   6.719   7.766 -0.0899  0.4661  0.1725
  126OSM    H9F13519   1.080   6.762   7.758 -0.2069  0.1060 -0.3032
  126OSM   C10F13520   1.280   6.801   7.780 -0.1229 -0.7873 -0.6030
  126OSM   H10F13521   1.260   6.908   7.798  1.1485 -1.0109  3.0949
  126OSM   C11F13522   1.427   6.757   7.774  0.4998 -0.2271  0.5600
  126OSM   H11F13523   1.487   6.816   7.702  0.0916 -0.4316  0.0467
  126OSM   H11G13524   1.446   6.650   7.752  3.2483  0.3139 -0.0122
  126OSM   C12F13525   1.493   6.777   7.903 -0.0306 -0.3356 -0.3990
  126OSM   H12F13526   1.506   6.885   7.924 -1.8058 -0.2606  0.5069
  126OSM   H12G13527   1.601   6.754   7.891  0.0492 -1.4102  1.8200
  126OSM   C13F13528   1.445   6.708   8.025  0.1823  0.0300  0.0187
  126OSM   H13F13529   1.481   6.603   8.027  2.1299  0.6719  0.6547
  126OSM   H13G13530   1.334   6.703   8.029  0.2019 -1.9436 -0.7402
  126OSM   C14F13531   1.504   6.771   8.160  0.1554  0.0599 -0.3504
  126OSM   H14F13532   1.453   6.870   8.167  1.2262  0.8008 -2.2854
  126OSM   H14G13533   1.609   6.808   8.155 -0.0268  0.8740  1.2169
  126OSM   C15F13534   1.479   6.681   8.276  0.2297  1.1078  0.1659
  126OSM   H15F13535   1.516   6.580   8.250 -3.0880 -0.7772  1.9796
  126OSM   H15G13536   1.370   6.660   8.282  0.6545 -2.0054 -1.0805
  126OSM   C16F13537   1.556   6.721   8.413 -0.1782 -0.7614 -0.2200
  126OSM   H16F13538   1.515   6.820   8.445 -1.6318 -1.1707 -0.7257
  126OSM   H16G13539   1.659   6.738   8.376 -0.1338 -1.1213 -0.2657
  126OSM   C17F13540   1.550   6.621   8.522  0.3782 -0.0882 -0.0638
  126OSM   H17F13541   1.604   6.531   8.487  0.8317 -0.3463  1.2516
  126OSM   H17G13542   1.444   6.593   8.534  0.7985 -1.2755  1.0860
  126OSM   C18F13543   1.616   6.664   8.652 -0.2200 -0.2325 -0.2039
  126OSM   H18F13544   1.717   6.698   8.619  0.0465 -0.9944 -0.1917
  126OSM   H18G13545   1.616   6.582   8.726 -1.5073 -1.0752 -1.0895
  126OSM   H18H13546   1.554   6.742   8.701 -0.6063 -0.4198 -0.3882
  127OSM      N13547   4.662   5.665   5.861  0.1250  0.0906 -0.4778
  127OSM    C1513548   4.514   5.640   5.852 -0.2733  0.2403  0.1510
  127OSM   H15A13549   4.453   5.709   5.796 -2.1241 -1.4858 -0.0844
  127OSM   H15B13550   4.468   5.652   5.949  1.9587  1.3097  1.1443
  127OSM   H15C13551   4.492   5.535   5.835 -2.6829  0.2804  2.3812
  127OSM    C1413552   4.714   5.649   5.714 -0.2724  0.7119  0.3336
  127OSM   H14A13553   4.818   5.679   5.706  0.1130 -1.0022 -3.3984
  127OSM   H14B13554   4.654   5.710   5.649  0.9297  2.0534  0.4420
  127OSM   H14C13555   4.714   5.546   5.680  1.5438  0.8958 -0.3210
  127OSM    C1313556   4.682   5.808   5.906  0.0992  0.2235 -0.0233
  127OSM   H13A13557   4.628   5.872   5.838 -4.8274 -2.2072  1.1791
  127OSM   H13B13558   4.785   5.839   5.919 -0.3875  1.2520  1.7457
  127OSM   H13C13559   4.649   5.817   6.008 -0.8978  0.0028 -0.3144
  127OSM    C1213560   4.733   5.566   5.949  0.5201 -0.3570 -0.0854
  127OSM   H12A13561   4.840   5.574   5.941  0.3311  1.9702 -1.2052
  127OSM   H12B13562   4.705   5.470   5.908 -1.4708  0.5311 -0.9508
  127OSM    C1113563   4.692   5.549   6.094 -0.7300  0.0508 -0.3065
  127OSM   H11A13564   4.708   5.648   6.143 -0.7480 -0.1646  0.1460
  127OSM   H11B13565   4.756   5.473   6.144 -1.0789 -0.3770 -0.5179
  127OSM      P13566   4.514   5.371   6.132  0.4697 -0.0287  0.3921
  127OSM    O1313567   4.395   5.338   6.053 -0.3069  0.1860  0.0490
  127OSM    O1413568   4.633   5.287   6.104  0.4696 -0.6134 -0.0697
  127OSM    O1113569   4.477   5.364   6.285 -0.0148  0.3496 -0.1956
  127OSM    O1213570   4.556   5.517   6.112  0.3066  0.4612  0.2407
  127OSM    C1S13571   4.463   5.235   6.347 -0.2769 -0.8018  0.0813
  127OSM    H1S13572   4.561   5.181   6.342 -0.9494 -1.9599 -1.5175
  127OSM    H1T13573   4.379   5.178   6.303 -2.2204  3.3778 -2.2177
  127OSM     NF13574   4.439   5.123   6.575 -0.4193 -0.6563  0.0957
  127OSM    HNF13575   4.354   5.083   6.608 -1.0688  1.5525  1.3079
  127OSM    C2S13576   4.419   5.244   6.494 -0.2946 -0.6117  0.0101
  127OSM    H2S13577   4.477   5.327   6.539  0.0452 -1.1167  0.5111
  127OSM    C3S13578   4.274   5.304   6.502 -0.4139 -0.6234  0.6040
  127OSM    H3S13579   4.208   5.216   6.486  0.0394 -0.5857 -1.8263
  127OSM     O313580   4.247   5.400   6.399  0.7137  0.2538 -0.4309
  127OSM    HO313581   4.328   5.393   6.349  0.6453 -2.0744 -0.3606
  127OSM    C4S13582   4.237   5.344   6.639  0.4673 -0.1272  0.3056
  127OSM    H4S13583   4.199   5.263   6.703  0.7857  0.7399  1.6400
  127OSM    C5S13584   4.250   5.463   6.695  0.1981 -0.0428 -0.2171
  127OSM    H5S13585   4.281   5.552   6.639  2.2944 -1.1848 -0.9525
  127OSM    C6S13586   4.223   5.488   6.845 -0.2951 -0.6618 -0.3675
  127OSM    H6S13587   4.150   5.571   6.855 -2.0610 -2.0751 -0.9768
  127OSM    H6T13588   4.316   5.513   6.901 -2.9008  3.0275  2.8139
  127OSM    C7S13589   4.166   5.371   6.928  0.0284 -0.0365  0.7922
  127OSM    H7S13590   4.246   5.295   6.927 -1.5846 -1.9098 -2.1880
  127OSM    H7T13591   4.066   5.335   6.895 -1.1424  2.3417  1.4678
  127OSM    C8S13592   4.129   5.417   7.064  0.3705  0.1817 -0.8422
  127OSM    H8S13593   4.026   5.459   7.064 -0.2569 -1.3159 -1.2987
  127OSM    H8T13594   4.199   5.500   7.090  0.0761 -0.2803  1.6944
  127OSM    C9S13595   4.144   5.310   7.177  0.5166  0.1102 -0.9078
  127OSM    H9S13596   4.245   5.264   7.171  1.0288  0.9454  0.7443
  127OSM    H9T13597   4.075   5.227   7.153 -1.5305  1.0250  1.4087
  127OSM   C10S13598   4.111   5.373   7.313 -0.5504  0.5722  1.0949
  127OSM   H10S13599   4.009   5.418   7.314 -0.7116  0.2094  1.6672
  127OSM   H10T13600   4.178   5.459   7.329  3.6641 -2.0882 -0.6187
  127OSM   C11S13601   4.152   5.281   7.426  0.7251 -0.5522 -0.1075
  127OSM   H11S13602   4.261   5.263   7.420  0.7040 -0.6538 -0.1827
  127OSM   H11T13603   4.092   5.188   7.425  2.3694 -1.7840 -4.0691
  127OSM   C12S13604   4.132   5.354   7.563 -0.3393  0.2763 -1.0829
  127OSM   H12S13605   4.027   5.388   7.574 -0.6081 -0.8088 -0.1248
  127OSM   H12T13606   4.191   5.448   7.567  2.1795 -1.1821  3.4295
  127OSM   C13S13607   4.175   5.274   7.684  0.2991 -0.5887 -0.3078
  127OSM   H13S13608   4.284   5.255   7.678  0.3437 -0.1499 -0.9725
  127OSM   H13T13609   4.140   5.169   7.677 -2.5184 -0.0368  2.5817
  127OSM   C14S13610   4.135   5.337   7.813 -0.0503 -0.1407 -0.3695
  127OSM   H14S13611   4.030   5.365   7.787 -0.0587  1.3211  1.0944
  127OSM   H14T13612   4.183   5.433   7.840  2.0003 -1.1033 -0.4207
  127OSM   C15S13613   4.145   5.246   7.933  0.4309  0.2250  0.9220
  127OSM   H15S13614   4.253   5.227   7.950  0.4247 -1.1732 -0.4074
  127OSM   H15T13615   4.099   5.145   7.919  0.4505  0.6234 -2.8891
  127OSM   C16S13616   4.069   5.298   8.063  0.0645  0.7683 -0.4034
  127OSM   H16S13617   4.045   5.221   8.139 -0.0919  1.4037  0.2093
  127OSM   H16T13618   3.969   5.340   8.037 -0.4638 -0.8318 -1.0734
  127OSM   C17S13619   4.164   5.400   8.135  0.7787  0.0338 -0.0043
  127OSM   H17S13620   4.202   5.471   8.059  0.0910 -0.9542 -1.3207
  127OSM   H17T13621   4.259   5.356   8.172  0.6932  1.4548  2.0989
  127OSM   C18S13622   4.103   5.468   8.254  0.4026  0.5098 -0.2740
  127OSM   H18S13623   4.000   5.508   8.237  0.2178  0.4973  0.7476
  127OSM   H18T13624   4.171   5.551   8.281 -0.4860  1.1406  0.0553
  127OSM   H18U13625   4.090   5.397   8.339  1.3627  2.3677  1.4911
  127OSM    C1F13626   4.561   5.069   6.605  0.3485  0.0271  0.5255
  127OSM     OF13627   4.661   5.122   6.564  0.5454  0.3775 -0.2386
  127OSM    C2F13628   4.560   4.932   6.668  0.2392 -0.0506  0.1342
  127OSM    H2F13629   4.605   4.854   6.603  0.4412 -0.2442  0.5042
  127OSM    H2G13630   4.460   4.890   6.693  0.3428 -0.6343 -0.4058
  127OSM    C3F13631   4.637   4.933   6.800  0.0555 -0.2446  0.1276
  127OSM    H3F13632   4.728   4.997   6.794  0.0144 -0.3204 -1.7903
  127OSM    H3G13633   4.667   4.829   6.826  1.6095 -0.6154 -2.7243
  127OSM    C4F13634   4.558   4.991   6.915  0.1614  0.2846 -0.1735
  127OSM    H4F13635   4.493   5.075   6.884 -2.6653 -0.0270  4.0537
  127OSM    H4G13636   4.627   5.026   6.995 -0.1059 -2.1046  1.2025
  127OSM    C5F13637   4.459   4.888   6.978  0.1683 -0.3415  0.1957
  127OSM    H5F13638   4.501   4.788   7.002  1.0812 -0.1423 -0.5262
  127OSM    H5G13639   4.377   4.870   6.905  1.0807 -1.7578 -0.5257
  127OSM    C6F13640   4.393   4.941   7.104  0.1959  0.2428  0.0876
  127OSM    H6F13641   4.324   5.024   7.074 -0.6574 -1.8814 -4.7534
  127OSM    H6G13642   4.469   4.975   7.178 -1.9552 -0.6834  2.9054
  127OSM    C7F13643   4.316   4.823   7.172 -0.2179  0.5643 -0.0218
  127OSM    H7F13644   4.408   4.779   7.217  1.1773  3.1121 -0.1957
  127OSM    H7G13645   4.269   4.758   7.095  0.5432 -0.9766  0.7633
  127OSM    C8F13646   4.209   4.874   7.275 -0.3852  0.3943 -0.0933
  127OSM    H8F13647   4.160   4.786   7.321  0.3891  0.8566  1.6978
  127OSM    H8G13648   4.130   4.935   7.226 -0.1590  0.1660 -0.7548
  127OSM    C9F13649   4.277   4.968   7.370 -0.1888  0.4313 -0.2203
  127OSM    H9F13650   4.290   5.069   7.329  1.8875  1.4945  2.7792
  127OSM   C10F13651   4.317   4.944   7.493 -1.0042  0.0383 -0.4146
  127OSM   H10F13652   4.355   5.026   7.555 -0.8767 -0.1244 -0.2755
  127OSM   C11F13653   4.321   4.809   7.555  0.1297 -0.3747  0.1265
  127OSM   H11F13654   4.423   4.781   7.590  1.3864  3.2058 -0.2437
  127OSM   H11G13655   4.291   4.738   7.476  2.1303  0.9019 -1.8959
  127OSM   C12F13656   4.229   4.783   7.685 -0.2978 -0.4134 -0.5773
  127OSM   H12F13657   4.221   4.673   7.698  0.4059 -0.3540  0.4383
  127OSM   H12G13658   4.128   4.807   7.645  0.3167  1.3687 -1.1889
  127OSM   C13F13659   4.268   4.873   7.807  0.6204 -0.2241 -0.5436
  127OSM   H13F13660   4.229   4.977   7.794  0.6796  0.2224  2.2930
  127OSM   H13G13661   4.378   4.886   7.798  0.6197  0.6732  0.4936
  127OSM   C14F13662   4.214   4.831   7.943 -0.6622 -0.5212 -0.1653
  127OSM   H14F13663   4.108   4.801   7.929 -0.5787 -0.2531 -1.4857
  127OSM   H14G13664   4.218   4.922   8.008  1.2533  0.0394 -1.0018
  127OSM   C15F13665   4.298   4.728   8.003 -0.2380  0.8572  0.0739
  127OSM   H15F13666   4.402   4.765   8.018 -0.2622  0.9582 -0.0104
  127OSM   H15G13667   4.305   4.644   7.931 -3.2528  0.7633 -0.2150
  127OSM   C16F13668   4.246   4.671   8.142 -0.2321 -0.0316  0.2376
  127OSM   H16F13669   4.314   4.589   8.173 -0.9786 -0.0738  1.8519
  127OSM   H16G13670   4.143   4.635   8.121 -0.4067 -2.3003  4.0345
  127OSM   C17F13671   4.239   4.776   8.254  0.2605 -0.4211 -0.2029
  127OSM   H17F13672   4.159   4.850   8.232  0.1124 -1.0929 -2.1201
  127OSM   H17G13673   4.334   4.835   8.245  0.6191 -0.9047  0.3636
  127OSM   C18F13674   4.220   4.716   8.395  0.0700  0.2600  0.7689
  127OSM   H18F13675   4.274   4.768   8.477 -2.0609  1.7989  1.2778
  127OSM   H18G13676   4.251   4.609   8.403  1.3157  0.5034 -0.3555
  127OSM   H18H13677   4.115   4.726   8.431 -0.1089  0.0800  0.3062
  128OSM      N13678   5.605   1.203   6.092  0.2188  0.0028  0.1761
  128OSM    C1513679   5.574   1.291   5.970  0.4219 -0.4868  0.0598
  128OSM   H15A13680   5.645   1.261   5.895  0.5187  0.6971 -0.3359
  128OSM   H15B13681   5.589   1.393   6.002 -1.2040 -0.0212 -0.5419
  128OSM   H15C13682   5.471   1.282   5.937  0.3935 -1.3697  0.3588
  128OSM    C1413683   5.597   1.055   6.053  0.9678 -0.1807 -0.0823
  128OSM   H14A13684   5.636   0.992   6.132  0.8679  0.1715  0.2497
  128OSM   H14B13685   5.641   1.022   5.960  0.0186  1.0918 -1.0236
  128OSM   H14C13686   5.493   1.037   6.034  1.4305 -2.0969 -1.1134
  128OSM    C1313687   5.750   1.240   6.130 -0.3562 -0.0276  0.0583
  128OSM   H13A13688   5.820   1.219   6.051 -0.0489  0.6223  0.1541
  128OSM   H13B13689   5.790   1.186   6.214 -0.6079  2.1163  1.6220
  128OSM   H13C13690   5.752   1.346   6.148  1.2127 -0.1182  0.5171
  128OSM    C1213691   5.514   1.243   6.209  0.1221  0.0685 -0.2334
  128OSM   H12A13692   5.547   1.345   6.224 -0.0417  0.2895 -1.2790
  128OSM   H12B13693   5.547   1.187   6.295 -0.4510  0.7914  0.4641
  128OSM    C1113694   5.358   1.236   6.187 -0.1688 -0.6817 -0.0645
  128OSM   H11A13695   5.335   1.306   6.104  2.1203 -2.4348 -2.3344
  128OSM   H11B13696   5.301   1.270   6.276 -2.1729 -2.8120 -0.4122
  128OSM      P13697   5.296   1.003   6.268  0.2223 -0.5530 -0.0198
  128OSM    O1313698   5.152   0.961   6.254 -0.1172 -0.0488  0.2861
  128OSM    O1413699   5.398   0.902   6.268  0.1201  0.8320  0.3558
  128OSM    O1113700   5.310   1.084   6.409 -0.5135 -0.2677 -0.1347
  128OSM    O1213701   5.324   1.101   6.142  0.3849  0.1166  0.2212
  128OSM    C1S13702   5.276   1.008   6.532 -0.2338 -0.1540 -0.1294
  128OSM    H1S13703   5.371   0.956   6.556 -0.2318 -0.4858 -0.8173
  128OSM    H1T13704   5.203   0.927   6.514  0.2989 -0.4192 -1.2452
  128OSM     NF13705   5.248   1.041   6.764 -0.5994 -0.3011 -0.1106
  128OSM    HNF13706   5.178   1.039   6.834  1.6120  0.7560  2.3028
  128OSM    C2S13707   5.235   1.111   6.642  0.0139  0.0909  0.5743
  128OSM    H2S13708   5.308   1.196   6.642 -0.9173  0.9142  1.4393
  128OSM    C3S13709   5.099   1.174   6.612 -0.1937  0.4303 -0.9567
  128OSM    H3S13710   5.022   1.095   6.620  0.1753  0.1480 -0.1678
  128OSM     O313711   5.087   1.222   6.475  0.1968 -0.1678  0.0846
  128OSM    HO313712   5.159   1.191   6.420 -0.9039  0.0144 -1.5147
  128OSM    C4S13713   5.072   1.284   6.712  0.1098  0.0493 -0.0041
  128OSM    H4S13714   5.157   1.351   6.731 -0.0833  0.1298  0.5885
  128OSM    C5S13715   4.963   1.290   6.792  0.0757 -0.0542  0.3009
  128OSM    H5S13716   4.885   1.213   6.781 -0.6713 -0.0560  4.0548
  128OSM    C6S13717   4.940   1.402   6.899  0.4817 -0.1421 -0.0013
  128OSM    H6S13718   5.021   1.477   6.912  0.3026  0.1272 -0.4419
  128OSM    H6T13719   4.942   1.345   6.995  1.1282 -0.2519 -0.0724
  128OSM    C7S13720   4.800   1.461   6.884  0.0135 -0.5325  0.7915
  128OSM    H7S13721   4.726   1.384   6.853  0.4432 -0.9574  0.8065
  128OSM    H7T13722   4.811   1.533   6.800  0.7550 -2.0399 -0.4485
  128OSM    C8S13723   4.743   1.541   7.007 -0.3456  0.5703 -0.3057
  128OSM    H8S13724   4.636   1.554   6.978 -0.5604  0.8206  0.5573
  128OSM    H8T13725   4.795   1.638   7.025 -1.4976  0.8263  2.0444
  128OSM    C9S13726   4.756   1.461   7.141 -0.1719  0.3075  0.2276
  128OSM    H9S13727   4.862   1.430   7.152 -0.7418 -3.1687 -2.1186
  128OSM    H9T13728   4.699   1.366   7.144 -2.0308  1.4026  1.6627
  128OSM   C10S13729   4.708   1.552   7.253 -0.2564 -0.2754  0.0594
  128OSM   H10S13730   4.605   1.585   7.228 -0.3460 -1.9359 -2.0771
  128OSM   H10T13731   4.770   1.643   7.248 -0.8843  0.1024 -1.5333
  128OSM   C11S13732   4.709   1.484   7.390 -0.3266 -0.1136  0.4730
  128OSM   H11S13733   4.807   1.459   7.436 -0.5993  2.2652  2.5728
  128OSM   H11T13734   4.659   1.386   7.374 -2.2649  0.3925  2.8872
  128OSM   C12S13735   4.635   1.568   7.491 -0.5313 -0.7533 -0.3536
  128OSM   H12S13736   4.527   1.571   7.465 -0.7477 -1.1726  0.4706
  128OSM   H12T13737   4.678   1.669   7.472  1.5075 -1.9482 -2.5353
  128OSM   C13S13738   4.642   1.526   7.638 -0.7789  0.7349  0.4738
  128OSM   H13S13739   4.748   1.490   7.638 -1.4896 -1.5501  0.4987
  128OSM   H13T13740   4.580   1.436   7.659  1.7769 -1.7213 -1.7294
  128OSM   C14S13741   4.623   1.635   7.743  0.2838  0.2979 -0.0836
  128OSM   H14S13742   4.525   1.680   7.716  0.9778  0.4438 -2.6408
  128OSM   H14T13743   4.707   1.706   7.726  0.3282  0.2584 -0.0251
  128OSM   C15S13744   4.647   1.580   7.888 -0.8183  0.1161 -0.3208
  128OSM   H15S13745   4.565   1.514   7.921  0.5706 -0.2255  2.7336
  128OSM   H15T13746   4.630   1.660   7.963 -0.7490  0.1302 -0.3199
  128OSM   C16S13747   4.778   1.515   7.912 -0.6993  0.6522 -0.0127
  128OSM   H16S13748   4.858   1.592   7.919 -1.0403  0.8932  2.1287
  128OSM   H16T13749   4.805   1.443   7.831 -0.5740  0.5437  0.1241
  128OSM   C17S13750   4.782   1.426   8.038  0.3800  0.2020  0.0853
  128OSM   H17S13751   4.718   1.337   8.020 -1.4182  1.7496 -1.7741
  128OSM   H17T13752   4.739   1.477   8.127  0.2632  0.2995 -0.0276
  128OSM   C18S13753   4.922   1.371   8.077 -0.4465 -0.0853 -0.0234
  128OSM   H18S13754   4.992   1.456   8.091  0.5070 -0.9750  0.8085
  128OSM   H18T13755   4.966   1.313   7.992 -1.5124  2.4686 -2.4562
  128OSM   H18U13756   4.915   1.320   8.175 -2.5183  1.3667  0.6464
  128OSM    C1F13757   5.360   1.001   6.808 -0.3495  0.6373  0.9804
  128OSM     OF13758   5.468   1.040   6.772  0.0254 -0.6877  0.0707
  128OSM    C2F13759   5.347   0.893   6.914 -0.1973 -0.5390 -0.2334
  128OSM    H2F13760   5.424   0.815   6.895  0.7179  0.7186 -2.0282
  128OSM    H2G13761   5.244   0.852   6.916 -0.6311  0.3909 -1.8214
  128OSM    C3F13762   5.358   0.958   7.058  0.0467  0.5982  0.6825
  128OSM    H3F13763   5.287   1.043   7.070  0.0282  0.7390 -0.3102
  128OSM    H3G13764   5.461   0.990   7.084  0.4780  1.9165 -2.1920
  128OSM    C4F13765   5.311   0.851   7.160  0.6173  0.4983 -0.0610
  128OSM    H4F13766   5.394   0.778   7.173 -2.5465 -3.1764  1.3304
  128OSM    H4G13767   5.237   0.783   7.114  1.9764 -0.3687 -1.0640
  128OSM    C5F13768   5.272   0.909   7.296 -0.4389 -0.1292  1.3203
  128OSM    H5F13769   5.187   0.976   7.271 -1.3233 -1.2220  1.3449
  128OSM    H5G13770   5.361   0.972   7.319  0.2144  0.0071 -1.2396
  128OSM    C6F13771   5.246   0.812   7.406  0.0628  0.3722 -0.7381
  128OSM    H6F13772   5.339   0.754   7.425 -1.0034 -1.0746  0.2659
  128OSM    H6G13773   5.165   0.742   7.374 -0.0525  0.1619 -0.0140
  128OSM    C7F13774   5.225   0.871   7.546 -0.2583  0.3990  0.0473
  128OSM    H7F13775   5.159   0.961   7.547 -2.5238 -1.1769  1.0116
  128OSM    H7G13776   5.325   0.905   7.578  0.6185 -2.1482  0.2077
  128OSM    C8F13777   5.169   0.766   7.647 -0.0353 -0.9648  0.3858
  128OSM    H8F13778   5.245   0.686   7.657  0.7425 -0.2831 -0.0045
  128OSM    H8G13779   5.077   0.721   7.603 -0.6748  1.8529 -1.4219
  128OSM    C9F13780   5.139   0.842   7.776  0.0429  0.2869  0.1296
  128OSM    H9F13781   5.151   0.951   7.785 -0.0696  0.1397  2.8948
  128OSM   C10F13782   5.106   0.777   7.882 -0.4471  0.7800  0.0374
  128OSM   H10F13783   5.080   0.839   7.969 -0.0470  1.7790 -0.5312
  128OSM   C11F13784   5.107   0.627   7.896  0.3145  0.1109  0.0611
  128OSM   H11F13785   5.167   0.575   7.819  4.2487  3.7344  0.3127
  128OSM   H11G13786   5.000   0.597   7.889 -0.6876  2.2242  3.4409
  128OSM   C12F13787   5.167   0.571   8.033  0.3827  0.2392  0.5456
  128OSM   H12F13788   5.265   0.610   8.067  0.1626 -1.0225  2.8811
  128OSM   H12G13789   5.202   0.469   8.010  1.3723  0.9897 -1.4546
  128OSM   C13F13790   5.067   0.563   8.149  0.3961  0.5798 -0.3388
  128OSM   H13F13791   4.995   0.647   8.147  0.9222  1.0422 -0.0128
  128OSM   H13G13792   5.123   0.560   8.245 -1.1133  1.1879  0.5868
  128OSM   C14F13793   4.977   0.440   8.153  0.4027  0.0965 -0.3629
  128OSM   H14F13794   4.965   0.406   8.048  1.8091 -0.4971 -0.3408
  128OSM   H14G13795   4.873   0.463   8.186 -0.6463 -3.5922 -0.6607
  128OSM   C15F13796   5.020   0.328   8.256  0.3081  0.0271  0.1459
  128OSM   H15F13797   5.127   0.312   8.231  0.0501  0.4578 -1.3201
  128OSM   H15G13798   4.955   0.243   8.228 -0.5465  0.6876  0.0737
  128OSM   C16F13799   5.001   0.369   8.400  0.1404 -0.1194  0.0992
  128OSM   H16F13800   4.907   0.427   8.404  0.5438  0.5565 -0.1809
  128OSM   H16G13801   5.083   0.436   8.433  0.2747 -0.8324  1.2841
  128OSM   C17F13802   4.988   0.251   8.493  0.3784  0.6618 -0.1470
  128OSM   H17F13803   5.087   0.202   8.481  0.7033  1.6844 -1.9258
  128OSM   H17G13804   4.912   0.178   8.460  0.8446  1.5641 -3.5692
  128OSM   C18F13805   4.964   0.282   8.640 -0.7066  0.2813 -0.6992
  128OSM   H18F13806   5.023   0.220   8.710 -1.1559  0.3220 -0.2789
  128OSM   H18G13807   4.866   0.252   8.682  0.1611 -3.7205 -1.1612
  128OSM   H18H13808   4.981   0.390   8.662 -0.8163  0.0435  0.6489
  129OSM      N13809   2.866   4.774   6.299  0.3019  0.2772 -0.3712
  129OSM    C1513810   2.825   4.648   6.237 -0.0156 -0.0049 -0.0271
  129OSM   H15A13811   2.875   4.638   6.142  3.3398  3.3212  1.1643
  129OSM   H15B13812   2.717   4.638   6.235 -0.0025 -0.2490  0.3318
  129OSM   H15C13813   2.852   4.564   6.300 -1.7666 -0.7305 -0.1565
  129OSM    C1413814   2.788   4.882   6.222 -0.3240  0.3480 -0.6584
  129OSM   H14A13815   2.831   4.972   6.263  0.5490 -0.2268 -0.2660
  129OSM   H14B13816   2.683   4.886   6.246 -0.0350 -0.9259  1.0931
  129OSM   H14C13817   2.800   4.888   6.115 -2.5999  2.2701 -0.8746
  129OSM    C1313818   2.832   4.775   6.447 -0.0217  0.1726 -0.1930
  129OSM   H13A13819   2.894   4.705   6.502  0.8225  1.0263 -0.0233
  129OSM   H13B13820   2.727   4.754   6.452  0.0392 -0.6183 -1.6845
  129OSM   H13C13821   2.866   4.872   6.482 -0.0016 -0.0651  0.4529
  129OSM    C1213822   3.012   4.781   6.275 -0.5526 -0.2831 -0.9030
  129OSM   H12A13823   3.035   4.776   6.169  0.7417  1.4577 -0.7503
  129OSM   H12B13824   3.059   4.696   6.322  0.0089  1.3161  1.5919
  129OSM    C1113825   3.096   4.907   6.334  0.7964  0.4672  0.3808
  129OSM   H11A13826   3.201   4.876   6.317  0.1064 -1.9067  0.0704
  129OSM   H11B13827   3.073   4.908   6.443 -1.1015  0.4790  0.0124
  129OSM      P13828   3.135   5.112   6.178  0.1942 -0.1777  0.1530
  129OSM    O1313829   3.141   5.058   6.039 -0.5702  0.3497  0.0502
  129OSM    O1413830   3.093   5.252   6.184 -0.2168  0.1264 -0.6069
  129OSM    O1113831   3.282   5.105   6.246  0.1074 -0.2498 -0.1787
  129OSM    O1213832   3.042   5.031   6.273 -0.3016  1.0068 -0.4150
  129OSM    C1S13833   3.309   5.160   6.378  0.1330 -0.9559 -0.5919
  129OSM    H1S13834   3.219   5.194   6.433  1.9543  1.7291  0.9777
  129OSM    H1T13835   3.379   5.246   6.370  1.1550 -1.6191  0.8315
  129OSM     NF13836   3.364   5.107   6.613 -0.6307  0.2080  0.7393
  129OSM    HNF13837   3.441   5.154   6.654 -0.6784  1.5897 -0.6823
  129OSM    C2S13838   3.382   5.053   6.469  0.4397 -0.3185 -0.6778
  129OSM    H2S13839   3.325   4.958   6.472 -0.1016 -0.0123 -1.1042
  129OSM    C3S13840   3.524   5.034   6.412  0.1364  0.2505  0.2344
  129OSM    H3S13841   3.590   5.121   6.431 -0.3093  0.4217  1.0266
  129OSM     O313842   3.527   5.004   6.269  0.0860 -0.0503  0.2260
  129OSM    HO313843   3.443   5.032   6.233  0.7497  0.9105 -0.6420
  129OSM    C4S13844   3.587   4.914   6.484 -1.1484 -0.5268 -0.9415
  129OSM    H4S13845   3.545   4.814   6.466  1.2390 -1.6908 -0.3877
  129OSM    C5S13846   3.697   4.929   6.567  0.2422  0.1704 -0.1056
  129OSM    H5S13847   3.743   5.025   6.592  2.2700 -0.9287  0.5654
  129OSM    C6S13848   3.745   4.807   6.644 -0.1121 -0.5497  0.7259
  129OSM    H6S13849   3.834   4.766   6.592 -1.5686 -1.8541 -0.8511
  129OSM    H6T13850   3.670   4.725   6.651 -1.2452  0.4904  1.2019
  129OSM    C7S13851   3.776   4.858   6.794 -0.1838  0.0643  0.4139
  129OSM    H7S13852   3.692   4.906   6.848 -0.6703  0.3576 -0.5855
  129OSM    H7T13853   3.851   4.940   6.798 -1.8007  1.6048  0.3542
  129OSM    C8S13854   3.833   4.743   6.877 -0.2268  0.3091  0.0347
  129OSM    H8S13855   3.934   4.718   6.837 -0.5285  0.8509 -1.1133
  129OSM    H8T13856   3.764   4.656   6.868  0.7229 -0.5505  0.7289
  129OSM    C9S13857   3.829   4.782   7.029 -0.0526  0.7630 -0.0798
  129OSM    H9S13858   3.722   4.793   7.055 -0.5005  1.2557 -1.9909
  129OSM    H9T13859   3.897   4.867   7.051  0.2278 -0.0497  2.5903
  129OSM   C10S13860   3.881   4.671   7.121 -0.2537 -0.0748 -0.0950
  129OSM   H10S13861   3.984   4.634   7.101 -0.7994 -1.5893 -0.2536
  129OSM   H10T13862   3.816   4.581   7.118  0.7691 -1.0091  2.6055
  129OSM   C11S13863   3.860   4.709   7.271  0.1897 -0.3467 -0.6755
  129OSM   H11S13864   3.752   4.721   7.298  0.7173 -0.2052  1.5498
  129OSM   H11T13865   3.914   4.803   7.293  1.0955 -0.5502 -1.9550
  129OSM   C12S13866   3.924   4.596   7.351 -0.0951 -0.4137  0.0125
  129OSM   H12S13867   4.033   4.605   7.333 -0.2451  3.3943  0.3248
  129OSM   H12T13868   3.902   4.498   7.302  0.7876  0.5602 -2.4897
  129OSM   C13S13869   3.887   4.582   7.500  1.2435 -0.0340 -0.3610
  129OSM   H13S13870   3.776   4.575   7.509  1.1774  1.3777  0.1881
  129OSM   H13T13871   3.927   4.673   7.550  3.9993  0.2393 -2.7895
  129OSM   C14S13872   3.953   4.456   7.561 -0.5832 -0.1634 -0.5974
  129OSM   H14S13873   4.063   4.469   7.564 -0.7400  1.1254  1.4611
  129OSM   H14T13874   3.920   4.361   7.512 -2.5580  0.1471  0.0345
  129OSM   C15S13875   3.881   4.441   7.702 -0.0640  0.1097  0.5652
  129OSM   H15S13876   3.924   4.350   7.750 -0.9886  0.6865  2.6165
  129OSM   H15T13877   3.771   4.428   7.695 -0.6406  3.2634  1.7842
  129OSM   C16S13878   3.932   4.545   7.805 -0.4390  0.1112 -0.5322
  129OSM   H16S13879   3.893   4.647   7.788 -0.9041  0.6083  2.8220
  129OSM   H16T13880   4.043   4.553   7.799 -0.1790 -1.5892  0.8724
  129OSM   C17S13881   3.915   4.514   7.955  0.3641 -0.0453 -0.1151
  129OSM   H17S13882   3.964   4.596   8.012  1.1406  0.4261 -1.4232
  129OSM   H17T13883   3.969   4.423   7.989 -1.7482 -2.4957 -2.8226
  129OSM   C18S13884   3.772   4.507   7.995 -0.6737 -0.0434 -0.4989
  129OSM   H18S13885   3.760   4.463   8.096  1.8454 -1.1477 -0.6145
  129OSM   H18T13886   3.710   4.451   7.921 -0.7315 -1.6196  0.6892
  129OSM   H18U13887   3.730   4.608   8.012  0.7592  0.8909 -2.1595
  129OSM    C1F13888   3.260   5.082   6.687  0.4652 -0.2392  0.4035
  129OSM     OF13889   3.162   5.026   6.634  0.3000 -0.1362 -0.3640
  129OSM    C2F13890   3.270   5.110   6.833  0.0382 -0.6534 -0.5217
  129OSM    H2F13891   3.163   5.121   6.863  0.3505 -0.8209  0.7237
  129OSM    H2G13892   3.311   5.210   6.858  1.7761 -1.5444  0.3523
  129OSM    C3F13893   3.343   4.994   6.908  0.0478  0.2800 -0.3129
  129OSM    H3F13894   3.450   5.005   6.878 -0.3787  0.3639 -1.8788
  129OSM    H3G13895   3.304   4.899   6.866 -0.6786  0.5529 -0.2632
  129OSM    C4F13896   3.320   5.011   7.052 -0.4430 -0.7886 -0.1180
  129OSM    H4F13897   3.213   5.041   7.060 -0.1138  0.7202 -0.9685
  129OSM    H4G13898   3.384   5.097   7.081 -0.2178 -1.0429  0.1316
  129OSM    C5F13899   3.368   4.893   7.130 -0.0930  0.7664 -0.2599
  129OSM    H5F13900   3.478   4.899   7.118 -0.1874  1.3255 -0.9001
  129OSM    H5G13901   3.343   4.792   7.091  2.8351 -0.7713  1.5421
  129OSM    C6F13902   3.352   4.907   7.284 -0.3529 -0.8719 -0.2158
  129OSM    H6F13903   3.244   4.906   7.310 -0.5019 -1.1339 -0.8322
  129OSM    H6G13904   3.390   5.004   7.322  0.1480 -1.5162  1.0084
  129OSM    C7F13905   3.419   4.790   7.369  1.0285 -0.8083 -0.3250
  129OSM    H7F13906   3.525   4.791   7.338  1.4973 -0.4982  1.1909
  129OSM    H7G13907   3.371   4.694   7.339  1.8597 -1.7355  1.1511
  129OSM    C8F13908   3.408   4.810   7.520 -0.4338 -0.2173 -0.1139
  129OSM    H8F13909   3.304   4.784   7.548 -0.0802 -1.3868  0.1865
  129OSM    H8G13910   3.418   4.919   7.538  0.1728 -0.2976  0.0693
  129OSM    C9F13911   3.508   4.719   7.593  0.3659 -0.0063  0.3703
  129OSM    H9F13912   3.616   4.731   7.577  0.4345  0.9288  1.3603
  129OSM   C10F13913   3.479   4.638   7.690  0.4009  0.0648 -1.2671
  129OSM   H10F13914   3.558   4.580   7.741  0.4656  1.5900  0.5011
  129OSM   C11F13915   3.348   4.614   7.746 -0.0013 -0.2116  0.0827
  129OSM   H11F13916   3.338   4.508   7.777  2.7538  0.2900  3.2103
  129OSM   H11G13917   3.263   4.643   7.681 -1.1879 -3.0583  0.1935
  129OSM   C12F13918   3.321   4.696   7.873 -0.0899 -0.4626  0.8382
  129OSM   H12F13919   3.215   4.688   7.902 -1.0941  1.7586 -1.7213
  129OSM   H12G13920   3.330   4.803   7.844 -1.6376 -0.8093 -1.1392
  129OSM   C13F13921   3.416   4.665   7.993  0.2056 -0.2080  0.7379
  129OSM   H13F13922   3.521   4.696   7.975 -0.1418  0.4894 -0.1523
  129OSM   H13G13923   3.410   4.554   7.999 -0.2214 -0.2086  0.3605
  129OSM   C14F13924   3.386   4.729   8.125 -0.2071  0.0192  0.0007
  129OSM   H14F13925   3.473   4.695   8.184  0.9070  0.7587 -1.1708
  129OSM   H14G13926   3.304   4.687   8.187 -0.4434 -0.7466 -0.8126
  129OSM   C15F13927   3.378   4.882   8.118 -1.1537  0.3376  0.1226
  129OSM   H15F13928   3.291   4.908   8.054 -0.6156  0.8740 -0.4222
  129OSM   H15G13929   3.470   4.924   8.071 -0.5206  1.0465  1.9135
  129OSM   C16F13930   3.375   4.959   8.256 -0.2912 -0.4268 -0.9987
  129OSM   H16F13931   3.366   5.067   8.234  2.0641 -0.0103 -0.1736
  129OSM   H16G13932   3.477   4.963   8.299 -0.4944 -1.2024 -0.4155
  129OSM   C17F13933   3.265   4.913   8.349 -0.3623  0.5869  0.5843
  129OSM   H17F13934   3.192   4.857   8.286  0.7005  0.5695 -0.7030
  129OSM   H17G13935   3.218   5.007   8.382 -1.1138  0.7864 -0.9634
  129OSM   C18F13936   3.299   4.834   8.482  0.0936  0.3786 -0.1097
  129OSM   H18F13937   3.321   4.902   8.567 -2.3296  2.2286 -0.8414
  129OSM   H18G13938   3.380   4.759   8.467  0.5574  0.4933  1.5940
  129OSM   H18H13939   3.209   4.775   8.506  0.4348  0.3074  1.0561
  130OSM      N13940   6.187   6.646   6.265  0.3317  0.1688  0.2077
  130OSM    C1513941   6.096   6.533   6.266 -0.3043  0.2715 -0.0360
  130OSM   H15A13942   6.055   6.505   6.170 -1.5790 -1.5972  0.9830
  130OSM   H15B13943   6.004   6.549   6.321 -1.2162 -2.0001 -0.7449
  130OSM   H15C13944   6.140   6.441   6.302 -0.0768 -0.7469 -2.6628
  130OSM    C1413945   6.239   6.676   6.406  0.2744 -0.1829 -0.2288
  130OSM   H14A13946   6.309   6.758   6.417 -2.1316  2.0272 -0.5120
  130OSM   H14B13947   6.291   6.587   6.440  0.8907 -0.0845 -0.8757
  130OSM   H14C13948   6.160   6.701   6.475 -0.1069 -0.5820 -0.5194
  130OSM    C1313949   6.303   6.611   6.176  0.1950 -0.2291  0.1602
  130OSM   H13A13950   6.279   6.549   6.091  0.9415 -0.6842  0.2689
  130OSM   H13B13951   6.365   6.541   6.232  1.4780  0.3472 -0.4882
  130OSM   H13C13952   6.358   6.699   6.146 -0.6914 -0.1020 -1.1273
  130OSM    C1213953   6.114   6.759   6.196  0.1151 -0.6255  0.6807
  130OSM   H12A13954   6.066   6.739   6.102 -1.2041 -1.0810  1.4235
  130OSM   H12B13955   6.193   6.830   6.176 -1.8074  1.4291 -0.0133
  130OSM    C1113956   6.015   6.834   6.282  1.2478 -0.0285 -0.3347
  130OSM   H11A13957   6.055   6.832   6.386  0.8275 -1.2949 -0.1863
  130OSM   H11B13958   5.926   6.767   6.282  0.6342  0.7405  0.9147
  130OSM      P13959   6.113   7.067   6.230  0.0848  0.0818 -1.0926
  130OSM    O1313960   6.197   7.021   6.121  0.6612  0.3221 -0.8110
  130OSM    O1413961   6.070   7.207   6.228  0.2258  0.0712  0.1281
  130OSM    O1113962   6.196   7.044   6.359 -0.5391 -0.2311 -0.1444
  130OSM    O1213963   5.996   6.966   6.235  0.2569 -0.3409 -0.5306
  130OSM    C1S13964   6.141   7.095   6.480  0.0104 -0.0231  0.0462
  130OSM    H1S13965   6.036   7.065   6.500 -0.0270 -0.4415 -0.7458
  130OSM    H1T13966   6.141   7.206   6.489 -1.4249 -0.1271  1.9716
  130OSM     NF13967   6.161   7.115   6.722  0.7542  0.1948 -0.3465
  130OSM    HNF13968   6.204   7.192   6.768  2.2647  0.5681 -2.2816
  130OSM    C2S13969   6.223   7.050   6.610  0.3149 -0.0190 -0.0847
  130OSM    H2S13970   6.197   6.943   6.626 -1.0221  0.5268  1.9287
  130OSM    C3S13971   6.376   7.071   6.594  0.7021 -0.5822  0.3996
  130OSM    H3S13972   6.377   7.182   6.594  0.3226 -0.5736 -0.1328
  130OSM     O313973   6.430   7.019   6.477 -0.0923  0.6992 -0.0278
  130OSM    HO313974   6.352   7.017   6.420 -2.4015 -0.6914  2.9349
  130OSM    C4S13975   6.449   7.014   6.710 -0.5210 -0.3332 -0.2875
  130OSM    H4S13976   6.457   6.905   6.697  0.2510 -0.0229 -3.1126
  130OSM    C5S13977   6.498   7.088   6.810  0.1260 -0.2390  0.9085
  130OSM    H5S13978   6.486   7.197   6.808  3.0130  0.1537  0.5088
  130OSM    C6S13979   6.566   7.040   6.935  0.0071  0.1655 -0.1271
  130OSM    H6S13980   6.647   7.109   6.967 -0.0817  0.8509 -1.3399
  130OSM    H6T13981   6.610   6.939   6.924 -1.5195 -0.5869  0.2738
  130OSM    C7S13982   6.470   7.031   7.055  1.1660 -0.3329  0.0020
  130OSM    H7S13983   6.374   6.985   7.024  0.4109  0.4962  1.0382
  130OSM    H7T13984   6.442   7.136   7.077  0.4217  0.3427 -3.5351
  130OSM    C8S13985   6.528   6.962   7.178 -0.1702  0.0104 -0.1134
  130OSM    H8S13986   6.638   6.960   7.158  0.0083 -1.8600  0.8479
  130OSM    H8T13987   6.497   6.856   7.164  0.6916 -0.0931 -1.4783
  130OSM    C9S13988   6.496   7.030   7.312  0.0911  0.3417  0.7256
  130OSM    H9S13989   6.387   7.055   7.313  0.2580  1.2640 -0.5025
  130OSM    H9T13990   6.549   7.128   7.310 -1.4461  1.2150  0.8435
  130OSM   C10S13991   6.539   6.959   7.436 -0.3534 -0.3714  0.3445
  130OSM   H10S13992   6.650   6.953   7.438 -0.3776 -1.0183  0.1181
  130OSM   H10T13993   6.503   6.854   7.428 -1.3630  0.0273 -0.6889
  130OSM   C11S13994   6.479   7.018   7.565 -0.3696 -0.1902  0.7153
  130OSM   H11S13995   6.370   7.020   7.546  0.1075  0.5669 -2.5941
  130OSM   H11T13996   6.509   7.125   7.570  0.2544 -0.2533 -0.8915
  130OSM   C12S13997   6.496   6.942   7.698 -0.7136 -0.3958  1.1126
  130OSM   H12S13998   6.594   6.889   7.693  0.7296  2.2307 -0.4742
  130OSM   H12T13999   6.414   6.867   7.696  0.2159 -1.5413 -2.4215
  130OSM   C13S14000   6.494   7.016   7.831  0.6073 -0.3392  0.4462
  130OSM   H13S14001   6.414   7.092   7.831  1.3489  0.4830  1.8019
  130OSM   H13T14002   6.588   7.075   7.829  0.3284  0.1589  1.3885
  130OSM   C14S14003   6.476   6.925   7.956  0.1913  0.1227 -0.2625
  130OSM   H14S14004   6.568   6.864   7.967 -0.5753 -1.5057 -2.3068
  130OSM   H14T14005   6.403   6.842   7.953 -0.9498  1.1437 -1.5145
  130OSM   C15S14006   6.439   7.007   8.086  0.2915 -0.2635 -0.4815
  130OSM   H15S14007   6.344   7.056   8.054 -0.6346 -2.8723 -2.0334
  130OSM   H15T14008   6.526   7.074   8.104  0.2207  0.1341 -1.5709
  130OSM   C16S14009   6.414   6.934   8.213 -0.0073 -0.1128 -0.5103
  130OSM   H16S14010   6.511   6.888   8.243  0.4997  1.4890  0.4463
  130OSM   H16T14011   6.337   6.856   8.196 -1.1408  0.9081 -0.1608
  130OSM   C17S14012   6.366   7.025   8.328  0.1908  0.0846  0.1527
  130OSM   H17S14013   6.336   6.955   8.409 -0.6508  0.9764  0.6153
  130OSM   H17T14014   6.276   7.083   8.300  1.8214  1.3820 -2.8349
  130OSM   C18S14015   6.472   7.119   8.395 -0.7801  0.0054  0.5521
  130OSM   H18S14016   6.541   7.068   8.465  0.9246 -0.5861 -1.4653
  130OSM   H18T14017   6.424   7.192   8.464 -0.0910 -0.3286  1.4062
  130OSM   H18U14018   6.536   7.163   8.316 -1.4560 -1.0019 -0.5735
  130OSM    C1F14019   6.038   7.076   6.774 -0.3721  0.3560 -0.3760
  130OSM     OF14020   5.989   6.977   6.737  0.4941  0.1636  0.0025
  130OSM    C2F14021   5.984   7.155   6.889  0.3442 -0.0438 -0.0761
  130OSM    H2F14022   5.987   7.263   6.861 -1.9749 -0.4745 -2.2836
  130OSM    H2G14023   6.056   7.133   6.971 -0.4879  1.8328  1.2349
  130OSM    C3F14024   5.843   7.113   6.925 -0.2469 -0.0049 -0.5850
  130OSM    H3F14025   5.861   7.008   6.956 -0.3598  1.3039  4.8880
  130OSM    H3G14026   5.775   7.122   6.837 -0.7692 -2.2600 -0.4582
  130OSM    C4F14027   5.775   7.175   7.046  0.8888  0.3776 -0.0987
  130OSM    H4F14028   5.677   7.129   7.072  0.3147  2.0051  0.7885
  130OSM    H4G14029   5.735   7.275   7.020 -2.5991 -1.0960 -0.9812
  130OSM    C5F14030   5.860   7.193   7.175 -0.7172 -0.1839  0.8160
  130OSM    H5F14031   5.804   7.257   7.246 -1.5439 -3.2216  3.1362
  130OSM    H5G14032   5.958   7.238   7.147  0.4660 -2.0289  1.7728
  130OSM    C6F14033   5.878   7.057   7.245 -0.2816 -0.0080 -0.5536
  130OSM    H6F14034   5.887   6.982   7.163 -3.6059  0.0134 -1.0951
  130OSM    H6G14035   5.783   7.032   7.296 -0.5980  0.3018 -0.9857
  130OSM    C7F14036   6.000   7.069   7.338 -0.0284 -0.2023  0.0057
  130OSM    H7F14037   6.085   7.121   7.288 -0.4558 -0.5948 -1.1535
  130OSM    H7G14038   6.045   6.968   7.347  0.6005 -0.0374 -1.1276
  130OSM    C8F14039   5.966   7.119   7.476  0.9159 -0.2679  0.2854
  130OSM    H8F14040   5.930   7.223   7.457 -1.4527 -1.3177 -1.3203
  130OSM    H8G14041   6.064   7.128   7.529  0.8154 -0.6074  0.5302
  130OSM    C9F14042   5.869   7.038   7.556  0.5258  0.3000  0.0471
  130OSM    H9F14043   5.768   7.031   7.514  1.3312  0.0006 -1.9529
  130OSM   C10F14044   5.898   6.969   7.671  1.7171 -0.3217  0.2389
  130OSM   H10F14045   5.814   6.922   7.724  0.0282  1.0064 -1.1058
  130OSM   C11F14046   6.032   6.963   7.731  0.8418 -0.5685  0.5594
  130OSM   H11F14047   6.073   7.065   7.717 -2.0391  0.5240 -0.7591
  130OSM   H11G14048   6.095   6.892   7.673  0.3305  1.6839 -3.0841
  130OSM   C12F14049   6.019   6.931   7.875 -0.1801  0.3931 -0.2524
  130OSM   H12F14050   6.119   6.908   7.919 -0.6816  0.4485  0.9480
  130OSM   H12G14051   5.979   6.829   7.889  1.0072 -0.0507  0.0766
  130OSM   C13F14052   5.938   7.040   7.952  0.3088  0.2281 -0.0530
  130OSM   H13F14053   5.833   7.042   7.914  0.9584 -1.1982 -2.1066
  130OSM   H13G14054   5.976   7.140   7.921  1.4892 -0.0241  0.5534
  130OSM   C14F14055   5.936   7.025   8.105  0.1093 -0.6373  0.0577
  130OSM   H14F14056   5.883   7.117   8.137  1.5028  1.2306 -2.6243
  130OSM   H14G14057   6.043   7.029   8.136 -0.2657 -1.3192  1.5368
  130OSM   C15F14058   5.879   6.892   8.145  1.2867  0.3556  0.1172
  130OSM   H15F14059   5.935   6.804   8.106 -0.1121  0.6491 -2.7990
  130OSM   H15G14060   5.776   6.884   8.106  1.8637 -3.5176 -1.0828
  130OSM   C16F14061   5.871   6.887   8.302 -0.0168  0.7577 -0.7647
  130OSM   H16F14062   5.833   6.788   8.334 -2.9691  2.2369  0.7613
  130OSM   H16G14063   5.790   6.952   8.343  1.6271  1.7828  1.0319
  130OSM   C17F14064   6.008   6.914   8.368  0.1952 -0.2282 -0.5612
  130OSM   H17F14065   6.042   7.019   8.355 -3.9595  1.7090  2.1920
  130OSM   H17G14066   6.080   6.841   8.325 -1.2372 -2.3879  0.5300
  130OSM   C18F14067   5.992   6.883   8.520  0.3109  0.4294  0.6292
  130OSM   H18F14068   5.929   6.959   8.571 -0.4485 -0.4799  1.0759
  130OSM   H18G14069   6.091   6.887   8.569  0.7716  0.1400 -0.2560
  130OSM   H18H14070   5.949   6.782   8.536 -0.6944  1.1804  3.3024
  131OSM      N14071   4.458   3.886   5.531 -0.8225 -0.0848  0.2994
  131OSM    C1514072   4.477   3.742   5.567  0.1079  0.0564  0.4982
  131OSM   H15A14073   4.518   3.740   5.666  0.3739  1.1519  0.4245
  131OSM   H15B14074   4.552   3.688   5.511 -0.5667  0.4206 -0.7962
  131OSM   H15C14075   4.381   3.692   5.570  0.2231 -0.4540 -1.9912
  131OSM    C1414076   4.590   3.955   5.529  0.3269 -0.3943 -0.7536
  131OSM   H14A14077   4.584   4.061   5.509  0.3881 -0.0800  0.7952
  131OSM   H14B14078   4.661   3.912   5.459  0.2240  0.7507 -1.6046
  131OSM   H14C14079   4.630   3.955   5.629 -4.3769  0.6196  1.3802
  131OSM    C1314080   4.405   3.875   5.387  0.0087 -0.6966  0.4782
  131OSM   H13A14081   4.305   3.834   5.379  0.3180 -1.2064 -1.0264
  131OSM   H13B14082   4.468   3.817   5.321  1.0671  1.8774 -0.9025
  131OSM   H13C14083   4.411   3.974   5.346  4.0030 -1.6522 -1.7287
  131OSM    C1214084   4.358   3.952   5.626  0.1457  0.1634 -0.2676
  131OSM   H12A14085   4.262   3.905   5.606  0.5806 -1.1284  0.5710
  131OSM   H12B14086   4.343   4.053   5.589 -0.7044 -0.1045 -0.6980
  131OSM    C1114087   4.401   3.959   5.772  0.1125  0.3917 -0.8743
  131OSM   H11A14088   4.316   3.993   5.834  0.0914 -1.1726 -0.0126
  131OSM   H11B14089   4.474   4.044   5.774 -0.6731  1.0845  1.4244
  131OSM      P14090   4.546   3.866   5.958  0.4598  0.4936  0.0818
  131OSM    O1314091   4.688   3.843   5.923 -0.8782 -0.3688 -0.1552
  131OSM    O1414092   4.496   3.989   6.021  0.6014 -0.0080 -0.1783
  131OSM    O1114093   4.498   3.744   6.040  0.0031  0.4935  0.5799
  131OSM    O1214094   4.455   3.839   5.829 -0.0531  0.3368  0.4501
  131OSM    C1S14095   4.573   3.710   6.154  0.2553 -0.2419 -1.4204
  131OSM    H1S14096   4.681   3.739   6.153  0.2630 -0.0178  0.5277
  131OSM    H1T14097   4.563   3.601   6.174 -1.6027  0.0789 -0.4206
  131OSM     NF14098   4.611   3.786   6.387  0.5285 -0.1458 -0.2190
  131OSM    HNF14099   4.589   3.751   6.478 -1.9240  3.5667  0.8278
  131OSM    C2S14100   4.507   3.770   6.285 -0.1937  0.5999 -0.0482
  131OSM    H2S14101   4.472   3.872   6.259  0.3807  0.9757  0.5976
  131OSM    C3S14102   4.391   3.679   6.330  0.3098 -0.1715 -0.4894
  131OSM    H3S14103   4.437   3.584   6.364  0.7694 -0.0169 -0.6820
  131OSM     O314104   4.292   3.649   6.232  0.4683 -0.0177  0.7652
  131OSM    HO314105   4.341   3.676   6.154 -1.0293  0.0515 -0.2178
  131OSM    C4S14106   4.322   3.739   6.453  0.3914  0.3350  0.4776
  131OSM    H4S14107   4.340   3.667   6.534 -1.2739 -1.8545 -0.9907
  131OSM    C5S14108   4.244   3.844   6.447  0.2624  0.2156 -0.5530
  131OSM    H5S14109   4.231   3.899   6.353 -0.4135  1.2394  0.1198
  131OSM    C6S14110   4.167   3.893   6.563 -0.2714 -0.8622 -0.2867
  131OSM    H6S14111   4.058   3.900   6.544 -0.6734 -1.4236  1.6054
  131OSM    H6T14112   4.199   3.995   6.593 -1.2791 -0.8635  0.8980
  131OSM    C7S14113   4.174   3.815   6.693 -0.5846  0.2024 -0.1156
  131OSM    H7S14114   4.269   3.823   6.751 -0.8202 -0.5448  0.3865
  131OSM    H7T14115   4.139   3.712   6.669  1.4987 -0.3330 -1.0810
  131OSM    C8S14116   4.086   3.875   6.804  0.0440  0.6824 -0.6761
  131OSM    H8S14117   3.984   3.900   6.767  0.5278 -0.5812 -3.0917
  131OSM    H8T14118   4.114   3.978   6.834 -1.1777  0.4059  1.6437
  131OSM    C9S14119   4.083   3.798   6.939  0.7856 -0.4734  0.1599
  131OSM    H9S14120   4.013   3.843   7.012 -1.7772 -1.3283 -1.6182
  131OSM    H9T14121   4.181   3.808   6.990  0.3728  3.9046  0.4156
  131OSM   C10S14122   4.063   3.651   6.927  0.0746  0.0547 -0.8017
  131OSM   H10S14123   4.145   3.608   6.865  1.8570 -0.8497  1.9734
  131OSM   H10T14124   3.965   3.645   6.875 -0.7043 -1.3880  0.7151
  131OSM   C11S14125   4.068   3.557   7.056  0.3683 -0.0243  0.6036
  131OSM   H11S14126   4.167   3.548   7.107  1.1502 -2.0854 -1.1423
  131OSM   H11T14127   4.062   3.453   7.019  0.0657 -0.8919  2.9398
  131OSM   C12S14128   3.953   3.583   7.161 -0.3506  0.0940 -0.1174
  131OSM   H12S14129   3.859   3.587   7.102 -0.7097 -0.0453  0.4413
  131OSM   H12T14130   3.968   3.684   7.204  0.3898  0.5345 -1.3565
  131OSM   C13S14131   3.943   3.489   7.267  0.2918 -0.3530 -0.2144
  131OSM   H13S14132   3.959   3.387   7.225  1.9355  0.1623 -0.9061
  131OSM   H13T14133   3.847   3.491   7.323  0.0350  1.5819 -0.6601
  131OSM   C14S14134   4.050   3.519   7.372 -0.5410 -0.3042 -0.6068
  131OSM   H14S14135   4.028   3.608   7.436 -2.4867  0.2403 -1.9350
  131OSM   H14T14136   4.154   3.528   7.335 -0.0360 -0.0443  0.7993
  131OSM   C15S14137   4.046   3.402   7.472 -0.8410  0.5195  0.2699
  131OSM   H15S14138   4.052   3.309   7.411 -1.9995 -0.0942  1.0429
  131OSM   H15T14139   3.946   3.394   7.519 -0.7426 -0.3626  0.3482
  131OSM   C16S14140   4.150   3.382   7.577  0.1095 -0.0256  0.7282
  131OSM   H16S14141   4.246   3.400   7.523 -1.0785  1.8647 -0.8520
  131OSM   H16T14142   4.140   3.279   7.618 -0.7082 -0.0329  0.5097
  131OSM   C17S14143   4.132   3.488   7.687  1.1230 -0.5060 -0.4805
  131OSM   H17S14144   4.043   3.544   7.652 -0.7137 -1.1774  2.7880
  131OSM   H17T14145   4.220   3.556   7.689 -1.0686  2.5309 -0.0924
  131OSM   C18S14146   4.103   3.433   7.828 -0.2721 -0.6233 -0.1308
  131OSM   H18S14147   4.102   3.507   7.911 -0.0636  0.4973 -1.1165
  131OSM   H18T14148   4.177   3.355   7.860 -0.6500 -1.5298 -1.4127
  131OSM   H18U14149   4.004   3.383   7.820  0.9658 -3.0673 -1.3452
  131OSM    C1F14150   4.719   3.861   6.376  0.0886  0.0521 -0.3354
  131OSM     OF14151   4.734   3.926   6.275 -0.1227 -0.1705  0.2861
  131OSM    C2F14152   4.820   3.847   6.490 -0.5372  0.1562  0.3642
  131OSM    H2F14153   4.925   3.859   6.456 -0.3168  0.8436  1.2508
  131OSM    H2G14154   4.806   3.750   6.543 -2.5190 -0.2751 -0.8418
  131OSM    C3F14155   4.796   3.967   6.589 -0.0477 -0.3489 -0.1330
  131OSM    H3F14156   4.686   3.973   6.608  0.3151  1.2627  1.7588
  131OSM    H3G14157   4.823   4.065   6.544 -0.4081  0.3704  1.1297
  131OSM    C4F14158   4.867   3.950   6.722 -0.7860 -0.7523 -0.2195
  131OSM    H4F14159   4.972   3.931   6.693 -0.4906 -0.8690  0.9068
  131OSM    H4G14160   4.822   3.862   6.774 -1.7522 -0.7188 -0.9537
  131OSM    C5F14161   4.870   4.074   6.809  0.6825 -1.2431 -0.0717
  131OSM    H5F14162   4.769   4.118   6.822  1.5715  0.8917 -0.0133
  131OSM    H5G14163   4.920   4.161   6.762  0.1257 -2.4064 -3.0263
  131OSM    C6F14164   4.932   4.064   6.942 -0.3781  1.0922  0.3371
  131OSM    H6F14165   5.039   4.034   6.940 -0.9773 -1.2431  0.3202
  131OSM    H6G14166   4.886   3.982   7.002  3.0692 -1.1214  0.2036
  131OSM    C7F14167   4.926   4.201   7.031 -0.7358 -0.5450  0.5527
  131OSM    H7F14168   4.819   4.231   7.033 -1.2490 -1.6598 -2.6690
  131OSM    H7G14169   4.987   4.275   6.976 -0.7654  1.4063  3.0025
  131OSM    C8F14170   4.993   4.184   7.170  0.2921 -0.4357 -0.1662
  131OSM    H8F14171   5.033   4.279   7.211 -1.2902  0.3987 -0.4535
  131OSM    H8G14172   5.070   4.104   7.173 -0.7329 -1.4692 -0.3454
  131OSM    C9F14173   4.881   4.131   7.264  0.0169 -0.2483  0.2972
  131OSM    H9F14174   4.828   4.049   7.214  0.7196  1.0841 -2.8647
  131OSM   C10F14175   4.854   4.169   7.384  0.7472  0.4752 -0.3590
  131OSM   H10F14176   4.774   4.118   7.440  1.0133  0.2492 -0.1816
  131OSM   C11F14177   4.911   4.276   7.463 -0.9381 -0.3040 -0.0073
  131OSM   H11F14178   4.833   4.348   7.494 -0.7792  0.4849 -1.3557
  131OSM   H11G14179   4.989   4.332   7.408  1.0935  0.3033  3.2349
  131OSM   C12F14180   4.982   4.218   7.581  0.3313  0.4583 -0.2713
  131OSM   H12F14181   5.039   4.295   7.638  1.0934 -0.0926 -0.2763
  131OSM   H12G14182   5.071   4.157   7.555 -0.0810 -0.1874 -0.2009
  131OSM   C13F14183   4.896   4.135   7.678 -0.4243  0.0208 -0.0647
  131OSM   H13F14184   4.896   4.026   7.654  1.5938  0.0221 -0.2497
  131OSM   H13G14185   4.791   4.169   7.695 -1.6915 -2.5709 -1.9055
  131OSM   C14F14186   4.945   4.148   7.825 -0.3809  0.1668  0.1311
  131OSM   H14F14187   4.968   4.253   7.855 -1.2477  0.3658  0.1294
  131OSM   H14G14188   5.042   4.095   7.826 -1.4021 -1.8891 -1.3643
  131OSM   C15F14189   4.856   4.079   7.929  0.4186  0.4600 -0.3979
  131OSM   H15F14190   4.837   3.970   7.920  1.4374 -0.0830  2.6496
  131OSM   H15G14191   4.759   4.133   7.933  1.8708  3.3348 -0.7837
  131OSM   C16F14192   4.918   4.093   8.073 -0.3272  0.1625  0.7697
  131OSM   H16F14193   4.949   4.199   8.085 -0.1946  0.3942 -1.2343
  131OSM   H16G14194   5.014   4.041   8.053  1.1286  2.9437 -0.1313
  131OSM   C17F14195   4.842   4.041   8.197  0.0984  0.0255 -0.1274
  131OSM   H17F14196   4.916   4.034   8.280  0.4972 -1.0791 -0.5521
  131OSM   H17G14197   4.821   3.933   8.182  2.5064 -0.5559  0.2823
  131OSM   C18F14198   4.731   4.138   8.238  0.1833 -0.2518  0.0262
  131OSM   H18F14199   4.702   4.112   8.342  0.1268 -0.3272 -0.0087
  131OSM   H18G14200   4.645   4.141   8.167  0.0875  1.7863  0.1658
  131OSM   H18H14201   4.759   4.246   8.245  0.7745 -0.3794 -0.3269
  132OSM      N14202   6.099   4.240   5.978 -0.6965  0.3070 -0.2951
  132OSM    C1514203   6.005   4.232   5.865 -0.1429  0.4195 -0.0586
  132OSM   H15A14204   5.931   4.310   5.866  0.7726  1.3679  2.1716
  132OSM   H15B14205   5.947   4.142   5.868 -0.1727  0.3052 -2.3276
  132OSM   H15C14206   6.052   4.240   5.768 -1.3554  2.2933 -0.5313
  132OSM    C1414207   6.178   4.110   5.993 -0.1601  0.0610  0.0320
  132OSM   H14A14208   6.107   4.030   5.983  0.5382 -0.7972  1.6689
  132OSM   H14B14209   6.240   4.107   6.081  0.4640  1.0926 -0.3489
  132OSM   H14C14210   6.234   4.097   5.901 -0.7730 -0.0057 -0.3412
  132OSM    C1314211   6.204   4.342   5.957  0.1115  0.0565 -0.3630
  132OSM   H13A14212   6.265   4.337   6.047 -1.4423 -0.5096  0.6978
  132OSM   H13B14213   6.155   4.438   5.959 -1.0412 -0.4986 -1.0240
  132OSM   H13C14214   6.265   4.323   5.870 -1.4046  1.8501 -1.9118
  132OSM    C1214215   6.019   4.267   6.107 -0.2898  0.1911 -0.6636
  132OSM   H12A14216   5.941   4.194   6.122 -0.7694  0.6281 -0.9917
  132OSM   H12B14217   5.972   4.364   6.097  1.9274  1.5190  0.8963
  132OSM    C1114218   6.102   4.275   6.238  0.2237 -0.0389  0.0255
  132OSM   H11A14219   6.057   4.338   6.318 -0.0275  1.5398 -1.2969
  132OSM   H11B14220   6.189   4.344   6.228  0.2327 -0.0788 -0.1776
  132OSM      P14221   6.044   4.046   6.354  0.3483  0.1594 -0.0863
  132OSM    O1314222   5.956   3.985   6.248 -0.5405  0.3172  0.5053
  132OSM    O1414223   6.128   3.953   6.422  0.2357  0.2174 -0.4527
  132OSM    O1114224   5.967   4.123   6.458 -0.2251 -0.4558 -0.4402
  132OSM    O1214225   6.144   4.156   6.289  0.0775 -0.0357 -0.4595
  132OSM    C1S14226   5.824   4.126   6.486 -0.6420  0.1523 -0.5230
  132OSM    H1S14227   5.788   4.021   6.475  1.9759 -0.6357 -2.7669
  132OSM    H1T14228   5.770   4.197   6.419 -1.7168  3.1368  3.1868
  132OSM     NF14229   5.681   4.155   6.688  0.7337 -0.7245  0.3703
  132OSM    HNF14230   5.608   4.221   6.674  0.7939  0.5040  4.5463
  132OSM    C2S14231   5.808   4.183   6.630 -0.4649 -0.7042 -0.5231
  132OSM    H2S14232   5.890   4.132   6.684  0.4264  0.4397 -0.7555
  132OSM    C3S14233   5.839   4.341   6.635 -0.0391 -0.3079 -0.0653
  132OSM    H3S14234   5.766   4.398   6.574 -0.0634 -1.5410 -1.2314
  132OSM     O314235   5.964   4.368   6.567  0.0548 -0.2751  0.1733
  132OSM    HO314236   5.980   4.285   6.521  0.6305 -0.1773  0.1888
  132OSM    C4S14237   5.848   4.398   6.775  0.2381  1.0308  0.1342
  132OSM    H4S14238   5.745   4.418   6.809 -0.4921  0.6043 -1.7115
  132OSM    C5S14239   5.951   4.409   6.860 -0.5485 -0.5247 -0.3193
  132OSM    H5S14240   6.048   4.375   6.823 -1.1176 -0.3434 -2.0389
  132OSM    C6S14241   5.950   4.457   7.004 -0.4022 -0.2452  0.0853
  132OSM    H6S14242   6.004   4.383   7.067  2.0702  2.7644  1.8222
  132OSM    H6T14243   5.847   4.471   7.044  0.6111 -0.2543  2.9258
  132OSM    C7S14244   6.028   4.590   7.020 -0.7361  0.3978 -0.1050
  132OSM    H7S14245   5.984   4.679   6.969  1.2872  0.6702 -1.4601
  132OSM    H7T14246   6.126   4.578   6.970 -0.6992  3.5638 -1.0071
  132OSM    C8S14247   6.032   4.621   7.169  0.2043 -0.2347  0.2362
  132OSM    H8S14248   6.112   4.696   7.188  0.1386 -0.5991  2.1176
  132OSM    H8T14249   6.064   4.523   7.212 -0.1697  0.7020  2.8194
  132OSM    C9S14250   5.901   4.691   7.212  0.3393 -0.4893 -0.3985
  132OSM    H9S14251   5.810   4.650   7.163 -0.4441  2.0558 -1.2237
  132OSM    H9T14252   5.905   4.794   7.170  1.6006  0.1386  1.1447
  132OSM   C10S14253   5.885   4.688   7.360  0.6480  0.1788  0.3738
  132OSM   H10S14254   5.784   4.728   7.385  0.5941 -0.2581  0.8742
  132OSM   H10T14255   5.955   4.759   7.409  2.2859 -0.2133 -1.2886
  132OSM   C11S14256   5.896   4.540   7.428  0.0545 -0.6051  0.2171
  132OSM   H11S14257   5.984   4.483   7.389  1.3825  0.6596  1.2707
  132OSM   H11T14258   5.812   4.477   7.392 -0.2690  0.5044 -1.0636
  132OSM   C12S14259   5.883   4.535   7.581  0.3447 -0.5525 -0.5901
  132OSM   H12S14260   5.840   4.434   7.599 -1.0762  0.1304 -0.0206
  132OSM   H12T14261   5.813   4.617   7.606  1.5935  0.3560  0.0311
  132OSM   C13S14262   6.016   4.558   7.651 -0.1152  1.0333 -0.3621
  132OSM   H13S14263   6.061   4.650   7.607 -0.2871  2.4153  2.1479
  132OSM   H13T14264   6.083   4.474   7.621 -0.0881 -0.3266  3.0459
  132OSM   C14S14265   6.004   4.572   7.803  0.3247 -0.3714  0.4423
  132OSM   H14S14266   5.953   4.660   7.849 -0.6237 -0.1065 -1.0418
  132OSM   H14T14267   6.107   4.578   7.844  0.2368 -1.4735  0.8630
  132OSM   C15S14268   5.937   4.451   7.873 -0.5680  0.6591 -0.2220
  132OSM   H15S14269   5.983   4.361   7.826 -2.3006 -1.3752  1.7577
  132OSM   H15T14270   5.830   4.439   7.846 -0.7319 -0.2984  0.7863
  132OSM   C16S14271   5.950   4.457   8.030  0.1028 -0.1980  0.8998
  132OSM   H16S14272   5.909   4.555   8.064 -0.8338  0.8381 -2.7189
  132OSM   H16T14273   6.057   4.440   8.050  1.0104  1.4611 -1.8799
  132OSM   C17S14274   5.866   4.338   8.088  0.2779  0.1800 -0.3326
  132OSM   H17S14275   5.921   4.252   8.045  0.3081  0.0815 -0.1020
  132OSM   H17T14276   5.758   4.354   8.067 -0.4007  0.2187  2.7245
  132OSM   C18S14277   5.895   4.323   8.237 -0.1212  0.0554 -0.3072
  132OSM   H18S14278   5.827   4.247   8.280 -0.9301  1.1601  0.4323
  132OSM   H18T14279   5.876   4.420   8.288 -2.5286 -0.0660 -0.8599
  132OSM   H18U14280   6.004   4.300   8.245  0.0313  0.2556 -1.5404
  132OSM    C1F14281   5.658   4.038   6.746  0.5877 -0.0799  0.3774
  132OSM     OF14282   5.738   3.948   6.724  0.0406  0.2029  0.2923
  132OSM    C2F14283   5.538   4.019   6.833  0.1958 -0.1469  0.1465
  132OSM    H2F14284   5.447   4.061   6.785  1.2994  2.0827 -0.0843
  132OSM    H2G14285   5.554   4.086   6.919  1.9825 -1.1644  0.6610
  132OSM    C3F14286   5.514   3.876   6.875 -0.0662  0.6920 -0.2827
  132OSM    H3F14287   5.596   3.838   6.940  0.6266  1.4187 -0.7109
  132OSM    H3G14288   5.518   3.813   6.784 -0.6166  2.6749 -1.7468
  132OSM    C4F14289   5.388   3.859   6.966 -0.0206  0.0518  0.1547
  132OSM    H4F14290   5.345   3.758   6.952  0.6215 -0.4954  1.8677
  132OSM    H4G14291   5.306   3.925   6.930 -0.2145 -0.8335 -1.1007
  132OSM    C5F14292   5.428   3.879   7.114 -0.0048  0.8271  0.5835
  132OSM    H5F14293   5.471   3.981   7.125  0.1534  0.8610 -0.2788
  132OSM    H5G14294   5.501   3.809   7.159 -1.1816  0.8601  2.6564
  132OSM    C6F14295   5.301   3.875   7.201 -0.0829  0.4549 -0.8744
  132OSM    H6F14296   5.206   3.885   7.144  1.4153  0.4670 -3.5557
  132OSM    H6G14297   5.309   3.940   7.290  0.1890 -0.4522 -0.2168
  132OSM    C7F14298   5.300   3.741   7.281 -0.1005  0.0537 -0.4432
  132OSM    H7F14299   5.397   3.741   7.336  2.2414 -0.9366 -4.2579
  132OSM    H7G14300   5.291   3.654   7.214 -2.4828  0.6764 -1.0359
  132OSM    C8F14301   5.182   3.711   7.372  0.4016 -0.3625  0.1462
  132OSM    H8F14302   5.197   3.626   7.442 -3.4906 -0.7790  0.7035
  132OSM    H8G14303   5.090   3.677   7.318 -0.2030  0.0704  0.8902
  132OSM    C9F14304   5.153   3.837   7.456 -0.2555  0.3536  0.4608
  132OSM    H9F14305   5.103   3.922   7.406 -1.9586 -0.7571  0.1966
  132OSM   C10F14306   5.184   3.864   7.583  0.3868 -0.6018 -0.3583
  132OSM   H10F14307   5.153   3.960   7.629  1.1627 -0.9196  0.8746
  132OSM   C11F14308   5.258   3.762   7.668  0.0540  0.1642  0.5437
  132OSM   H11F14309   5.328   3.810   7.739 -2.3129  2.4599  1.4695
  132OSM   H11G14310   5.321   3.704   7.596 -0.9699  0.6727 -0.7976
  132OSM   C12F14311   5.156   3.678   7.738 -0.0775  0.3735  0.0436
  132OSM   H12F14312   5.201   3.605   7.809 -0.1080  0.4424  0.1353
  132OSM   H12G14313   5.099   3.623   7.661  0.6391  0.7470 -0.7691
  132OSM   C13F14314   5.045   3.753   7.816 -0.1009 -0.1450  0.0473
  132OSM   H13F14315   4.956   3.783   7.756  0.4985  0.8396 -0.3643
  132OSM   H13G14316   5.088   3.839   7.871  3.0851 -1.1658 -0.6746
  132OSM   C14F14317   4.982   3.655   7.923 -0.0346  0.2925  0.6667
  132OSM   H14F14318   5.062   3.626   7.994  0.1252 -0.6706  0.1226
  132OSM   H14G14319   4.954   3.562   7.868 -0.8805 -0.5725  2.4567
  132OSM   C15F14320   4.860   3.703   8.002  0.4933  0.0407 -0.5249
  132OSM   H15F14321   4.782   3.717   7.924  0.1578 -2.5791 -0.7678
  132OSM   H15G14322   4.874   3.806   8.042 -4.1152  0.8575 -0.3933
  132OSM   C16F14323   4.824   3.607   8.113 -0.0206 -0.7258  0.0412
  132OSM   H16F14324   4.790   3.510   8.069  1.2402 -0.6791 -1.1214
  132OSM   H16G14325   4.738   3.650   8.168  0.1504  0.2751 -0.4605
  132OSM   C17F14326   4.935   3.580   8.220 -0.1074 -0.2152 -0.0007
  132OSM   H17F14327   4.970   3.681   8.250  0.6961 -0.5363  0.1614
  132OSM   H17G14328   5.021   3.532   8.168 -0.0577  1.8736 -2.0094
  132OSM   C18F14329   4.881   3.508   8.349  0.1841 -0.1455 -0.3482
  132OSM   H18F14330   4.796   3.565   8.394  0.5487 -1.0982  1.6574
  132OSM   H18G14331   4.965   3.521   8.421 -0.1657  2.1479 -0.2779
  132OSM   H18H14332   4.852   3.402   8.340  3.2340 -1.3343  2.1911
  133OSM      N14333   0.346   3.666   5.830  0.2722 -0.5552  0.5370
  133OSM    C1514334   0.271   3.573   5.734 -0.4960 -0.4025 -0.0192
  133OSM   H15A14335   0.214   3.495   5.782  0.3305 -0.2576  1.2191
  133OSM   H15B14336   0.335   3.520   5.665 -1.2731 -1.2623 -0.0925
  133OSM   H15C14337   0.212   3.627   5.660 -0.6495 -0.3638  0.1304
  133OSM    C1414338   0.414   3.581   5.929 -0.3727 -0.3226  0.0365
  133OSM   H14A14339   0.338   3.520   5.976 -2.8486  2.6725  0.1796
  133OSM   H14B14340   0.446   3.646   6.009  1.3473 -3.6321  2.2802
  133OSM   H14C14341   0.487   3.514   5.886 -0.5173  0.2579 -1.1547
  133OSM    C1314342   0.442   3.749   5.757  0.2330 -0.2323  0.3274
  133OSM   H13A14343   0.523   3.686   5.723 -0.0168  0.3459 -1.4307
  133OSM   H13B14344   0.467   3.833   5.820 -0.5191  1.6827 -1.8023
  133OSM   H13C14345   0.395   3.807   5.679  1.3537  0.9143  0.4778
  133OSM    C1214346   0.244   3.764   5.893 -0.2823 -0.3290  0.0080
  133OSM   H12A14347   0.198   3.827   5.819 -0.4109  1.0516  1.2106
  133OSM   H12B14348   0.297   3.830   5.961  0.5360 -2.5002  1.5885
  133OSM    C1114349   0.120   3.703   5.956  0.4764  0.0924 -0.1104
  133OSM   H11A14350   0.100   3.606   5.904  1.3238 -0.1923  0.0904
  133OSM   H11B14351   0.029   3.766   5.944  0.3026  0.1291  1.3024
  133OSM      P14352   0.130   3.781   6.200  0.1632  0.1584 -0.4198
  133OSM    O1314353   0.207   3.753   6.322 -0.1143  0.0653 -0.3401
  133OSM    O1414354   0.164   3.909   6.138  0.2041  0.0192  0.4833
  133OSM    O1114355  -0.023   3.778   6.226 -0.0591  0.0404 -0.3808
  133OSM    O1214356   0.149   3.665   6.096 -0.3566 -0.1942 -0.1707
  133OSM    C1S14357  -0.082   3.663   6.283 -0.0669  0.5724 -0.6761
  133OSM    H1S14358  -0.023   3.569   6.272 -3.2975 -1.8649  0.9681
  133OSM    H1T14359  -0.182   3.648   6.238 -0.0632 -1.7734 -0.0271
  133OSM     NF14360  -0.191   3.564   6.481 -0.1737 -0.3786  1.2980
  133OSM    HNF14361  -0.281   3.603   6.496  0.2550  1.2920 -0.0840
  133OSM    C2S14362  -0.103   3.670   6.436 -0.3435 -0.7644  0.2309
  133OSM    H2S14363  -0.005   3.652   6.486 -0.1737 -0.5684 -0.0294
  133OSM    C3S14364  -0.153   3.815   6.484  0.1321 -0.1625  0.1129
  133OSM    H3S14365  -0.252   3.827   6.434  0.5455  0.0879 -0.6629
  133OSM     O314366  -0.074   3.929   6.438  0.1905 -0.8582 -0.5943
  133OSM    HO314367  -0.022   3.906   6.361  1.5161 -0.2566  0.0992
  133OSM    C4S14368  -0.177   3.815   6.630 -0.0273 -0.1047  0.5062
  133OSM    H4S14369  -0.081   3.792   6.679 -0.3697 -2.7280  0.1108
  133OSM    C5S14370  -0.283   3.859   6.701 -0.1048  1.1177  0.0420
  133OSM    H5S14371  -0.360   3.923   6.655  1.1697  2.9221  0.3176
  133OSM    C6S14372  -0.280   3.852   6.856  0.6183  0.0384 -0.5218
  133OSM    H6S14373  -0.325   3.946   6.893  0.6426  0.1307 -0.7241
  133OSM    H6T14374  -0.175   3.857   6.892 -0.0020 -1.1208  1.5951
  133OSM    C7S14375  -0.342   3.721   6.918 -0.0808  0.0785  0.0374
  133OSM    H7S14376  -0.308   3.641   6.848 -1.5465  1.6867 -2.6683
  133OSM    H7T14377  -0.453   3.728   6.910 -0.1308 -1.5166 -1.2779
  133OSM    C8S14378  -0.305   3.715   7.068 -0.2357 -0.0120 -0.2075
  133OSM    H8S14379  -0.324   3.811   7.120  0.8874 -0.2912  0.7713
  133OSM    H8T14380  -0.197   3.696   7.087 -0.3652 -0.0078  0.5412
  133OSM    C9S14381  -0.383   3.608   7.153 -0.0273 -0.1441 -0.2475
  133OSM    H9S14382  -0.373   3.510   7.102  0.4637  0.4350 -1.3185
  133OSM    H9T14383  -0.489   3.639   7.147  0.3519  1.3015  0.0666
  133OSM   C10S14384  -0.331   3.594   7.303  0.2153  0.2501  0.2864
  133OSM   H10S14385  -0.223   3.568   7.305  0.5688  1.6069  1.2271
  133OSM   H10T14386  -0.389   3.521   7.364 -1.2600 -0.5373 -1.9502
  133OSM   C11S14387  -0.345   3.726   7.382  0.0662 -0.2612 -0.7798
  133OSM   H11S14388  -0.448   3.766   7.374 -0.2511 -1.2158 -1.6248
  133OSM   H11T14389  -0.274   3.800   7.339 -0.7644  2.1707  1.7042
  133OSM   C12S14390  -0.331   3.723   7.533 -0.1439  0.2321 -0.1094
  133OSM   H12S14391  -0.228   3.685   7.552 -0.2773 -2.8147 -4.2045
  133OSM   H12T14392  -0.404   3.652   7.577  0.0473 -0.2510 -0.5608
  133OSM   C13S14393  -0.346   3.854   7.613  0.4332  0.6176 -0.1753
  133OSM   H13S14394  -0.439   3.908   7.588 -1.0813 -2.4193 -1.7784
  133OSM   H13T14395  -0.265   3.923   7.581 -0.0637  0.8997 -0.8303
  133OSM   C14S14396  -0.336   3.832   7.757  0.2635  0.1589  0.2590
  133OSM   H14S14397  -0.242   3.774   7.771 -0.0853 -0.9748 -1.6454
  133OSM   H14T14398  -0.413   3.756   7.782 -2.8012  3.1569  0.6768
  133OSM   C15S14399  -0.342   3.953   7.849  0.1209  0.1264 -0.0295
  133OSM   H15S14400  -0.427   4.021   7.828 -0.7716 -0.8208  0.4052
  133OSM   H15T14401  -0.247   4.005   7.826  1.0288 -1.3017  0.3529
  133OSM   C16S14402  -0.351   3.910   7.994 -0.3461 -0.0898  0.6310
  133OSM   H16S14403  -0.254   3.878   8.037 -0.3702  0.0482  0.7914
  133OSM   H16T14404  -0.431   3.834   8.006  0.0471 -0.1412  4.0236
  133OSM   C17S14405  -0.402   4.024   8.077 -0.3381 -1.3489 -0.9254
  133OSM   H17S14406  -0.489   4.071   8.027  1.9922  2.3295 -1.9720
  133OSM   H17T14407  -0.323   4.100   8.092  2.7550 -3.9565 -2.6901
  133OSM   C18S14408  -0.447   3.978   8.216  0.5296  1.1396  0.1289
  133OSM   H18S14409  -0.525   3.900   8.206 -0.1481  1.6533  1.2861
  133OSM   H18T14410  -0.485   4.053   8.289  0.3111  0.9445  0.2162
  133OSM   H18U14411  -0.361   3.927   8.265 -0.9747 -0.3790  1.2770
  133OSM    C1F14412  -0.162   3.434   6.494  0.0976 -0.1724  0.9834
  133OSM     OF14413  -0.053   3.387   6.461 -0.4306 -0.4467 -0.3157
  133OSM    C2F14414  -0.274   3.346   6.550 -0.2791  0.2530 -0.5752
  133OSM    H2F14415  -0.302   3.265   6.479  0.0454  0.3395 -0.8040
  133OSM    H2G14416  -0.363   3.409   6.570  0.7406  2.2082 -1.8372
  133OSM    C3F14417  -0.225   3.282   6.679  0.2946  0.8468 -0.1350
  133OSM    H3F14418  -0.134   3.218   6.674 -1.4790 -1.9178  0.7747
  133OSM    H3G14419  -0.304   3.217   6.723  0.1668  0.2325 -1.2456
  133OSM    C4F14420  -0.186   3.386   6.790  0.3077  0.5893 -0.4537
  133OSM    H4F14421  -0.281   3.441   6.804  0.8252  1.2417  0.5911
  133OSM    H4G14422  -0.114   3.456   6.743 -0.7840  1.2259 -1.2223
  133OSM    C5F14423  -0.146   3.339   6.932 -0.2155  1.1176  0.1737
  133OSM    H5F14424  -0.151   3.427   6.998 -1.1793  0.0643  1.5640
  133OSM    H5G14425  -0.039   3.311   6.926 -0.8225 -1.1420 -3.4055
  133OSM    C6F14426  -0.234   3.226   6.987  0.0310  0.8335 -0.2919
  133OSM    H6F14427  -0.212   3.142   6.917  0.6190  0.0488  0.8019
  133OSM    H6G14428  -0.342   3.250   6.991  0.0519  1.1613 -1.4391
  133OSM    C7F14429  -0.180   3.191   7.129 -0.1555  0.3539 -0.0940
  133OSM    H7F14430  -0.173   3.290   7.179 -0.9229 -0.0232  0.8077
  133OSM    H7G14431  -0.084   3.134   7.125 -0.5027 -0.3954  1.3690
  133OSM    C8F14432  -0.287   3.121   7.213 -0.4779  0.7072 -0.2601
  133OSM    H8F14433  -0.344   3.044   7.156  0.2427 -0.3294  0.3710
  133OSM    H8G14434  -0.354   3.201   7.250  0.2359  1.5926 -0.8537
  133OSM    C9F14435  -0.235   3.036   7.326 -0.2782 -0.1967  0.7785
  133OSM    H9F14436  -0.179   2.947   7.295 -0.3608 -0.4193  1.2493
  133OSM   C10F14437  -0.240   3.056   7.459 -0.7888  0.0406  0.1516
  133OSM   H10F14438  -0.212   2.979   7.531 -1.3535  0.6124  1.0090
  133OSM   C11F14439  -0.303   3.170   7.521  0.3095  0.2313  0.6868
  133OSM   H11F14440  -0.404   3.170   7.474  0.4018 -1.3873  0.4284
  133OSM   H11G14441  -0.251   3.266   7.498 -2.4075  1.5168 -0.5283
  133OSM   C12F14442  -0.310   3.162   7.673  0.1920 -0.5565  0.1416
  133OSM   H12F14443  -0.222   3.106   7.712 -0.9804 -2.3997  0.2692
  133OSM   H12G14444  -0.399   3.100   7.696  0.7221 -0.7730  1.6992
  133OSM   C13F14445  -0.330   3.295   7.744  0.2732 -1.3541  0.8714
  133OSM   H13F14446  -0.413   3.357   7.703  1.4779  0.0998  0.5301
  133OSM   H13G14447  -0.242   3.359   7.722 -0.8144 -0.7082 -2.0209
  133OSM   C14F14448  -0.328   3.299   7.896  0.6260  0.2509  0.3640
  133OSM   H14F14449  -0.241   3.244   7.938  2.6405  1.7970 -1.5670
  133OSM   H14G14450  -0.412   3.236   7.933  0.0624  1.6190  1.4795
  133OSM   C15F14451  -0.328   3.439   7.958  0.2862 -0.0208  0.0481
  133OSM   H15F14452  -0.421   3.497   7.944  1.0628  0.7871 -2.2907
  133OSM   H15G14453  -0.250   3.493   7.900  0.7117 -2.1535 -1.4864
  133OSM   C16F14454  -0.305   3.429   8.108  0.2110 -0.1196  0.2032
  133OSM   H16F14455  -0.202   3.392   8.126  0.1021 -0.7563 -0.4858
  133OSM   H16G14456  -0.380   3.358   8.149  1.5184 -1.1332  0.9137
  133OSM   C17F14457  -0.309   3.569   8.180 -0.1456 -0.0547  0.3350
  133OSM   H17F14458  -0.254   3.643   8.118 -0.6529 -0.0967 -0.1742
  133OSM   H17G14459  -0.245   3.562   8.271 -1.0107 -1.1438  0.8825
  133OSM   C18F14460  -0.449   3.610   8.235 -0.5648 -0.2300 -0.6868
  133OSM   H18F14461  -0.485   3.520   8.290  2.3989 -1.0369  0.1035
  133OSM   H18G14462  -0.519   3.632   8.151 -2.8540 -2.7587  0.4073
  133OSM   H18H14463  -0.444   3.706   8.290  3.6824  0.1913 -1.4744
  134OSM      N14464   0.257   1.285   6.488 -0.3097  0.2777  0.2094
  134OSM    C1514465   0.343   1.293   6.607  0.1893 -0.4115  0.1549
  134OSM   H15A14466   0.330   1.205   6.668 -0.8169  0.1804  0.8194
  134OSM   H15B14467   0.313   1.377   6.668  0.3062  0.1331 -0.5192
  134OSM   H15C14468   0.446   1.304   6.575  0.0827  0.8750  0.2070
  134OSM    C1414469   0.243   1.421   6.422  0.9576  0.2004 -0.4249
  134OSM   H14A14470   0.180   1.406   6.336  0.8873 -2.7880  0.0394
  134OSM   H14B14471   0.335   1.465   6.387  1.3979 -0.5883 -0.2842
  134OSM   H14C14472   0.197   1.497   6.484 -0.1936 -0.6936 -0.1453
  134OSM    C1314473   0.305   1.183   6.390 -0.5073  0.2916 -0.2383
  134OSM   H13A14474   0.397   1.217   6.345 -0.3014  3.3280  2.1684
  134OSM   H13B14475   0.233   1.175   6.310 -0.8017 -0.6935  0.1000
  134OSM   H13C14476   0.318   1.084   6.432 -0.3205 -0.0640 -1.1205
  134OSM    C1214477   0.119   1.239   6.526 -0.0423 -0.0804 -0.0828
  134OSM   H12A14478   0.063   1.217   6.437 -1.7570  1.4489  0.5579
  134OSM   H12B14479   0.059   1.318   6.568 -0.7743  0.1882 -1.5642
  134OSM    C1114480   0.103   1.115   6.619  0.6512  0.5111  0.5897
  134OSM   H11A14481  -0.003   1.088   6.635  1.2407 -3.4397 -0.9375
  134OSM   H11B14482   0.132   1.146   6.722 -1.8221  0.0720  1.4883
  134OSM      P14483   0.074   0.892   6.475 -0.0717 -0.4389  0.2786
  134OSM    O1314484  -0.047   0.960   6.426  0.2462 -0.2309 -0.1503
  134OSM    O1414485   0.168   0.829   6.379 -0.4713 -0.3001  0.2284
  134OSM    O1114486   0.028   0.784   6.576 -0.7677 -0.4085 -0.1415
  134OSM    O1214487   0.162   0.989   6.571 -0.1506 -0.0606 -0.0300
  134OSM    C1S14488   0.104   0.763   6.701  0.3930 -0.0862  0.1763
  134OSM    H1S14489   0.053   0.828   6.775 -0.5899 -1.5851  0.8537
  134OSM    H1T14490   0.212   0.789   6.698  0.4767  0.0763  2.7521
  134OSM     NF14491   0.123   0.605   6.884 -0.4335 -0.7640  0.2345
  134OSM    HNF14492   0.218   0.579   6.898 -0.5106 -0.5505  1.2030
  134OSM    C2S14493   0.090   0.621   6.739 -0.2499  0.1804 -1.0232
  134OSM    H2S14494  -0.017   0.592   6.735 -0.5930  1.0922  0.6914
  134OSM    C3S14495   0.171   0.525   6.636  0.6251 -0.2773  0.3962
  134OSM    H3S14496   0.278   0.552   6.627  0.9509 -1.7885 -0.7405
  134OSM     O314497   0.110   0.521   6.507 -0.3069  0.1375 -0.2285
  134OSM    HO314498   0.101   0.612   6.480 -0.9868  0.3990  0.8283
  134OSM    C4S14499   0.156   0.389   6.689  1.0548 -0.5414 -0.6571
  134OSM    H4S14500   0.050   0.363   6.705  0.4802  1.5586 -0.6424
  134OSM    C5S14501   0.255   0.301   6.709 -0.1033  0.5596 -0.1479
  134OSM    H5S14502   0.358   0.337   6.714 -0.3144  0.9882  1.9779
  134OSM    C6S14503   0.243   0.159   6.755  0.6859  0.1614  0.0113
  134OSM    H6S14504   0.286   0.098   6.673 -0.7818  1.6406 -1.9436
  134OSM    H6T14505   0.138   0.123   6.758  0.9204 -0.5331  0.2208
  134OSM    C7S14506   0.295   0.131   6.889 -0.4851 -0.3276  0.2191
  134OSM    H7S14507   0.396   0.177   6.893 -0.4855 -0.0271 -2.1895
  134OSM    H7T14508   0.317   0.023   6.893  3.7733  0.2077 -2.8294
  134OSM    C8S14509   0.206   0.176   7.004 -0.1724  0.5794 -0.2123
  134OSM    H8S14510   0.101   0.138   7.003  1.1091 -3.4640  0.2456
  134OSM    H8T14511   0.182   0.283   6.986  0.1990  0.5543 -0.8743
  134OSM    C9S14512   0.274   0.161   7.145  0.0469 -0.7331 -0.0344
  134OSM    H9S14513   0.374   0.209   7.136 -0.3795  0.1319 -0.2908
  134OSM    H9T14514   0.277   0.052   7.164 -3.2142 -0.4151  3.3670
  134OSM   C10S14515   0.199   0.221   7.264  0.5810 -0.5116 -0.2136
  134OSM   H10S14516   0.096   0.183   7.278  0.2508  0.7986  1.3059
  134OSM   H10T14517   0.197   0.330   7.242  0.6236 -0.6255 -0.7780
  134OSM   C11S14518   0.265   0.196   7.403  0.3483  0.2087  0.8810
  134OSM   H11S14519   0.362   0.249   7.394  1.2801 -1.7949 -2.8635
  134OSM   H11T14520   0.276   0.085   7.408 -1.7812 -0.1094 -0.2630
  134OSM   C12S14521   0.177   0.228   7.517 -0.3295 -0.6085 -0.1614
  134OSM   H12S14522   0.085   0.166   7.523 -0.5617 -0.6179 -2.7578
  134OSM   H12T14523   0.159   0.338   7.513  1.3242 -0.3240 -0.5034
  134OSM   C13S14524   0.264   0.220   7.642 -0.3605  0.8655 -0.1370
  134OSM   H13S14525   0.341   0.300   7.632 -1.6547  2.2008  0.2340
  134OSM   H13T14526   0.319   0.125   7.658 -1.3394  0.3468  0.2159
  134OSM   C14S14527   0.184   0.242   7.771 -0.2620  0.4952  0.4814
  134OSM   H14S14528   0.105   0.165   7.783  0.0594 -0.2232 -1.6506
  134OSM   H14T14529   0.128   0.335   7.797 -0.1329  0.2869  1.5487
  134OSM   C15S14530   0.267   0.230   7.896  0.3492 -0.1266 -1.3368
  134OSM   H15S14531   0.345   0.308   7.884  2.0405 -1.6621 -0.8415
  134OSM   H15T14532   0.326   0.136   7.897 -1.9206 -1.6634  1.1622
  134OSM   C16S14533   0.199   0.235   8.035 -0.4505  0.1332 -0.1037
  134OSM   H16S14534   0.175   0.339   8.064 -0.2090 -0.2554  1.6184
  134OSM   H16T14535   0.278   0.199   8.105  0.1711  1.1621 -0.2531
  134OSM   C17S14536   0.073   0.155   8.039 -0.1500  0.1611  0.2692
  134OSM   H17S14537   0.087   0.054   7.995  0.1927  0.9336 -1.4601
  134OSM   H17T14538  -0.004   0.202   7.974  0.2409 -0.1838 -0.4497
  134OSM   C18S14539   0.024   0.147   8.178  0.0801 -0.1201 -0.4320
  134OSM   H18S14540  -0.062   0.076   8.178 -0.0684  0.0321 -1.7366
  134OSM   H18T14541  -0.005   0.250   8.209  1.4212  0.1628 -0.0520
  134OSM   H18U14542   0.097   0.110   8.253  0.8330 -0.1069 -1.1440
  134OSM    C1F14543   0.033   0.630   6.978  0.3015  0.2888 -0.2807
  134OSM     OF14544  -0.085   0.651   6.950  0.0968 -0.6678 -0.6094
  134OSM    C2F14545   0.088   0.615   7.127  0.6376 -0.2532  0.3185
  134OSM    H2F14546   0.127   0.719   7.137 -2.0397  0.8768  0.0370
  134OSM    H2G14547   0.171   0.544   7.145  1.8946  1.4608  1.5470
  134OSM    C3F14548  -0.038   0.591   7.223  0.2629  0.8376  0.1777
  134OSM    H3F14549  -0.090   0.494   7.205 -1.8844  2.0940 -0.6628
  134OSM    H3G14550  -0.110   0.675   7.218  1.4320  1.8134 -1.0085
  134OSM    C4F14551   0.015   0.604   7.365  0.5756  1.0840  0.0966
  134OSM    H4F14552   0.090   0.686   7.372  1.3719  0.2816  1.2910
  134OSM    H4G14553   0.062   0.507   7.391  0.4131  1.1009  0.4594
  134OSM    C5F14554  -0.090   0.642   7.472  0.1645  0.0820  0.7169
  134OSM    H5F14555  -0.183   0.582   7.464  0.1564  0.0621  0.9458
  134OSM    H5G14556  -0.126   0.744   7.450 -0.0857 -0.0460  0.5250
  134OSM    C6F14557  -0.035   0.613   7.614 -0.2321  0.3188 -0.0511
  134OSM    H6F14558   0.049   0.680   7.640 -1.0237  1.2974  0.0402
  134OSM    H6G14559   0.010   0.512   7.608 -1.6313 -0.2332 -2.7499
  134OSM    C7F14560  -0.140   0.622   7.728  1.0837  0.4127 -0.6831
  134OSM    H7F14561  -0.231   0.561   7.707 -0.5684  2.4838  0.1653
  134OSM    H7G14562  -0.187   0.722   7.738  0.1962 -0.0853  0.3347
  134OSM    C8F14563  -0.078   0.572   7.863  0.0093 -0.9854 -0.4442
  134OSM    H8F14564  -0.030   0.474   7.843  0.8607 -0.2396 -2.3501
  134OSM    H8G14565  -0.162   0.551   7.932  0.6703 -1.5659  0.2003
  134OSM    C9F14566   0.016   0.680   7.914 -0.0222 -0.1988  0.7664
  134OSM    H9F14567   0.084   0.726   7.841 -2.0599 -0.3781 -1.3666
  134OSM   C10F14568   0.021   0.726   8.038 -0.1225 -0.1584  0.3566
  134OSM   H10F14569   0.105   0.789   8.070  0.0320 -0.8442  1.3539
  134OSM   C11F14570  -0.065   0.685   8.152  0.1439  0.4534  0.0674
  134OSM   H11F14571  -0.104   0.582   8.143  2.4259 -0.5594  0.9199
  134OSM   H11G14572  -0.153   0.752   8.158  0.1192  0.3976  0.3453
  134OSM   C12F14573   0.016   0.700   8.286 -0.1898 -0.6212 -0.8724
  134OSM   H12F14574   0.071   0.796   8.280 -1.3549  0.1584  0.4507
  134OSM   H12G14575   0.085   0.616   8.307  0.0229 -0.5276 -1.1894
  134OSM   C13F14576  -0.077   0.714   8.408  0.5962  0.6073 -0.2462
  134OSM   H13F14577  -0.143   0.624   8.407  2.0842 -0.5325 -0.1236
  134OSM   H13G14578  -0.141   0.805   8.401 -0.7095 -0.2169  0.4907
  134OSM   C14F14579  -0.005   0.713   8.541 -0.4965 -0.7243 -0.9670
  134OSM   H14F14580   0.040   0.614   8.562  0.7620  0.1475  0.7452
  134OSM   H14G14581  -0.063   0.744   8.631 -2.4584  0.5602 -2.6020
  134OSM   C15F14582   0.111   0.820   8.547  0.2195 -0.4064 -0.4802
  134OSM   H15F14583   0.188   0.797   8.470 -0.7478  2.9993 -2.7347
  134OSM   H15G14584   0.155   0.811   8.648 -0.2412  0.6361 -0.1653
  134OSM   C16F14585   0.079   0.967   8.532 -0.3074  0.0127 -0.1461
  134OSM   H16F14586   0.015   1.011   8.611 -0.6872 -1.8011  0.5922
  134OSM   H16G14587   0.017   0.989   8.442 -0.4456  0.4513  0.0539
  134OSM   C17F14588   0.205   1.055   8.516 -0.8805  0.1278  0.8011
  134OSM   H17F14589   0.263   1.009   8.433 -0.5114  0.3758  0.9168
  134OSM   H17G14590   0.276   1.033   8.599  4.4259 -1.1090 -3.4486
  134OSM   C18F14591   0.170   1.203   8.496 -0.5433 -1.2003  0.5192
  134OSM   H18F14592   0.098   1.243   8.570  0.5672 -0.2484  1.1338
  134OSM   H18G14593   0.125   1.212   8.395 -0.9054 -0.8663  0.7096
  134OSM   H18H14594   0.264   1.263   8.496 -1.3669  0.2169 -1.6254
  135OSM      N14595   6.596   0.488   6.198 -0.1296  0.0645 -0.7340
  135OSM    C1514596   6.452   0.461   6.182  0.2604  0.2704  0.0357
  135OSM   H15A14597   6.403   0.541   6.235  0.2956 -0.7221  1.6106
  135OSM   H15B14598   6.412   0.373   6.230 -0.5510  1.1037  0.9311
  135OSM   H15C14599   6.427   0.458   6.077 -0.8357  2.0692  0.2061
  135OSM    C1414600   6.673   0.377   6.135  0.4223 -0.4470  0.3935
  135OSM   H14A14601   6.778   0.401   6.144 -0.0684  2.0748  0.0581
  135OSM   H14B14602   6.649   0.372   6.029 -2.6514 -1.5309  1.0409
  135OSM   H14C14603   6.652   0.283   6.184  0.0043 -0.0841  0.9197
  135OSM    C1314604   6.635   0.614   6.118  0.3119  0.2716  0.0919
  135OSM   H13A14605   6.621   0.591   6.013  0.2044  0.0307  0.1595
  135OSM   H13B14606   6.739   0.629   6.143 -0.3224  2.1568  1.8147
  135OSM   H13C14607   6.571   0.696   6.149  1.9661  0.8231  2.2848
  135OSM    C1214608   6.633   0.487   6.347  0.5044 -0.0151 -0.0478
  135OSM   H12A14609   6.738   0.509   6.358  0.6345  0.6573 -2.1989
  135OSM   H12B14610   6.611   0.388   6.384  2.7197 -1.1323 -1.5055
  135OSM    C1114611   6.574   0.593   6.451 -0.4134  0.5107 -0.2513
  135OSM   H11A14612   6.615   0.693   6.425 -2.8389  1.6372 -0.0264
  135OSM   H11B14613   6.603   0.558   6.552 -0.4110 -1.2632 -0.8338
  135OSM      P14614   6.336   0.703   6.501  0.1582  0.3405  0.0563
  135OSM    O1314615   6.390   0.835   6.463 -0.3808  0.2608  0.6610
  135OSM    O1414616   6.191   0.685   6.472 -0.0364 -0.3367 -0.9538
  135OSM    O1114617   6.368   0.670   6.650 -0.4162 -0.3988 -0.0655
  135OSM    O1214618   6.432   0.592   6.435  0.0974 -0.6548 -0.3471
  135OSM    C1S14619   6.477   0.737   6.723 -0.2753 -0.0167 -0.3543
  135OSM    H1S14620   6.533   0.806   6.657 -1.3651  0.0540 -1.2272
  135OSM    H1T14621   6.545   0.660   6.767  1.3837  1.2769 -0.5292
  135OSM     NF14622   6.527   0.879   6.920  0.3260  1.0256  0.3628
  135OSM    HNF14623   6.581   0.825   6.983  0.5441 -0.2249 -0.8513
  135OSM    C2S14624   6.426   0.801   6.851 -0.3331  0.2663 -0.0059
  135OSM    H2S14625   6.340   0.867   6.827  0.9030  1.7973 -0.3869
  135OSM    C3S14626   6.374   0.680   6.940 -0.4007 -0.3207  0.6266
  135OSM    H3S14627   6.458   0.610   6.957  0.0141 -0.8077 -2.7196
  135OSM     O314628   6.269   0.607   6.882 -0.1089  0.4046  0.4402
  135OSM    HO314629   6.280   0.615   6.787 -0.8331 -0.2594  0.2884
  135OSM    C4S14630   6.313   0.735   7.070 -0.0464  0.1705 -0.7308
  135OSM    H4S14631   6.219   0.790   7.055 -1.1810 -1.8403 -1.5169
  135OSM    C5S14632   6.368   0.704   7.189  0.4110 -0.9805 -0.7537
  135OSM    H5S14633   6.449   0.630   7.183 -0.9314 -2.6376  0.1590
  135OSM    C6S14634   6.310   0.765   7.314  0.2760 -0.3694  0.4576
  135OSM    H6S14635   6.237   0.846   7.291  0.2664  0.1894  2.3511
  135OSM    H6T14636   6.385   0.811   7.381  0.0560  2.5041 -1.0966
  135OSM    C7S14637   6.236   0.672   7.411 -0.2818 -0.2855 -1.0429
  135OSM    H7S14638   6.300   0.583   7.427  0.0054  0.1188  0.1521
  135OSM    H7T14639   6.137   0.641   7.370 -1.9954  0.2969  2.3220
  135OSM    C8S14640   6.203   0.735   7.551  0.0987  0.1214 -0.5693
  135OSM    H8S14641   6.170   0.841   7.551 -0.9879 -0.1826  1.0708
  135OSM    H8T14642   6.303   0.728   7.599 -0.3478 -2.8083  0.1453
  135OSM    C9S14643   6.104   0.646   7.623 -0.0822 -0.3866 -0.7124
  135OSM    H9S14644   6.145   0.543   7.621 -3.7854 -2.0649  0.7668
  135OSM    H9T14645   6.005   0.655   7.574 -0.8692  0.5295  0.9509
  135OSM   C10S14646   6.063   0.684   7.766 -0.4220  0.6047 -0.2364
  135OSM   H10S14647   5.980   0.618   7.798  0.0675  0.2501  0.3260
  135OSM   H10T14648   6.031   0.790   7.773  2.2735  1.6482 -1.8909
  135OSM   C11S14649   6.177   0.654   7.859 -0.9923  0.1294 -0.4994
  135OSM   H11S14650   6.274   0.703   7.834 -0.7076  0.9677  1.9578
  135OSM   H11T14651   6.195   0.545   7.867 -0.9621  0.2269  1.0852
  135OSM   C12S14652   6.155   0.703   8.001 -0.1806 -0.0742 -0.4126
  135OSM   H12S14653   6.064   0.658   8.045  1.2878 -0.8510  2.0128
  135OSM   H12T14654   6.143   0.814   8.001  2.7328  0.3197 -0.1160
  135OSM   C13S14655   6.259   0.662   8.104 -0.4229  0.4529  0.0495
  135OSM   H13S14656   6.361   0.699   8.083  0.4351 -2.6683 -1.8960
  135OSM   H13T14657   6.284   0.554   8.100 -0.3548  0.4490  0.5232
  135OSM   C14S14658   6.220   0.695   8.247 -0.3378 -0.4897  0.4277
  135OSM   H14S14659   6.188   0.802   8.242 -0.7025 -0.6646 -1.7242
  135OSM   H14T14660   6.298   0.685   8.325 -1.4407 -3.0254  1.3045
  135OSM   C15S14661   6.101   0.607   8.285 -0.7183 -0.4836 -0.4583
  135OSM   H15S14662   6.109   0.499   8.261 -2.8719 -1.1731  1.5108
  135OSM   H15T14663   6.009   0.639   8.231 -0.3713  0.0708 -0.7275
  135OSM   C16S14664   6.068   0.619   8.436  0.4714 -0.3575 -0.3192
  135OSM   H16S14665   6.059   0.725   8.468 -0.6202 -0.6856  0.5006
  135OSM   H16T14666   6.148   0.568   8.493 -1.3285 -2.3205  0.5975
  135OSM   C17S14667   5.940   0.537   8.478 -0.2050  0.1620  0.2870
  135OSM   H17S14668   5.956   0.428   8.464 -1.5335 -0.2532  1.6988
  135OSM   H17T14669   5.849   0.557   8.418  0.1143  0.7621 -0.0064
  135OSM   C18S14670   5.889   0.560   8.623 -0.6519 -0.8104 -0.0209
  135OSM   H18S14671   5.972   0.558   8.696 -0.2706 -2.4848 -0.4637
  135OSM   H18T14672   5.831   0.473   8.660  0.7317 -1.5182  0.5557
  135OSM   H18U14673   5.819   0.644   8.643 -0.9033 -1.1360  0.4697
  135OSM    C1F14674   6.560   1.000   6.874 -0.2643  0.6228 -0.1650
  135OSM     OF14675   6.502   1.046   6.778 -0.3884  0.0850  0.2841
  135OSM    C2F14676   6.680   1.062   6.939  0.5914  0.5154 -0.6293
  135OSM    H2F14677   6.762   1.083   6.867 -0.0752 -0.0792 -1.5829
  135OSM    H2G14678   6.721   0.997   7.019 -0.7100  0.6834  0.2037
  135OSM    C3F14679   6.648   1.200   7.003 -1.1946 -0.0739 -0.4053
  135OSM    H3F14680   6.589   1.262   6.932  1.5442  1.2988 -1.6473
  135OSM    H3G14681   6.749   1.245   7.009 -1.3203  0.0489  2.7216
  135OSM    C4F14682   6.584   1.185   7.142 -0.4159 -0.0259  0.0001
  135OSM    H4F14683   6.491   1.124   7.138 -0.5766  0.2038  0.1839
  135OSM    H4G14684   6.561   1.285   7.184  0.3938  0.0291  0.3323
  135OSM    C5F14685   6.679   1.121   7.245 -0.6732 -0.2321 -0.0738
  135OSM    H5F14686   6.782   1.160   7.230 -1.4441  1.3544 -1.5687
  135OSM    H5G14687   6.676   1.010   7.246  0.8424 -0.2972 -0.7646
  135OSM    C6F14688   6.655   1.173   7.384  0.4575 -0.5098  0.1741
  135OSM    H6F14689   6.643   1.283   7.381 -1.5101 -0.6223  1.7689
  135OSM    H6G14690   6.751   1.167   7.441  1.4905 -1.7468 -1.5803
  135OSM    C7F14691   6.543   1.094   7.454 -0.2102 -0.7112  0.2698
  135OSM    H7F14692   6.547   0.988   7.421 -0.0028 -0.1837 -1.5086
  135OSM    H7G14693   6.445   1.133   7.419  0.5601 -0.4814 -1.7741
  135OSM    C8F14694   6.550   1.105   7.615 -0.0472  1.2571  0.3302
  135OSM    H8F14695   6.566   1.212   7.640  3.8853  0.9659 -0.3386
  135OSM    H8G14696   6.638   1.056   7.661 -1.1672 -0.6225  0.5708
  135OSM    C9F14697   6.434   1.043   7.686  0.9112  0.3486 -0.1944
  135OSM    H9F14698   6.334   1.053   7.641  1.0292  2.2631 -0.1045
  135OSM   C10F14699   6.432   0.982   7.807  0.0889 -0.1485 -0.0726
  135OSM   H10F14700   6.336   0.958   7.853 -0.4197  1.7028 -0.0710
  135OSM   C11F14701   6.547   0.966   7.897  0.0171 -0.7900  0.7892
  135OSM   H11F14702   6.638   0.975   7.834 -1.4918  0.6096 -1.3080
  135OSM   H11G14703   6.547   0.868   7.949  2.3973 -0.7608  0.9534
  135OSM   C12F14704   6.551   1.079   8.003 -0.2007  0.3141 -0.1645
  135OSM   H12F14705   6.572   1.173   7.947 -0.8252  0.7817  0.3646
  135OSM   H12G14706   6.634   1.050   8.071 -0.8674 -2.5612 -0.4733
  135OSM   C13F14707   6.421   1.099   8.092 -0.3332 -0.1811 -0.1098
  135OSM   H13F14708   6.383   0.997   8.112  1.0026 -1.1235 -2.1257
  135OSM   H13G14709   6.346   1.150   8.027 -2.0637  0.1076  1.9737
  135OSM   C14F14710   6.452   1.173   8.219 -0.4728  1.0096  0.0071
  135OSM   H14F14711   6.557   1.149   8.243 -0.4984  0.5942 -0.2997
  135OSM   H14G14712   6.390   1.136   8.304  0.1918  0.0693  0.0949
  135OSM   C15F14713   6.451   1.335   8.218 -0.0247 -0.1746  0.4013
  135OSM   H15F14714   6.350   1.365   8.184  1.0460  0.4623 -2.5541
  135OSM   H15G14715   6.515   1.369   8.134 -2.6279  0.9556 -1.2608
  135OSM   C16F14716   6.503   1.404   8.349 -0.7055  0.1483 -0.0180
  135OSM   H16F14717   6.453   1.375   8.444  1.2989  0.3499  1.1675
  135OSM   H16G14718   6.501   1.515   8.349 -2.0741  0.1483  0.4271
  135OSM   C17F14719   6.653   1.366   8.373  0.3889  0.1667  0.1988
  135OSM   H17F14720   6.705   1.341   8.279 -0.9302 -2.1319 -0.0090
  135OSM   H17G14721   6.655   1.264   8.418  0.9040 -1.3848 -3.0713
  135OSM   C18F14722   6.724   1.482   8.448  0.4509 -0.3717 -0.3096
  135OSM   H18F14723   6.687   1.493   8.552 -0.9085 -2.0609 -0.5730
  135OSM   H18G14724   6.721   1.570   8.381  0.2252  0.0111  0.1961
  135OSM   H18H14725   6.833   1.463   8.459  1.1988  0.9869 -4.0903
  136OSM      N14726   5.643   2.046   6.100  0.4018 -0.2381  0.8679
  136OSM    C1514727   5.690   2.188   6.075 -0.5163 -0.0172  0.4165
  136OSM   H15A14728   5.684   2.200   5.968  0.1151  0.3411  0.4192
  136OSM   H15B14729   5.785   2.203   6.123 -0.5155 -1.0063  0.7495
  136OSM   H15C14730   5.614   2.252   6.118 -0.6245  0.1745 -0.0574
  136OSM    C1414731   5.523   2.016   6.022  0.1188  0.4753 -0.0118
  136OSM   H14A14732   5.522   2.033   5.915 -1.5002  1.6197  0.1368
  136OSM   H14B14733   5.443   2.084   6.050 -1.1142 -0.7626 -0.4008
  136OSM   H14C14734   5.484   1.923   6.061  0.4472 -0.1733 -1.1814
  136OSM    C1314735   5.735   1.946   6.043 -0.8419  0.2739 -1.2217
  136OSM   H13A14736   5.744   1.961   5.937  0.4303 -0.9245 -1.3025
  136OSM   H13B14737   5.713   1.842   6.058  0.3079 -0.4971 -4.1799
  136OSM   H13C14738   5.831   1.966   6.088 -0.1875 -0.3923 -2.2774
  136OSM    C1214739   5.614   2.021   6.243  0.7312  0.1283  0.0432
  136OSM   H12A14740   5.568   2.109   6.286  0.0438 -0.4616  0.5564
  136OSM   H12B14741   5.704   2.018   6.303  0.6026  1.8514  0.3543
  136OSM    C1114742   5.522   1.899   6.286 -0.2037 -0.3666  0.8447
  136OSM   H11A14743   5.424   1.921   6.238 -0.1977  0.7748  1.3003
  136OSM   H11B14744   5.503   1.908   6.395 -1.8686  1.2906  0.4802
  136OSM      P14745   5.497   1.653   6.200  0.4901 -0.7535  0.4548
  136OSM    O1314746   5.384   1.701   6.121  0.1523 -0.3652 -0.3549
  136OSM    O1414747   5.587   1.552   6.146  0.3168 -0.1301  0.0220
  136OSM    O1114748   5.418   1.596   6.329 -0.5784  0.1497  0.3252
  136OSM    O1214749   5.580   1.777   6.250  0.0079 -0.0629  1.1752
  136OSM    C1S14750   5.474   1.613   6.458  0.4178  0.1567 -0.1146
  136OSM    H1S14751   5.580   1.645   6.455 -0.1349  2.0530 -2.4700
  136OSM    H1T14752   5.484   1.514   6.507  5.3782  1.3712  1.9179
  136OSM     NF14753   5.426   1.700   6.682  0.0466  0.0922  0.5519
  136OSM    HNF14754   5.379   1.635   6.740 -0.8719  0.5177  0.2964
  136OSM    C2S14755   5.376   1.697   6.550 -0.1513 -0.8546  1.1093
  136OSM    H2S14756   5.380   1.802   6.514 -3.2607 -0.4884  1.5732
  136OSM    C3S14757   5.234   1.643   6.533 -0.0451 -0.8254  0.0016
  136OSM    H3S14758   5.232   1.534   6.556 -1.1500 -0.7656  0.2135
  136OSM     O314759   5.179   1.663   6.405  0.7310 -0.0155  0.1004
  136OSM    HO314760   5.259   1.666   6.353 -0.3756 -0.2995 -1.6951
  136OSM    C4S14761   5.147   1.699   6.643 -0.2797 -0.5056 -0.9567
  136OSM    H4S14762   5.129   1.627   6.724 -2.6064  0.4481 -0.5515
  136OSM    C5S14763   5.090   1.817   6.639  0.4495  0.1305  0.1064
  136OSM    H5S14764   5.105   1.873   6.545  0.0090  1.1843  0.6491
  136OSM    C6S14765   5.003   1.881   6.748 -0.0524  0.2757  0.2370
  136OSM    H6S14766   4.899   1.869   6.712  0.0998  0.1115 -0.1628
  136OSM    H6T14767   5.020   1.990   6.759 -0.9459  0.5253 -0.6937
  136OSM    C7S14768   5.020   1.821   6.888  0.1117 -0.2270  0.4583
  136OSM    H7S14769   5.127   1.798   6.910  0.1951  2.0761  2.9915
  136OSM    H7T14770   4.964   1.726   6.897 -0.1518 -0.1885 -0.6151
  136OSM    C8S14771   4.962   1.912   7.003 -0.1283 -0.0679 -0.6522
  136OSM    H8S14772   4.860   1.940   6.969 -1.2441 -2.5488  0.3949
  136OSM    H8T14773   5.032   1.997   7.014  1.3145 -0.8857 -2.8056
  136OSM    C9S14774   4.951   1.849   7.138  0.7337  0.2941  0.5875
  136OSM    H9S14775   4.871   1.773   7.123  1.5187 -0.3084 -0.7269
  136OSM    H9T14776   4.903   1.926   7.202 -1.1232 -0.1584 -0.1873
  136OSM   C10S14777   5.083   1.810   7.209 -0.0345  0.3659  0.7519
  136OSM   H10S14778   5.158   1.892   7.200 -0.0613  0.2728 -0.5227
  136OSM   H10T14779   5.126   1.725   7.151 -0.7466  1.5389 -1.6467
  136OSM   C11S14780   5.077   1.758   7.347 -0.1375  0.3605 -1.0382
  136OSM   H11S14781   5.175   1.715   7.376  0.1182  0.6085 -1.5284
  136OSM   H11T14782   4.995   1.682   7.347 -0.4454  0.6883 -1.1483
  136OSM   C12S14783   5.046   1.863   7.454 -0.1738  0.7321  0.4222
  136OSM   H12S14784   4.963   1.927   7.416  0.0889  0.4155 -0.7470
  136OSM   H12T14785   5.137   1.926   7.455  0.2007  0.1983  0.2363
  136OSM   C13S14786   4.997   1.801   7.585  0.1565  0.4704 -0.4072
  136OSM   H13S14787   5.083   1.742   7.625  1.2758  2.5428  0.4084
  136OSM   H13T14788   4.911   1.731   7.577  0.0598  0.0165  2.9398
  136OSM   C14S14789   4.974   1.914   7.690 -0.6138 -0.7436  0.1760
  136OSM   H14S14790   4.900   1.989   7.656 -0.7921  1.3271  4.4649
  136OSM   H14T14791   5.068   1.968   7.714 -0.7218 -0.8465  0.8258
  136OSM   C15S14792   4.924   1.864   7.823  0.4733  0.9034  0.6214
  136OSM   H15S14793   4.985   1.772   7.838 -1.5495 -0.2284  2.6027
  136OSM   H15T14794   4.818   1.833   7.807  0.7360 -0.6564  1.6105
  136OSM   C16S14795   4.920   1.964   7.932 -1.5089  0.1998  0.0495
  136OSM   H16S14796   4.894   2.064   7.893 -1.1557  0.0854 -0.4860
  136OSM   H16T14797   5.026   1.976   7.965 -0.8707 -1.9345 -1.0629
  136OSM   C17S14798   4.840   1.925   8.054 -0.4478  0.1499 -0.3735
  136OSM   H17S14799   4.869   1.825   8.092 -0.6863  0.0161 -0.5394
  136OSM   H17T14800   4.736   1.914   8.016 -1.1599 -1.6826  1.8593
  136OSM   C18S14801   4.844   2.014   8.178  0.2720  0.2863 -0.2633
  136OSM   H18S14802   4.786   1.973   8.264  0.7366  0.4633  0.1379
  136OSM   H18T14803   4.817   2.118   8.151 -0.1783 -0.0398 -1.1294
  136OSM   H18U14804   4.951   2.016   8.210  0.2573 -0.8047 -0.1123
  136OSM    C1F14805   5.538   1.763   6.729  0.4192  0.0746 -0.2392
  136OSM     OF14806   5.580   1.858   6.660  0.0623  0.2489  0.6030
  136OSM    C2F14807   5.605   1.725   6.858  0.0966  0.7990  0.7249
  136OSM    H2F14808   5.657   1.627   6.843  3.0028  1.8640  2.8279
  136OSM    H2G14809   5.534   1.706   6.940  0.6484 -0.5440  0.9261
  136OSM    C3F14810   5.726   1.811   6.886  0.8775 -0.2819 -0.3247
  136OSM    H3F14811   5.688   1.915   6.900 -2.2176 -1.2076 -0.9346
  136OSM    H3G14812   5.805   1.802   6.808 -0.1013 -0.5440 -1.3125
  136OSM    C4F14813   5.789   1.785   7.023  0.2104  0.8212  0.0289
  136OSM    H4F14814   5.842   1.688   7.034  1.1670  1.3617  0.3446
  136OSM    H4G14815   5.701   1.786   7.090 -0.5809  0.8947 -0.9903
  136OSM    C5F14816   5.891   1.901   7.059  0.5662  0.3545 -0.1029
  136OSM    H5F14817   5.839   1.996   7.083  2.0576  0.9217  1.0406
  136OSM    H5G14818   5.965   1.920   6.979 -0.5680 -1.7229 -1.7685
  136OSM    C6F14819   5.973   1.876   7.189 -0.2493 -0.2249 -0.2319
  136OSM    H6F14820   6.051   1.953   7.204 -0.7240  0.4327 -1.1078
  136OSM    H6G14821   6.020   1.776   7.174  0.7040  0.1364  0.2707
  136OSM    C7F14822   5.888   1.868   7.313 -0.1679 -0.2783 -0.7268
  136OSM    H7F14823   5.782   1.886   7.287 -0.7484  0.0646  1.6871
  136OSM    H7G14824   5.915   1.937   7.395 -1.3418  1.0906 -1.4559
  136OSM    C8F14825   5.896   1.726   7.377  0.4774  0.1091 -0.2255
  136OSM    H8F14826   6.001   1.708   7.409  0.1611 -2.4125 -0.4255
  136OSM    H8G14827   5.878   1.646   7.302  4.6640 -0.5692 -0.7592
  136OSM    C9F14828   5.801   1.717   7.503  0.0391  0.4505 -0.1497
  136OSM    H9F14829   5.699   1.687   7.476  0.4502  0.5846 -1.9820
  136OSM   C10F14830   5.831   1.738   7.628  0.0661  0.0589  0.2120
  136OSM   H10F14831   5.763   1.715   7.711 -2.2173 -1.4793 -1.9622
  136OSM   C11F14832   5.963   1.788   7.679 -0.4585  0.2393  0.6456
  136OSM   H11F14833   5.950   1.884   7.733 -1.7395  0.2769  0.3209
  136OSM   H11G14834   6.028   1.815   7.593  0.2788 -1.7893  0.5155
  136OSM   C12F14835   6.036   1.691   7.774  0.2139 -0.2103 -0.3140
  136OSM   H12F14836   6.140   1.727   7.784  0.0577  0.8341 -1.9840
  136OSM   H12G14837   6.042   1.594   7.719  1.2854  1.1277 -2.7383
  136OSM   C13F14838   5.964   1.672   7.906 -0.3307 -0.7973  0.8702
  136OSM   H13F14839   5.874   1.609   7.888 -1.2838  0.2928  1.7370
  136OSM   H13G14840   5.950   1.772   7.952 -0.5148 -0.8366  0.8994
  136OSM   C14F14841   6.044   1.597   8.000 -0.6730  0.6030  0.2076
  136OSM   H14F14842   6.142   1.644   8.022  0.5182 -1.7514  0.2275
  136OSM   H14G14843   6.061   1.495   7.959 -0.4340 -0.0175  1.7795
  136OSM   C15F14844   5.960   1.571   8.130  0.0228 -0.0061  0.3122
  136OSM   H15F14845   5.892   1.658   8.136 -0.0706  0.2737 -2.9876
  136OSM   H15G14846   6.031   1.572   8.216 -1.2489  1.8851  1.4161
  136OSM   C16F14847   5.882   1.437   8.116 -0.9697  0.0218 -0.3383
  136OSM   H16F14848   5.956   1.358   8.137 -0.8704  0.1041 -0.3796
  136OSM   H16G14849   5.846   1.417   8.013 -0.2897 -0.0791 -0.5546
  136OSM   C17F14850   5.768   1.427   8.224 -0.3233 -0.1401  0.1234
  136OSM   H17F14851   5.818   1.458   8.318  3.2112  3.0842 -2.5159
  136OSM   H17G14852   5.729   1.323   8.222  3.2189 -1.6376 -2.0764
  136OSM   C18F14853   5.651   1.520   8.196 -0.0876  0.3834  0.5676
  136OSM   H18F14854   5.700   1.614   8.162  1.2568 -0.6350 -0.3716
  136OSM   H18G14855   5.588   1.524   8.288 -0.0034 -0.7813  0.6897
  136OSM   H18H14856   5.587   1.484   8.113 -0.8923  0.5590  1.0925
  137OSM      N14857   0.862   0.452   6.137  0.1113 -0.6389  0.2165
  137OSM    C1514858   0.917   0.589   6.099  0.5919 -0.1498 -0.0373
  137OSM   H15A14859   0.982   0.576   6.013 -0.7763 -0.7921 -1.0241
  137OSM   H15B14860   0.968   0.636   6.181  0.4781  0.0448 -0.0779
  137OSM   H15C14861   0.842   0.664   6.080  1.4872  1.1701  1.4210
  137OSM    C1414862   0.806   0.386   6.013 -0.2778 -0.0110  0.3328
  137OSM   H14A14863   0.817   0.280   6.032  0.3784 -0.5027 -2.3098
  137OSM   H14B14864   0.871   0.408   5.930  1.3173  0.2925  1.6173
  137OSM   H14C14865   0.709   0.427   5.990 -0.7402  0.9381  3.4717
  137OSM    C1314866   0.973   0.365   6.188  0.2805 -0.3531  0.1300
  137OSM   H13A14867   0.924   0.285   6.242  0.7418  1.1426  3.0078
  137OSM   H13B14868   1.034   0.420   6.259 -1.8226  1.6628  0.5106
  137OSM   H13C14869   1.026   0.313   6.110 -2.5213 -1.3543 -1.2407
  137OSM    C1214870   0.749   0.454   6.242 -0.0462  0.9530  0.2053
  137OSM   H12A14871   0.727   0.350   6.256  0.3715  0.5895 -1.5873
  137OSM   H12B14872   0.663   0.510   6.208  1.0591  4.2259  2.2998
  137OSM    C1114873   0.781   0.507   6.381  1.0360  0.3687 -0.3589
  137OSM   H11A14874   0.844   0.598   6.377  0.2289  1.2326  3.2941
  137OSM   H11B14875   0.843   0.435   6.439  1.8209  1.3603  0.0708
  137OSM      P14876   0.574   0.402   6.488  0.2559 -0.2746 -0.1258
  137OSM    O1314877   0.443   0.449   6.443  0.0921 -0.1721 -0.3064
  137OSM    O1414878   0.632   0.274   6.440  0.2861 -0.0835  0.2456
  137OSM    O1114879   0.564   0.412   6.649 -0.1152  0.3235  0.3003
  137OSM    O1214880   0.666   0.524   6.450  0.9135  0.2778  0.5629
  137OSM    C1S14881   0.612   0.513   6.735 -0.3565  0.2778 -0.0339
  137OSM    H1S14882   0.542   0.598   6.746 -1.0723 -0.3182  0.0679
  137OSM    H1T14883   0.696   0.575   6.695 -1.9998  2.7910  0.1603
  137OSM     NF14884   0.618   0.544   6.977 -0.1015  0.4825  0.2385
  137OSM    HNF14885   0.692   0.595   7.021  0.7688 -1.2695  0.8778
  137OSM    C2S14886   0.648   0.453   6.870 -0.9830 -0.2565 -0.7491
  137OSM    H2S14887   0.587   0.362   6.884 -1.3640  0.1337  0.2571
  137OSM    C3S14888   0.793   0.401   6.858  0.6807  0.3131  0.2830
  137OSM    H3S14889   0.860   0.487   6.838  0.2978  0.3682 -0.7960
  137OSM     O314890   0.812   0.309   6.750 -0.4077  0.0349  0.1589
  137OSM    HO314891   0.726   0.286   6.714 -0.3562 -0.8150  0.5373
  137OSM    C4S14892   0.843   0.328   6.977 -0.3315  0.3161  0.4150
  137OSM    H4S14893   0.777   0.255   7.027  1.5551 -3.8081 -2.4774
  137OSM    C5S14894   0.972   0.327   7.017  0.2274  0.2188 -0.4897
  137OSM    H5S14895   1.053   0.374   6.958  0.4595 -0.2313 -0.5367
  137OSM    C6S14896   1.014   0.244   7.136 -0.2763  0.1106 -0.1324
  137OSM    H6S14897   1.050   0.146   7.096 -0.5599  0.4484 -1.2313
  137OSM    H6T14898   0.926   0.215   7.197  0.1905  1.8855  1.4911
  137OSM    C7S14899   1.118   0.296   7.246 -0.5587  0.4161 -0.1563
  137OSM    H7S14900   1.084   0.384   7.304  0.9315 -0.0254  1.4722
  137OSM    H7T14901   1.201   0.339   7.186 -0.2434 -1.4244 -1.1084
  137OSM    C8S14902   1.177   0.176   7.325 -0.3572  0.0215  0.5015
  137OSM    H8S14903   1.171   0.083   7.264 -2.2628  1.4357 -1.6312
  137OSM    H8T14904   1.119   0.162   7.418  0.2189 -0.5440  0.7872
  137OSM    C9S14905   1.322   0.194   7.377  0.5167  0.7996 -0.5420
  137OSM    H9S14906   1.390   0.204   7.290  0.9942  0.1521 -0.2491
  137OSM    H9T14907   1.349   0.102   7.434 -0.8209  1.7740  1.8032
  137OSM   C10S14908   1.341   0.299   7.485 -0.2222 -0.9792 -0.1156
  137OSM   H10S14909   1.251   0.297   7.550 -2.5007  0.3955 -2.9622
  137OSM   H10T14910   1.330   0.400   7.438 -0.6631 -0.7562  0.4573
  137OSM   C11S14911   1.482   0.292   7.551  0.6123 -0.5907  0.1369
  137OSM   H11S14912   1.548   0.344   7.479  1.5194 -1.8910  0.0067
  137OSM   H11T14913   1.523   0.191   7.570 -1.2594 -1.1426  1.5862
  137OSM   C12S14914   1.480   0.375   7.678  0.1967 -0.1227  0.2187
  137OSM   H12S14915   1.391   0.335   7.732  1.7549 -2.8744  0.9263
  137OSM   H12T14916   1.482   0.481   7.646  1.2902 -0.2604 -0.2074
  137OSM   C13S14917   1.610   0.348   7.766  0.3840  0.5981  1.0588
  137OSM   H13S14918   1.703   0.377   7.712  0.8355 -1.0084  0.9100
  137OSM   H13T14919   1.607   0.242   7.799 -0.0720  0.1831 -0.2459
  137OSM   C14S14920   1.606   0.421   7.905 -0.2624  0.1343 -0.4527
  137OSM   H14S14921   1.538   0.355   7.963  1.0709  0.5321  1.6797
  137OSM   H14T14922   1.570   0.525   7.892  0.8699  0.5643 -0.2947
  137OSM   C15S14923   1.749   0.432   7.971  0.4960  0.3010  0.6150
  137OSM   H15S14924   1.823   0.480   7.905  0.9141 -1.5139 -0.3103
  137OSM   H15T14925   1.793   0.330   7.973 -2.2150 -1.0638 -1.7190
  137OSM   C16S14926   1.751   0.505   8.102  0.8075 -0.7083  0.0147
  137OSM   H16S14927   1.711   0.605   8.075  1.2226  0.1544  2.3465
  137OSM   H16T14928   1.852   0.528   8.141  0.7462 -0.7435  0.1932
  137OSM   C17S14929   1.666   0.448   8.211  0.0601 -0.8432  0.2685
  137OSM   H17S14930   1.722   0.360   8.248 -1.0830 -0.8769  2.0592
  137OSM   H17T14931   1.566   0.413   8.176  0.2766  0.1957 -1.5289
  137OSM   C18S14932   1.640   0.531   8.334 -0.6618  0.3664  0.7045
  137OSM   H18S14933   1.570   0.482   8.405 -0.2322  0.1685  0.9950
  137OSM   H18T14934   1.590   0.621   8.294  0.6953  0.7136 -0.3050
  137OSM   H18U14935   1.733   0.564   8.385 -1.7048 -0.1023  3.0356
  137OSM    C1F14936   0.488   0.563   7.009  0.0395 -1.2103  0.1274
  137OSM     OF14937   0.390   0.512   6.955  0.6899 -0.6135  0.2728
  137OSM    C2F14938   0.470   0.652   7.123  0.4441 -0.4123  0.2235
  137OSM    H2F14939   0.366   0.689   7.108  0.1769 -1.6575 -1.2416
  137OSM    H2G14940   0.536   0.741   7.130  0.6017 -0.5987  1.4548
  137OSM    C3F14941   0.473   0.575   7.253  0.8484  0.2414 -0.3471
  137OSM    H3F14942   0.570   0.523   7.266 -0.7667 -2.8510  0.2115
  137OSM    H3G14943   0.404   0.489   7.243  1.2008 -0.0362 -0.4167
  137OSM    C4F14944   0.441   0.671   7.365 -0.2766  0.4193 -0.2934
  137OSM    H4F14945   0.343   0.722   7.362 -0.9986 -0.7331  1.6913
  137OSM    H4G14946   0.512   0.757   7.371 -0.7840  0.8916 -0.9693
  137OSM    C5F14947   0.442   0.600   7.508  0.0398  0.0101  0.1652
  137OSM    H5F14948   0.543   0.566   7.538 -0.4384 -0.7230  1.0095
  137OSM    H5G14949   0.385   0.508   7.482 -0.3453  0.8695 -2.2985
  137OSM    C6F14950   0.376   0.687   7.615  1.3483  0.0494 -0.3556
  137OSM    H6F14951   0.267   0.700   7.601  1.6353  3.0579 -0.4771
  137OSM    H6G14952   0.426   0.786   7.617 -0.1419  0.8535 -1.3843
  137OSM    C7F14953   0.384   0.627   7.763 -0.0607 -0.6526 -0.6077
  137OSM    H7F14954   0.475   0.565   7.778 -0.2054 -0.2780  2.4854
  137OSM    H7G14955   0.307   0.547   7.774  0.0267 -0.4991  1.6642
  137OSM    C8F14956   0.377   0.733   7.882  0.8318  0.5770 -0.0478
  137OSM    H8F14957   0.280   0.787   7.881  0.3075 -0.3160  0.9185
  137OSM    H8G14958   0.458   0.808   7.875  2.1376 -0.7332  0.4585
  137OSM    C9F14959   0.373   0.658   8.016 -0.0231  0.2260  0.3845
  137OSM    H9F14960   0.312   0.567   8.016  2.7788 -1.7887  1.5883
  137OSM   C10F14961   0.443   0.684   8.125 -0.1994 -0.1454 -0.1702
  137OSM   H10F14962   0.413   0.637   8.221 -1.5442  0.4408 -0.2770
  137OSM   C11F14963   0.543   0.795   8.141 -0.1054 -0.6735  0.1506
  137OSM   H11F14964   0.518   0.852   8.233 -1.0304 -0.1627 -0.4027
  137OSM   H11G14965   0.555   0.859   8.051  1.2813  0.2835  0.9777
  137OSM   C12F14966   0.686   0.745   8.175  0.3498  0.1483  0.3328
  137OSM   H12F14967   0.732   0.837   8.216 -0.8601  0.6893  0.5219
  137OSM   H12G14968   0.743   0.725   8.081 -0.5500 -1.2349  0.0507
  137OSM   C13F14969   0.701   0.640   8.283 -0.1836  0.4063 -0.6280
  137OSM   H13F14970   0.678   0.544   8.232  1.3325 -0.8538  0.9312
  137OSM   H13G14971   0.631   0.641   8.370  0.1540 -0.5330 -0.3285
  137OSM   C14F14972   0.841   0.630   8.339 -0.2336  0.0395  0.5610
  137OSM   H14F14973   0.888   0.730   8.335 -0.4785  0.1198 -0.6641
  137OSM   H14G14974   0.899   0.561   8.274 -0.8849 -0.5337  0.5724
  137OSM   C15F14975   0.859   0.575   8.486 -0.1577  0.4535 -0.2594
  137OSM   H15F14976   0.791   0.487   8.482 -1.1234  1.2038 -0.9930
  137OSM   H15G14977   0.820   0.651   8.557 -0.9530  1.8775 -2.1383
  137OSM   C16F14978   1.004   0.515   8.504 -0.1637  0.4419 -0.4028
  137OSM   H16F14979   1.074   0.599   8.481 -0.9602  0.7414 -1.8388
  137OSM   H16G14980   1.013   0.435   8.428 -3.0570 -0.0538 -0.3248
  137OSM   C17F14981   1.046   0.471   8.641 -0.2720 -0.3839  0.6680
  137OSM   H17F14982   0.997   0.377   8.675 -0.5367 -0.9825 -1.2352
  137OSM   H17G14983   1.020   0.556   8.707 -1.4901  0.1659 -0.4719
  137OSM   C18F14984   1.190   0.444   8.648  0.2907  0.2452 -0.5168
  137OSM   H18F14985   1.252   0.537   8.651  0.6895 -0.0155  1.6045
  137OSM   H18G14986   1.225   0.378   8.566 -0.5015  0.7210 -1.2488
  137OSM   H18H14987   1.209   0.392   8.744 -3.3500 -0.0448  0.1827
  138OSM      N14988   2.291   1.412   6.067 -0.0886  0.3377 -0.5721
  138OSM    C1514989   2.384   1.386   5.954 -0.5033  0.3017  0.5457
  138OSM   H15A14990   2.463   1.314   5.974  1.0268  1.1846 -1.8983
  138OSM   H15B14991   2.430   1.473   5.910 -0.6543  0.1765  0.1374
  138OSM   H15C14992   2.329   1.343   5.872  2.4951 -1.2206 -0.8639
  138OSM    C1414993   2.171   1.491   6.015 -0.0753 -0.4329 -0.9114
  138OSM   H14A14994   2.104   1.504   6.099 -1.4747 -1.9003 -1.7436
  138OSM   H14B14995   2.117   1.435   5.940 -1.0925 -1.5807  0.6249
  138OSM   H14C14996   2.204   1.586   5.975  0.5226 -1.4131 -2.8484
  138OSM    C1314997   2.239   1.289   6.118  0.0763  0.1185  0.1905
  138OSM   H13A14998   2.317   1.232   6.166 -0.6843  0.2476  1.6358
  138OSM   H13B14999   2.200   1.237   6.032  1.2783  2.8923 -2.2248
  138OSM   H13C15000   2.151   1.299   6.180 -0.7471 -0.4429 -0.8582
  138OSM    C1215001   2.363   1.496   6.168  0.4136  0.0392  0.3378
  138OSM   H12A15002   2.429   1.568   6.122 -0.1685  0.8824  0.7948
  138OSM   H12B15003   2.430   1.423   6.212  1.3078 -1.2837 -2.9845
  138OSM    C1115004   2.281   1.568   6.274 -0.4327 -1.6511 -0.6340
  138OSM   H11A15005   2.344   1.590   6.364  1.8847  0.7458 -2.6559
  138OSM   H11B15006   2.199   1.506   6.314 -0.9451  0.4526  1.9240
  138OSM      P15007   2.300   1.822   6.235  0.3102  0.3297  0.0203
  138OSM    O1315008   2.437   1.812   6.185  0.2892 -0.0218  0.0017
  138OSM    O1415009   2.221   1.929   6.171 -0.3432  0.2687  0.1873
  138OSM    O1115010   2.308   1.842   6.396 -0.2728 -0.3415  0.7454
  138OSM    O1215011   2.229   1.686   6.211 -0.1734 -0.2521  0.2555
  138OSM    C1S15012   2.209   1.937   6.453 -0.4837 -0.8542 -0.3207
  138OSM    H1S15013   2.107   1.929   6.410 -1.6460 -1.2764  2.3500
  138OSM    H1T15014   2.246   2.042   6.450  0.1409 -0.9439  2.2450
  138OSM     NF15015   2.101   2.005   6.662  0.3247  0.0978  0.5701
  138OSM    HNF15016   2.129   2.091   6.702  1.7806  0.5037 -1.1756
  138OSM    C2S15017   2.207   1.922   6.613  0.1058 -0.4512  0.0022
  138OSM    H2S15018   2.179   1.816   6.632 -0.7078 -0.2894 -0.2621
  138OSM    C3S15019   2.343   1.939   6.668  0.1740 -0.1421 -0.5373
  138OSM    H3S15020   2.373   2.041   6.636  2.3913 -0.4044  0.5512
  138OSM     O315021   2.448   1.858   6.613 -0.3815 -0.4523  0.3841
  138OSM    HO315022   2.403   1.836   6.532 -0.9658 -0.4005  0.6923
  138OSM    C4S15023   2.341   1.923   6.819 -1.1621 -1.1361 -0.0027
  138OSM    H4S15024   2.311   2.015   6.872 -1.4096 -1.2350  0.0290
  138OSM    C5S15025   2.384   1.827   6.900 -0.0911  0.7493 -0.9805
  138OSM    H5S15026   2.429   1.747   6.839  0.1627 -0.0805  0.2476
  138OSM    C6S15027   2.389   1.836   7.053  0.4677 -0.0964  0.1217
  138OSM    H6S15028   2.492   1.833   7.096  1.1354  0.5900 -1.3776
  138OSM    H6T15029   2.341   1.740   7.081  0.5775 -0.0272  0.5596
  138OSM    C7S15030   2.305   1.953   7.118 -0.6435 -0.1130 -0.4138
  138OSM    H7S15031   2.198   1.951   7.089 -1.1117  1.8042  0.9600
  138OSM    H7T15032   2.342   2.052   7.084 -2.5225  0.7135 -0.1863
  138OSM    C8S15033   2.321   1.943   7.272 -0.0249  0.2476  0.6320
  138OSM    H8S15034   2.431   1.936   7.287  0.1917 -0.8916 -1.1278
  138OSM    H8T15035   2.296   1.839   7.303  1.9865 -0.5211 -0.1663
  138OSM    C9S15036   2.259   2.053   7.354 -0.1517  0.7274  0.0356
  138OSM    H9S15037   2.153   2.066   7.323 -0.1733 -2.8400 -1.9578
  138OSM    H9T15038   2.310   2.150   7.337 -2.1988  1.5440 -1.9098
  138OSM   C10S15039   2.263   2.020   7.505  0.2624 -0.2432  0.2313
  138OSM   H10S15040   2.365   2.044   7.542  0.1016  0.1182  0.4426
  138OSM   H10T15041   2.241   1.913   7.524 -1.0934  0.3642  2.4635
  138OSM   C11S15042   2.160   2.114   7.576  0.0166  0.3425  0.3685
  138OSM   H11S15043   2.055   2.104   7.539 -0.0375  0.8296  0.3816
  138OSM   H11T15044   2.196   2.218   7.560  0.9525 -0.1245 -0.6913
  138OSM   C12S15045   2.152   2.098   7.728 -0.0243  0.6585  0.4504
  138OSM   H12S15046   2.253   2.071   7.766 -0.5655 -0.9805  0.8238
  138OSM   H12T15047   2.084   2.017   7.762  1.1367 -0.2546  0.6514
  138OSM   C13S15048   2.134   2.233   7.792 -0.2170  0.0058 -0.0758
  138OSM   H13S15049   2.037   2.275   7.756  0.3755  3.0612  1.5338
  138OSM   H13T15050   2.213   2.304   7.759 -1.3383  0.9194 -0.8727
  138OSM   C14S15051   2.140   2.225   7.942 -0.7809  0.9998 -0.0806
  138OSM   H14S15052   2.248   2.209   7.964 -0.0312  2.3052 -2.4434
  138OSM   H14T15053   2.083   2.135   7.973  1.2512  0.2746  1.7934
  138OSM   C15S15054   2.083   2.345   8.021 -0.5682  0.3353 -0.1589
  138OSM   H15S15055   1.976   2.352   7.992 -0.5986  0.5195 -0.0044
  138OSM   H15T15056   2.135   2.427   7.967 -0.8276  1.3786  1.1280
  138OSM   C16S15057   2.121   2.344   8.163  0.8839  0.2956 -0.1220
  138OSM   H16S15058   2.063   2.434   8.196 -1.7109 -1.1212 -0.5998
  138OSM   H16T15059   2.231   2.358   8.174  0.8729  0.3534 -0.0826
  138OSM   C17S15060   2.081   2.220   8.250  0.0260  0.2541  0.5871
  138OSM   H17S15061   2.128   2.222   8.350 -0.9206  0.9270  1.0315
  138OSM   H17T15062   2.136   2.135   8.204  1.1771  0.5677  1.3424
  138OSM   C18S15063   1.932   2.184   8.260 -0.5311 -0.2222 -0.5301
  138OSM   H18S15064   1.879   2.258   8.195  1.5458  1.9004  0.0484
  138OSM   H18T15065   1.899   2.200   8.365  1.9399  3.9461 -0.1831
  138OSM   H18U15066   1.926   2.077   8.229  0.0634 -0.3268 -0.2998
  138OSM    C1F15067   1.972   1.974   6.659 -0.4194 -0.9104 -0.4413
  138OSM     OF15068   1.932   1.867   6.616 -0.2127  0.2107  0.1538
  138OSM    C2F15069   1.878   2.083   6.707  0.2221 -0.3443 -0.0734
  138OSM    H2F15070   1.797   2.107   6.635 -0.6328  1.6640  1.4675
  138OSM    H2G15071   1.928   2.179   6.735  0.2845 -0.1712 -0.7654
  138OSM    C3F15072   1.792   2.027   6.824  0.6605 -0.0866 -0.3154
  138OSM    H3F15073   1.736   1.939   6.788 -0.1829  0.1218  0.4494
  138OSM    H3G15074   1.710   2.101   6.834 -0.0755 -1.1176  1.9585
  138OSM    C4F15075   1.859   1.996   6.961 -0.2784 -0.2212  0.8268
  138OSM    H4F15076   1.910   2.089   6.991 -1.3405  0.9426 -0.8225
  138OSM    H4G15077   1.941   1.923   6.943  0.1108  0.0454  1.4785
  138OSM    C5F15078   1.778   1.951   7.081 -0.1981 -0.5568 -0.0556
  138OSM    H5F15079   1.776   1.840   7.088  0.5507 -0.5617  0.1505
  138OSM    H5G15080   1.675   1.986   7.061  0.1046  0.8072  0.6620
  138OSM    C6F15081   1.817   2.026   7.212 -0.1970  0.8046 -0.0544
  138OSM    H6F15082   1.803   2.136   7.202  0.6300  0.9075 -0.2373
  138OSM    H6G15083   1.926   2.010   7.231 -0.5473 -4.1076 -0.8521
  138OSM    C7F15084   1.750   1.962   7.338  0.1178  0.0648  0.9941
  138OSM    H7F15085   1.750   1.852   7.324 -2.6669  0.1356 -0.3587
  138OSM    H7G15086   1.643   1.993   7.335  0.5274  1.4870 -0.3182
  138OSM    C8F15087   1.817   1.995   7.467  0.0334 -0.3159 -0.0626
  138OSM    H8F15088   1.924   1.968   7.465 -0.5467 -2.9631  0.9623
  138OSM    H8G15089   1.785   1.916   7.538 -0.1365  0.1188  0.3522
  138OSM    C9F15090   1.784   2.129   7.517  0.0180 -0.1946 -0.5915
  138OSM    H9F15091   1.772   2.194   7.428  0.2552  1.9524  0.8669
  138OSM   C10F15092   1.757   2.168   7.646  0.9258 -0.4993 -0.2024
  138OSM   H10F15093   1.719   2.271   7.656  2.3486  0.2976 -2.2622
  138OSM   C11F15094   1.758   2.087   7.771 -0.1132 -0.1455  0.2547
  138OSM   H11F15095   1.853   2.105   7.826  0.8697  2.5124 -2.0066
  138OSM   H11G15096   1.764   1.982   7.738 -2.4145  0.3195 -1.9429
  138OSM   C12F15097   1.636   2.121   7.862  0.1880  0.7180  0.5253
  138OSM   H12F15098   1.545   2.095   7.804  1.3388  0.6759 -1.3597
  138OSM   H12G15099   1.638   2.223   7.906 -3.1773  0.6526  1.0458
  138OSM   C13F15100   1.644   2.027   7.988 -0.3155 -0.7045 -0.3945
  138OSM   H13F15101   1.736   2.054   8.045 -1.2743  0.3236  0.7279
  138OSM   H13G15102   1.650   1.918   7.965 -0.8071 -1.1667  1.4605
  138OSM   C14F15103   1.523   2.040   8.080  0.1068 -0.5677 -0.3490
  138OSM   H14F15104   1.428   2.025   8.024  0.4911 -0.4523 -1.0428
  138OSM   H14G15105   1.529   2.145   8.116  2.1253 -0.6597 -0.3024
  138OSM   C15F15106   1.517   1.936   8.195 -0.6251 -0.3012  0.4743
  138OSM   H15F15107   1.609   1.931   8.256  0.5575 -3.4435 -1.3375
  138OSM   H15G15108   1.517   1.842   8.135  0.8156  0.2414 -0.4309
  138OSM   C16F15109   1.386   1.955   8.275  0.1988  0.0396  0.0973
  138OSM   H16F15110   1.308   1.997   8.208  1.9433  1.2434 -1.2914
  138OSM   H16G15111   1.402   2.036   8.350 -0.0366 -1.8808  2.3301
  138OSM   C17F15112   1.341   1.823   8.352 -0.0819 -0.1085 -0.0976
  138OSM   H17F15113   1.253   1.843   8.416  0.2769  1.4874 -0.0571
  138OSM   H17G15114   1.417   1.805   8.431 -2.3965 -0.6971  2.1123
  138OSM   C18F15115   1.316   1.694   8.271  1.0347  0.1747  0.3614
  138OSM   H18F15116   1.399   1.663   8.203  0.2214 -0.1116 -0.5235
  138OSM   H18G15117   1.227   1.704   8.205  0.4120 -2.4076  0.7221
  138OSM   H18H15118   1.284   1.612   8.337 -1.5610 -1.1463 -2.2973
  139OSM      N15119   1.135   1.784   6.202 -0.0985 -0.5974 -0.0437
  139OSM    C1515120   1.286   1.771   6.193 -0.3850  0.3889  0.2421
  139OSM   H15A15121   1.318   1.745   6.093  1.0542  0.6526  0.6098
  139OSM   H15B15122   1.329   1.702   6.264 -2.1067 -2.3668 -1.2061
  139OSM   H15C15123   1.330   1.868   6.214  1.9130 -1.0065  2.5399
  139OSM    C1415124   1.084   1.813   6.070 -0.1983  0.4220 -0.0751
  139OSM   H14A15125   0.979   1.789   6.066  0.0138 -1.0033  1.6494
  139OSM   H14B15126   1.132   1.752   5.994 -1.1623 -1.1533  0.5345
  139OSM   H14C15127   1.100   1.917   6.045  0.0190  0.1504 -1.1036
  139OSM    C1315128   1.084   1.653   6.234 -0.6334  0.0936 -1.3589
  139OSM   H13A15129   1.101   1.573   6.163  2.5358 -1.1283  0.5750
  139OSM   H13B15130   0.979   1.649   6.261  0.0755  0.0418  1.7993
  139OSM   H13C15131   1.139   1.618   6.321  0.0856  1.7236 -1.1243
  139OSM    C1215132   1.088   1.882   6.305 -0.4741  0.1634 -0.2060
  139OSM   H12A15133   1.134   1.853   6.398 -2.2966 -0.4771  0.5336
  139OSM   H12B15134   0.980   1.878   6.314 -0.5837  0.6646 -1.1153
  139OSM    C1115135   1.128   2.028   6.283 -0.4032 -0.8191  0.4829
  139OSM   H11A15136   1.234   2.041   6.252  0.0997 -0.3595  2.2974
  139OSM   H11B15137   1.130   2.093   6.373  1.9170  1.4420 -1.0169
  139OSM      P15138   0.886   2.109   6.179 -0.1421  0.1152 -0.8050
  139OSM    O1315139   0.859   2.240   6.112  0.1870 -0.1344 -0.0445
  139OSM    O1415140   0.821   1.987   6.129 -0.5352  0.4001  0.0260
  139OSM    O1115141   0.854   2.123   6.333 -0.6084  0.8169  0.2206
  139OSM    O1215142   1.043   2.077   6.171 -0.4035 -0.5949  0.7040
  139OSM    C1S15143   0.883   2.257   6.387  0.0529  0.3738 -0.2759
  139OSM    H1S15144   0.819   2.333   6.338 -1.8373  0.5920  2.2874
  139OSM    H1T15145   0.989   2.288   6.376  1.1594 -3.0964 -0.6655
  139OSM     NF15146   0.861   2.420   6.584  0.0922  0.7590 -0.4277
  139OSM    HNF15147   0.941   2.455   6.633 -0.6397  0.0386  1.3641
  139OSM    C2S15148   0.857   2.275   6.543 -0.3027 -0.5273  0.0006
  139OSM    H2S15149   0.753   2.243   6.566 -1.6073  2.3507 -1.3027
  139OSM    C3S15150   0.956   2.168   6.618  0.4504 -0.3060 -0.8284
  139OSM    H3S15151   1.061   2.188   6.585  1.9430 -2.6003  2.0873
  139OSM     O315152   0.928   2.036   6.576  0.3142  0.2411 -0.6754
  139OSM    HO315153   0.865   2.035   6.503  1.4985 -1.1189 -1.7497
  139OSM    C4S15154   0.950   2.179   6.776 -0.0770  0.2831 -0.5853
  139OSM    H4S15155   1.020   2.252   6.818 -0.7696 -0.0651  1.2972
  139OSM    C5S15156   0.873   2.105   6.867  0.3074 -0.2963 -0.1172
  139OSM    H5S15157   0.800   2.034   6.827 -1.0663  0.8702  0.2193
  139OSM    C6S15158   0.883   2.120   7.017 -0.2096 -0.3801  0.2438
  139OSM    H6S15159   0.935   2.034   7.064 -1.3268 -1.3017 -0.1695
  139OSM    H6T15160   0.783   2.131   7.063  0.7045  1.6909  1.9533
  139OSM    C7S15161   0.958   2.250   7.067  0.0125  0.1431 -0.6273
  139OSM    H7S15162   0.917   2.337   7.011 -0.2624  0.6155  0.2823
  139OSM    H7T15163   1.067   2.238   7.050  0.2720  2.3336 -0.8777
  139OSM    C8S15164   0.930   2.264   7.221  0.3505 -0.1603  0.5258
  139OSM    H8S15165   0.968   2.181   7.283 -2.9543 -2.0792  0.2187
  139OSM    H8T15166   0.821   2.248   7.236  0.1434 -0.1319 -0.7814
  139OSM    C9S15167   0.965   2.405   7.267  0.3651 -0.1680  0.2461
  139OSM    H9S15168   0.917   2.485   7.208 -0.1375 -0.3433  0.4033
  139OSM    H9T15169   1.075   2.419   7.267  0.1318  2.0338 -0.7036
  139OSM   C10S15170   0.923   2.432   7.407  0.3483 -0.6365 -0.6885
  139OSM   H10S15171   1.009   2.401   7.470  0.5765  1.5713  0.1814
  139OSM   H10T15172   0.846   2.359   7.441  0.7475 -0.0644  1.5900
  139OSM   C11S15173   0.896   2.578   7.444  0.4049 -0.0787 -0.1366
  139OSM   H11S15174   0.808   2.610   7.384  1.5551  0.4974 -1.6036
  139OSM   H11T15175   0.980   2.642   7.408 -1.2111  2.3924  0.2016
  139OSM   C12S15176   0.867   2.607   7.590 -0.5899 -0.7402  0.1115
  139OSM   H12S15177   0.787   2.539   7.628 -0.5720 -1.6189 -1.3461
  139OSM   H12T15178   0.830   2.709   7.609  0.2989 -0.8780  3.0691
  139OSM   C13S15179   0.993   2.602   7.675  0.1393 -0.1698  0.2724
  139OSM   H13S15180   1.058   2.685   7.640 -0.2822  0.5743  1.1946
  139OSM   H13T15181   1.036   2.503   7.651  0.7976 -0.1593  1.3343
  139OSM   C14S15182   0.962   2.620   7.827 -0.2010 -0.3676  0.1629
  139OSM   H14S15183   1.057   2.588   7.876  0.0368 -0.3987 -0.3129
  139OSM   H14T15184   0.886   2.545   7.857 -0.9509  0.4837  0.4385
  139OSM   C15S15185   0.926   2.763   7.861  0.0846  0.8301 -0.4421
  139OSM   H15S15186   0.859   2.806   7.783 -0.3909  1.2641  0.2000
  139OSM   H15T15187   1.019   2.823   7.858  0.4611  0.5083  2.2647
  139OSM   C16S15188   0.862   2.785   8.004  0.1827 -0.7062  0.4955
  139OSM   H16S15189   0.763   2.735   7.999 -0.6187  0.8435 -0.1236
  139OSM   H16T15190   0.841   2.893   8.021  0.8034 -0.5930  0.5735
  139OSM   C17S15191   0.940   2.721   8.119 -0.1902  0.1070  0.5543
  139OSM   H17S15192   0.948   2.614   8.091  0.7832  0.1175  0.7634
  139OSM   H17T15193   0.883   2.731   8.215 -0.3464  1.7988  0.3201
  139OSM   C18S15194   1.084   2.782   8.138  0.0685  0.2888 -0.1117
  139OSM   H18S15195   1.131   2.795   8.038  1.5734 -0.8634  0.3985
  139OSM   H18T15196   1.127   2.703   8.204 -0.8862 -0.9196 -0.8988
  139OSM   H18U15197   1.082   2.875   8.199 -0.2041  0.1287  0.1248
  139OSM    C1F15198   0.768   2.513   6.549 -0.0766 -0.8124 -0.2100
  139OSM     OF15199   0.679   2.486   6.468 -0.0009  0.1537 -0.0776
  139OSM    C2F15200   0.793   2.651   6.606 -0.8830  0.4576 -0.3769
  139OSM    H2F15201   0.891   2.678   6.561 -0.2287  0.7988  1.1629
  139OSM    H2G15202   0.798   2.647   6.717  0.3457 -0.3722 -0.4450
  139OSM    C3F15203   0.678   2.746   6.573 -0.1253  1.1478  0.4587
  139OSM    H3F15204   0.587   2.694   6.612 -0.0790  0.5810 -0.1918
  139OSM    H3G15205   0.681   2.766   6.464  1.7325 -1.9377 -0.1706
  139OSM    C4F15206   0.694   2.894   6.630 -0.4747 -0.0722  0.1394
  139OSM    H4F15207   0.635   2.972   6.576  2.1751  0.1394 -2.7437
  139OSM    H4G15208   0.802   2.907   6.612 -0.2860  0.0560  1.2919
  139OSM    C5F15209   0.673   2.905   6.781  0.0390  1.0905  0.5479
  139OSM    H5F15210   0.773   2.896   6.829  1.3596 -0.6679 -2.2650
  139OSM    H5G15211   0.604   2.831   6.826 -1.3285  1.2000 -1.2294
  139OSM    C6F15212   0.601   3.035   6.820 -0.3866  0.9493  0.0894
  139OSM    H6F15213   0.593   3.031   6.931  0.4216  0.8866  0.1471
  139OSM    H6G15214   0.499   3.046   6.777 -0.1152  1.6745 -0.3757
  139OSM    C7F15215   0.684   3.159   6.781  0.5300  1.0576 -0.0168
  139OSM    H7F15216   0.658   3.197   6.680  2.5242 -1.2899 -1.5557
  139OSM    H7G15217   0.795   3.150   6.782  0.5440  1.2931  0.4810
  139OSM    C8F15218   0.659   3.265   6.892  0.1845  0.6180  0.1171
  139OSM    H8F15219   0.701   3.358   6.850 -0.5311  1.2575  0.7805
  139OSM    H8G15220   0.711   3.232   6.984  0.4648 -1.3471 -0.6968
  139OSM    C9F15221   0.521   3.305   6.927  0.2948 -0.1103 -0.3293
  139OSM    H9F15222   0.448   3.305   6.845  0.4134  1.0829 -0.4476
  139OSM   C10F15223   0.482   3.366   7.040  0.1758 -0.1576  0.0113
  139OSM   H10F15224   0.378   3.401   7.053  0.8458  2.2263 -0.4705
  139OSM   C11F15225   0.571   3.410   7.157  0.4417  0.1973 -0.3513
  139OSM   H11F15226   0.583   3.518   7.133  0.2074  0.3332  0.1228
  139OSM   H11G15227   0.666   3.353   7.155 -1.1830 -2.7170  0.5174
  139OSM   C12F15228   0.502   3.400   7.294 -1.0026  0.1404 -0.1479
  139OSM   H12F15229   0.508   3.290   7.311 -1.4989  0.2321  0.6814
  139OSM   H12G15230   0.394   3.427   7.298 -1.6146 -1.6258 -2.2173
  139OSM   C13F15231   0.580   3.453   7.412  0.1953 -0.3711  0.1245
  139OSM   H13F15232   0.588   3.563   7.398 -0.1946 -0.4796 -1.0973
  139OSM   H13G15233   0.677   3.401   7.421  0.6126  0.6292  1.8691
  139OSM   C14F15234   0.507   3.424   7.547 -0.1436  0.7696 -0.4489
  139OSM   H14F15235   0.537   3.329   7.596 -2.1153 -0.8928 -2.2828
  139OSM   H14G15236   0.397   3.425   7.530 -0.6027 -0.1495  2.0183
  139OSM   C15F15237   0.525   3.531   7.653  0.0595  0.2639  0.0329
  139OSM   H15F15238   0.494   3.631   7.616 -0.6920  0.1310  0.2734
  139OSM   H15G15239   0.627   3.543   7.695 -0.0085 -0.0365  0.2916
  139OSM   C16F15240   0.440   3.501   7.775 -0.1261  0.2353 -0.1258
  139OSM   H16F15241   0.337   3.471   7.745  0.2035  0.2402 -1.2960
  139OSM   H16G15242   0.439   3.598   7.828  0.5621  1.2151 -1.8361
  139OSM   C17F15243   0.507   3.399   7.870  0.5445  0.1726  0.4636
  139OSM   H17F15244   0.614   3.427   7.876  1.1974 -1.7381 -1.1272
  139OSM   H17G15245   0.504   3.298   7.824  1.7053  0.3385 -0.0029
  139OSM   C18F15246   0.446   3.402   8.006  0.2506  0.3406  0.1956
  139OSM   H18F15247   0.464   3.305   8.057  2.4120  0.5855  0.0115
  139OSM   H18G15248   0.337   3.413   7.988  0.5942  0.4889 -2.1337
  139OSM   H18H15249   0.471   3.487   8.072 -1.7185  0.3936  0.9322
  140OSM      N15250   1.750   4.226   5.990  0.6557  0.5028 -0.4525
  140OSM    C1515251   1.671   4.349   5.952  1.5968 -0.7170 -0.1613
  140OSM   H15A15252   1.564   4.335   5.956  1.0516  2.8551  2.1159
  140OSM   H15B15253   1.694   4.369   5.848  3.7739 -0.4295  0.3173
  140OSM   H15C15254   1.688   4.430   6.021 -2.8507  0.5324 -0.2488
  140OSM    C1415255   1.710   4.109   5.906  0.1985  0.6665 -0.7996
  140OSM   H14A15256   1.790   4.036   5.917  1.2939  1.9936  0.3253
  140OSM   H14B15257   1.706   4.139   5.802 -0.8150  0.6917 -0.7592
  140OSM   H14C15258   1.613   4.074   5.938  0.3530 -0.0928 -1.1401
  140OSM    C1315259   1.893   4.257   5.970  0.1280 -0.8598  0.2782
  140OSM   H13A15260   1.917   4.357   6.002  0.3882 -1.2566  1.3482
  140OSM   H13B15261   1.924   4.254   5.867  0.8767 -1.5054  0.5152
  140OSM   H13C15262   1.952   4.187   6.027  1.8085  0.2783  0.0302
  140OSM    C1215263   1.723   4.194   6.137 -0.3851 -0.3114 -0.2079
  140OSM   H12A15264   1.748   4.281   6.196  0.3854  0.6636 -1.9183
  140OSM   H12B15265   1.792   4.120   6.173 -0.0472  0.9408  1.9468
  140OSM    C1115266   1.577   4.153   6.179 -0.4971 -0.1639  0.8070
  140OSM   H11A15267   1.498   4.228   6.158 -2.0021 -1.6289  1.0742
  140OSM   H11B15268   1.584   4.157   6.290  1.9379  0.2855  0.7034
  140OSM      P15269   1.597   3.893   6.203  0.4223  0.5120  0.2953
  140OSM    O1315270   1.513   3.776   6.161 -0.7674 -0.3881  0.3598
  140OSM    O1415271   1.744   3.878   6.201 -0.2570  0.2333  0.1559
  140OSM    O1115272   1.566   3.931   6.353  0.2430  0.2079  0.0493
  140OSM    O1215273   1.535   4.028   6.133  0.0714  0.6958  0.0534
  140OSM    C1S15274   1.543   3.831   6.454 -0.0286 -0.4454  0.6403
  140OSM    H1S15275   1.620   3.751   6.449 -0.2811 -0.6690  0.3482
  140OSM    H1T15276   1.444   3.784   6.438 -1.1558  1.6291  1.1320
  140OSM     NF15277   1.492   3.794   6.700  0.0637 -1.3544 -0.1703
  140OSM    HNF15278   1.399   3.791   6.735  0.6391 -0.3963  1.6075
  140OSM    C2S15279   1.534   3.895   6.598 -0.3315  0.1839 -0.2464
  140OSM    H2S15280   1.638   3.927   6.618 -0.5565  0.0610  1.1839
  140OSM    C3S15281   1.436   4.019   6.594 -0.3907  0.0887 -0.4766
  140OSM    H3S15282   1.331   3.984   6.579 -0.6785  1.5283 -2.0311
  140OSM     O315283   1.450   4.116   6.487  0.0524  0.3258  0.0344
  140OSM    HO315284   1.500   4.074   6.416 -1.9691 -1.5765 -0.3784
  140OSM    C4S15285   1.434   4.092   6.735 -0.1785  0.3038  1.0764
  140OSM    H4S15286   1.376   4.035   6.809  1.1364 -2.0988  0.3503
  140OSM    C5S15287   1.482   4.211   6.763  0.2484 -0.1118  0.2835
  140OSM    H5S15288   1.549   4.267   6.696  0.6161 -0.5362  0.2915
  140OSM    C6S15289   1.472   4.286   6.894 -0.3192  0.4973 -0.0089
  140OSM    H6S15290   1.394   4.361   6.872 -1.6993 -0.3693  1.6342
  140OSM    H6T15291   1.563   4.344   6.922 -2.0146  2.7307  1.2246
  140OSM    C7S15292   1.427   4.201   7.018 -0.0305 -0.0626  0.6365
  140OSM    H7S15293   1.473   4.100   7.023  1.7444  0.7138  0.8295
  140OSM    H7T15294   1.317   4.192   7.005 -0.3728  0.6695  2.6870
  140OSM    C8S15295   1.455   4.267   7.154 -0.3160  0.0987  0.4106
  140OSM    H8S15296   1.565   4.278   7.168 -0.2223 -2.2375  2.1120
  140OSM    H8T15297   1.422   4.199   7.236  0.8013 -0.3866  0.4726
  140OSM    C9S15298   1.387   4.401   7.175  0.0860 -0.2767  0.1357
  140OSM    H9S15299   1.279   4.378   7.175 -0.3983  1.7788  0.1907
  140OSM    H9T15300   1.411   4.467   7.089  0.4916  1.2162  1.3569
  140OSM   C10S15301   1.417   4.481   7.303  0.0281 -0.2062  0.3948
  140OSM   H10S15302   1.359   4.575   7.294 -1.5182 -1.1012  0.6662
  140OSM   H10T15303   1.525   4.504   7.298 -0.7638  4.4671  0.9769
  140OSM   C11S15304   1.371   4.412   7.424 -0.6775  0.0460  0.0576
  140OSM   H11S15305   1.423   4.314   7.428 -0.9916 -0.0880  1.5030
  140OSM   H11T15306   1.263   4.391   7.432 -0.9918  1.9254  1.3103
  140OSM   C12S15307   1.412   4.492   7.547  0.3585 -0.8873 -0.2974
  140OSM   H12S15308   1.361   4.590   7.536 -1.4055 -1.7725 -0.3749
  140OSM   H12T15309   1.522   4.508   7.549  0.1660  0.4354  0.5264
  140OSM   C13S15310   1.361   4.434   7.680 -0.4332 -0.1397  0.1094
  140OSM   H13S15311   1.395   4.330   7.696 -1.3766 -0.8547 -2.2254
  140OSM   H13T15312   1.251   4.427   7.672 -0.4158  0.4886 -0.7367
  140OSM   C14S15313   1.389   4.517   7.804 -0.2715  0.2159 -0.1351
  140OSM   H14S15314   1.353   4.622   7.793 -1.9030 -0.0217  2.2751
  140OSM   H14T15315   1.496   4.522   7.834  0.2253 -0.6340 -1.6507
  140OSM   C15S15316   1.309   4.462   7.930 -1.1542 -0.1839  0.4004
  140OSM   H15S15317   1.326   4.352   7.936  0.6969 -0.0833 -1.5938
  140OSM   H15T15318   1.201   4.483   7.918 -0.7818  1.0182 -1.2220
  140OSM   C16S15319   1.370   4.531   8.052  0.1483  0.2589 -0.3999
  140OSM   H16S15320   1.299   4.536   8.138 -0.4098  0.3939 -0.8617
  140OSM   H16T15321   1.389   4.636   8.019  0.0839  0.4514  0.1646
  140OSM   C17S15322   1.492   4.453   8.113 -0.2360 -0.5580 -0.4452
  140OSM   H17S15323   1.572   4.447   8.035  0.5934 -1.7954  0.4631
  140OSM   H17T15324   1.459   4.348   8.131  1.1640 -1.1423 -1.1282
  140OSM   C18S15325   1.548   4.504   8.244 -0.0308 -0.1065  0.9089
  140OSM   H18S15326   1.552   4.615   8.239  1.1903 -0.1802 -2.8689
  140OSM   H18T15327   1.649   4.468   8.272 -0.0391  0.3326  1.5202
  140OSM   H18U15328   1.488   4.479   8.334  0.9993  0.3594  1.7497
  140OSM    C1F15329   1.559   3.684   6.717  0.0953 -0.4627  0.5044
  140OSM     OF15330   1.664   3.657   6.655 -0.5813 -0.3938 -0.2933
  140OSM    C2F15331   1.510   3.596   6.832  0.7576 -0.3624 -0.4165
  140OSM    H2F15332   1.423   3.536   6.798  0.6420 -0.8205  0.6349
  140OSM    H2G15333   1.473   3.671   6.905 -0.2806  0.1076 -1.3980
  140OSM    C3F15334   1.625   3.514   6.905  0.4364  0.0191 -0.0633
  140OSM    H3F15335   1.710   3.582   6.929  0.9697 -0.4661 -0.5561
  140OSM    H3G15336   1.651   3.449   6.819  1.0156 -1.7274  1.3646
  140OSM    C4F15337   1.584   3.433   7.027 -0.1520 -0.6269  0.1198
  140OSM    H4F15338   1.672   3.385   7.074  0.5089 -0.6815 -1.1288
  140OSM    H4G15339   1.515   3.353   6.991  0.1218 -0.1412 -1.6043
  140OSM    C5F15340   1.505   3.519   7.132  0.7515 -0.0186 -0.4758
  140OSM    H5F15341   1.399   3.516   7.100  0.8828 -0.9641 -0.8629
  140OSM    H5G15342   1.534   3.626   7.122 -4.3882  1.8402  1.1435
  140OSM    C6F15343   1.518   3.474   7.278 -0.8728 -0.6032  0.1259
  140OSM    H6F15344   1.623   3.487   7.312 -1.1012  1.9452  0.0593
  140OSM    H6G15345   1.492   3.367   7.289 -2.8883  0.0007  2.0730
  140OSM    C7F15346   1.430   3.566   7.367 -0.2284  0.1355  0.3238
  140OSM    H7F15347   1.327   3.538   7.336 -0.7411  1.3618  0.8677
  140OSM    H7G15348   1.455   3.673   7.351  1.6146 -0.1529  1.0046
  140OSM    C8F15349   1.450   3.524   7.509 -0.8435 -0.1893 -0.2347
  140OSM    H8F15350   1.555   3.541   7.541 -0.6837  2.1929 -1.7548
  140OSM    H8G15351   1.439   3.414   7.520 -1.2460 -0.0009  1.5044
  140OSM    C9F15352   1.356   3.595   7.600  0.2701  0.0078 -0.0509
  140OSM    H9F15353   1.298   3.680   7.560 -0.7462  0.3570  2.0161
  140OSM   C10F15354   1.334   3.559   7.731  0.1027 -0.1354  0.2292
  140OSM   H10F15355   1.258   3.613   7.789  0.6660  0.9914 -0.0658
  140OSM   C11F15356   1.408   3.450   7.806  0.3045 -0.2850 -0.3221
  140OSM   H11F15357   1.481   3.394   7.744 -0.7185 -1.5213 -0.4459
  140OSM   H11G15358   1.332   3.377   7.838 -0.1484 -0.2936 -1.3608
  140OSM   C12F15359   1.487   3.519   7.920  0.3299 -0.8346 -0.1873
  140OSM   H12F15360   1.420   3.554   8.001  1.3538 -1.0261  0.7596
  140OSM   H12G15361   1.534   3.610   7.878  0.4192 -0.6654  0.2816
  140OSM   C13F15362   1.591   3.430   7.995 -0.2440 -0.6987  0.8779
  140OSM   H13F15363   1.650   3.377   7.917 -0.8614  1.0783 -0.8793
  140OSM   H13G15364   1.552   3.346   8.055  1.8408 -2.0173  0.5234
  140OSM   C14F15365   1.689   3.506   8.078 -0.5367 -0.9385  0.7486
  140OSM   H14F15366   1.723   3.595   8.021 -0.4133 -2.5222 -1.8566
  140OSM   H14G15367   1.772   3.434   8.095  0.8413  0.3201 -0.3580
  140OSM   C15F15368   1.624   3.549   8.209  0.1077 -0.2415 -0.1248
  140OSM   H15F15369   1.520   3.589   8.199  0.5084  0.1856 -4.5930
  140OSM   H15G15370   1.682   3.638   8.242 -0.4739 -0.3566  1.2814
  140OSM   C16F15371   1.641   3.446   8.320  0.1842  0.3470 -0.2281
  140OSM   H16F15372   1.751   3.431   8.323  0.1369  0.0992  0.4997
  140OSM   H16G15373   1.593   3.352   8.285  0.0406  0.4235 -0.2376
  140OSM   C17F15374   1.596   3.478   8.466  0.8393  0.0156  0.8543
  140OSM   H17F15375   1.487   3.486   8.481  1.1964  1.3978  3.2701
  140OSM   H17G15376   1.631   3.580   8.492  2.3398 -0.0589 -0.7077
  140OSM   C18F15377   1.656   3.379   8.563  1.0718  0.2655 -0.0446
  140OSM   H18F15378   1.766   3.382   8.545  0.9526 -1.1340 -1.1564
  140OSM   H18G15379   1.631   3.277   8.527 -0.0694  1.3703 -2.6374
  140OSM   H18H15380   1.637   3.383   8.672  0.6665 -3.0453  0.1170
  141OSM      N15381   0.291   0.148   6.252 -0.5640  0.5419 -0.5776
  141OSM    C1515382   0.314   0.054   6.371  0.3621 -0.1272  0.5795
  141OSM   H15A15383   0.390   0.100   6.433  0.1953  0.4700  0.3450
  141OSM   H15B15384   0.360  -0.039   6.341 -1.8604 -1.9055  2.3383
  141OSM   H15C15385   0.219   0.046   6.422 -0.0948  0.2224 -0.1973
  141OSM    C1415386   0.239   0.271   6.299  0.3202 -0.0382  0.3366
  141OSM   H14A15387   0.226   0.340   6.216 -1.2693 -1.8627 -1.0321
  141OSM   H14B15388   0.297   0.329   6.368 -0.0252 -0.0903  0.6746
  141OSM   H14C15389   0.135   0.267   6.329  0.9960  0.4009  2.9229
  141OSM    C1315390   0.415   0.175   6.182  0.0586 -0.5500  0.1444
  141OSM   H13A15391   0.402   0.246   6.102  0.5484 -0.6286 -0.0111
  141OSM   H13B15392   0.459   0.086   6.141 -0.5391 -1.1630  0.8132
  141OSM   H13C15393   0.495   0.213   6.244  0.6910 -0.4350 -0.7155
  141OSM    C1215394   0.197   0.082   6.150 -0.6406  0.2366  0.4350
  141OSM   H12A15395   0.197   0.155   6.070  0.6295  0.8057  0.9239
  141OSM   H12B15396   0.100   0.062   6.191 -1.3892 -2.7672 -2.3311
  141OSM    C1115397   0.244  -0.061   6.097 -0.6312  0.3874 -0.1697
  141OSM   H11A15398   0.346  -0.060   6.053  0.7804  0.3908  2.8478
  141OSM   H11B15399   0.174  -0.084   6.014  0.3234 -0.5738 -0.7314
  141OSM      P15400   0.095  -0.244   6.223  0.0168  0.3109  0.3558
  141OSM    O1315401  -0.027  -0.163   6.183 -0.0792  0.0507 -0.5575
  141OSM    O1415402   0.099  -0.376   6.158  0.4470 -0.2960  0.3330
  141OSM    O1115403   0.093  -0.262   6.383  0.5596  0.1378 -0.2516
  141OSM    O1215404   0.232  -0.162   6.193 -0.7151 -1.0318  0.9680
  141OSM    C1S15405   0.217  -0.265   6.459 -0.1330  0.1420 -0.3917
  141OSM    H1S15406   0.296  -0.205   6.409 -1.4490  1.7529 -0.6252
  141OSM    H1T15407   0.246  -0.371   6.474 -1.1117  0.2066  2.5277
  141OSM     NF15408   0.307  -0.257   6.691 -0.0891  0.5020  0.0251
  141OSM    HNF15409   0.313  -0.329   6.760  0.9147  0.2285 -0.3274
  141OSM    C2S15410   0.191  -0.230   6.611  0.4294  0.3648  0.4854
  141OSM    H2S15411   0.163  -0.124   6.628  0.6888  0.4922  0.1361
  141OSM    C3S15412   0.069  -0.312   6.670  0.1766  0.6005 -0.3949
  141OSM    H3S15413   0.116  -0.413   6.669  1.5289  1.2058 -1.3402
  141OSM     O315414  -0.044  -0.333   6.586 -0.4667  0.4336 -0.2929
  141OSM    HO315415  -0.013  -0.286   6.508  2.7966  0.1988  0.6960
  141OSM    C4S15416   0.033  -0.269   6.809 -0.5337 -0.1010  0.1730
  141OSM    H4S15417   0.075  -0.341   6.881 -1.1452 -1.0551 -0.3895
  141OSM    C5S15418  -0.041  -0.165   6.843 -0.0133  0.2680  0.0155
  141OSM    H5S15419  -0.069  -0.083   6.774 -1.2153  0.3241  0.5412
  141OSM    C6S15420  -0.071  -0.104   6.986 -0.4337  0.1751  0.5859
  141OSM    H6S15421  -0.181  -0.107   6.997 -0.8458  0.2471 -2.5887
  141OSM    H6T15422  -0.030  -0.002   7.004  1.2394 -0.5644  1.2006
  141OSM    C7S15423  -0.011  -0.177   7.108 -0.2499  0.0214 -0.2373
  141OSM    H7S15424   0.098  -0.179   7.089 -0.3672 -0.3050 -0.9173
  141OSM    H7T15425  -0.020  -0.288   7.112 -0.4094  0.0596  2.7637
  141OSM    C8S15426  -0.054  -0.123   7.239 -0.3449 -0.6515  0.0346
  141OSM    H8S15427  -0.164  -0.110   7.250 -0.3430 -0.4522 -0.1878
  141OSM    H8T15428  -0.011  -0.021   7.252 -1.3063 -0.1860 -0.3740
  141OSM    C9S15429   0.007  -0.192   7.362  0.1267 -0.3836 -0.4142
  141OSM    H9S15430   0.115  -0.166   7.368 -0.1697  1.2738 -1.4090
  141OSM    H9T15431  -0.002  -0.299   7.336  1.0335 -0.5074 -0.2365
  141OSM   C10S15432  -0.068  -0.171   7.488  0.1744  0.1338 -0.0238
  141OSM   H10S15433  -0.166  -0.218   7.465  0.2468 -0.2036  0.3370
  141OSM   H10T15434  -0.086  -0.065   7.516 -1.0213 -0.2902  0.8958
  141OSM   C11S15435   0.008  -0.246   7.606  0.5989 -0.6897  1.2439
  141OSM   H11S15436   0.113  -0.210   7.614  0.6367 -0.5724  0.3249
  141OSM   H11T15437   0.024  -0.352   7.576  0.3856  0.0725 -2.0146
  141OSM   C12S15438  -0.061  -0.239   7.742 -0.5494 -0.8221  0.1719
  141OSM   H12S15439  -0.155  -0.298   7.748 -0.3611 -1.0515  1.0435
  141OSM   H12T15440  -0.091  -0.137   7.774 -0.1447  0.1255 -2.2852
  141OSM   C13S15441   0.028  -0.287   7.857  0.2862  0.1546 -0.2712
  141OSM   H13S15442   0.120  -0.226   7.863  1.2192 -1.2662  0.2290
  141OSM   H13T15443   0.055  -0.394   7.842  0.6308  0.3275 -0.8859
  141OSM   C14S15444  -0.043  -0.294   7.992  0.4969 -0.1289  0.1940
  141OSM   H14S15445  -0.129  -0.362   7.977 -0.1758  0.8136 -0.3995
  141OSM   H14T15446  -0.089  -0.196   8.021  0.8189 -0.2751  1.2248
  141OSM   C15S15447   0.055  -0.347   8.109  0.9932  0.4084  0.2228
  141OSM   H15S15448   0.136  -0.273   8.125 -1.3015  3.5526 -1.6746
  141OSM   H15T15449   0.096  -0.445   8.076  0.5919 -0.2012  1.4280
  141OSM   C16S15450  -0.022  -0.360   8.241 -0.0018 -0.2018  0.2635
  141OSM   H16S15451  -0.102  -0.436   8.227 -0.6835  0.3170  1.1903
  141OSM   H16T15452  -0.071  -0.264   8.268  0.7738 -0.1670  1.6192
  141OSM   C17S15453   0.053  -0.393   8.367  0.8160 -0.0439 -0.4835
  141OSM   H17S15454  -0.005  -0.369   8.459  1.5906  0.3308 -0.0703
  141OSM   H17T15455   0.131  -0.314   8.377  0.0325  0.8784 -1.4538
  141OSM   C18S15456   0.115  -0.529   8.374 -0.3530 -0.2559  0.0478
  141OSM   H18S15457   0.041  -0.611   8.372 -1.7700  0.9887  0.1684
  141OSM   H18T15458   0.183  -0.540   8.462 -1.0451 -0.8619  0.5262
  141OSM   H18U15459   0.173  -0.555   8.283  2.1864 -2.2730  2.0560
  141OSM    C1F15460   0.413  -0.175   6.680  0.4828 -1.1163  0.6198
  141OSM     OF15461   0.425  -0.092   6.597 -0.0344 -0.2632  0.4771
  141OSM    C2F15462   0.523  -0.182   6.778 -0.3530  0.3725 -0.4357
  141OSM    H2F15463   0.593  -0.262   6.746 -1.5399 -0.4879 -0.9861
  141OSM    H2G15464   0.488  -0.214   6.878  3.2761  0.3143  0.9758
  141OSM    C3F15465   0.598  -0.053   6.803  0.2599  0.0322  0.2275
  141OSM    H3F15466   0.522   0.028   6.801 -1.1006 -1.2113 -0.7921
  141OSM    H3G15467   0.664  -0.048   6.714 -3.2249 -0.3099 -2.6371
  141OSM    C4F15468   0.687  -0.037   6.926  0.2953  0.0806  0.2321
  141OSM    H4F15469   0.754   0.046   6.895 -1.4518  1.0089 -1.2288
  141OSM    H4G15470   0.748  -0.125   6.955  1.7503  0.9058 -0.2286
  141OSM    C5F15471   0.615   0.022   7.054 -0.3135 -0.1845 -0.2904
  141OSM    H5F15472   0.517  -0.028   7.068 -1.1501  1.3315 -0.4607
  141OSM    H5G15473   0.576   0.124   7.032 -1.6265 -0.5305  0.3331
  141OSM    C6F15474   0.699   0.020   7.184  0.5007  0.7975  0.1371
  141OSM    H6F15475   0.802   0.057   7.164  0.9357 -0.8682 -0.9207
  141OSM    H6G15476   0.715  -0.082   7.224 -1.0819  0.7837  0.8104
  141OSM    C7F15477   0.625   0.103   7.288  0.0977 -0.2208  0.4165
  141OSM    H7F15478   0.528   0.053   7.308 -0.1847 -0.6076 -1.7375
  141OSM    H7G15479   0.597   0.205   7.257 -0.8863 -0.4384  0.5417
  141OSM    C8F15480   0.714   0.121   7.416  0.2647  0.1819  0.7615
  141OSM    H8F15481   0.817   0.152   7.386 -0.4072  0.7914 -1.0167
  141OSM    H8G15482   0.712   0.021   7.463  1.1138  0.3358  1.1597
  141OSM    C9F15483   0.656   0.213   7.519  0.2823  0.5626 -0.7016
  141OSM    H9F15484   0.559   0.179   7.559  1.3086 -1.4162  0.2860
  141OSM   C10F15485   0.708   0.330   7.567  0.3616 -0.1445  0.1052
  141OSM   H10F15486   0.658   0.390   7.645 -3.6884 -0.3323 -2.0816
  141OSM   C11F15487   0.843   0.393   7.529 -0.2355  0.1121 -0.0464
  141OSM   H11F15488   0.835   0.504   7.533  0.6083  0.1762  0.0255
  141OSM   H11G15489   0.869   0.362   7.426  0.1872 -1.5728  0.5363
  141OSM   C12F15490   0.970   0.368   7.610  0.2218  0.3335 -0.2785
  141OSM   H12F15491   1.050   0.423   7.556 -1.6570  0.7154 -2.8566
  141OSM   H12G15492   1.015   0.267   7.620  0.8783  0.4990 -1.3353
  141OSM   C13F15493   0.962   0.424   7.751  0.6295  0.6189  0.7995
  141OSM   H13F15494   0.862   0.401   7.794  1.5321 -2.3342  1.5522
  141OSM   H13G15495   0.982   0.533   7.752 -0.0153  0.7430  0.9284
  141OSM   C14F15496   1.060   0.347   7.840 -0.4262 -0.0648  0.0979
  141OSM   H14F15497   1.145   0.305   7.781 -0.5737 -0.4274  0.1415
  141OSM   H14G15498   1.023   0.252   7.883 -0.8450  0.5695  1.1618
  141OSM   C15F15499   1.108   0.432   7.954 -0.6117 -0.0973 -0.2985
  141OSM   H15F15500   1.022   0.455   8.020  0.4905 -0.1142  1.1922
  141OSM   H15G15501   1.135   0.530   7.910 -1.6176  0.0078 -0.7197
  141OSM   C16F15502   1.214   0.371   8.043  0.4012 -0.0879 -0.3006
  141OSM   H16F15503   1.236   0.435   8.131  3.6538 -1.6776  0.2062
  141OSM   H16G15504   1.307   0.369   7.983  2.0682 -0.6968  2.1606
  141OSM   C17F15505   1.193   0.231   8.099  0.1173  0.2703  0.7359
  141OSM   H17F15506   1.280   0.197   8.159 -0.5348 -1.9070  0.5369
  141OSM   H17G15507   1.183   0.151   8.024  1.2477  0.4600  0.3635
  141OSM   C18F15508   1.064   0.214   8.177  0.3231  0.2112 -0.2322
  141OSM   H18F15509   1.047   0.104   8.183 -1.1691  0.4731  0.8227
  141OSM   H18G15510   0.978   0.274   8.140 -0.5181  0.1966  1.5807
  141OSM   H18H15511   1.084   0.251   8.280 -0.0231  0.8835 -0.4026
  142OSM      N15512   6.478   1.881   5.929 -0.4395 -0.1524  0.0213
  142OSM    C1515513   6.492   1.954   5.799  0.9351  0.7560  0.1957
  142OSM   H15A15514   6.399   1.950   5.745  0.9472 -1.5638  0.2418
  142OSM   H15B15515   6.568   1.908   5.738 -0.6138  2.3316 -3.1471
  142OSM   H15C15516   6.540   2.049   5.818  0.3539  0.8310  1.4104
  142OSM    C1415517   6.444   1.743   5.894  0.4547 -0.3098 -0.3744
  142OSM   H14A15518   6.455   1.686   5.985 -1.3096  0.9007  0.6396
  142OSM   H14B15519   6.508   1.696   5.820 -0.6154 -1.1888 -0.7735
  142OSM   H14C15520   6.344   1.736   5.853  0.1437 -0.5610  0.4220
  142OSM    C1315521   6.609   1.877   6.003 -0.0692 -0.1288 -0.0720
  142OSM   H13A15522   6.612   1.806   6.085  2.6330 -0.6291 -0.5003
  142OSM   H13B15523   6.619   1.967   6.062  2.0738 -0.6483  0.4298
  142OSM   H13C15524   6.699   1.867   5.944 -0.2549 -1.5306 -0.1376
  142OSM    C1215525   6.373   1.944   6.015 -0.5555  0.0346  0.0713
  142OSM   H12A15526   6.278   1.944   5.963 -0.9208  1.6764  0.6644
  142OSM   H12B15527   6.391   2.049   6.031 -2.3872  0.3126  0.6266
  142OSM    C1115528   6.336   1.884   6.151  0.5200  1.1389 -0.7017
  142OSM   H11A15529   6.284   1.786   6.139 -0.5038  1.5765  0.0862
  142OSM   H11B15530   6.258   1.954   6.186 -0.8176 -0.2216 -0.8472
  142OSM      P15531   6.495   1.986   6.321  0.3945  0.3225 -0.3329
  142OSM    O1315532   6.625   1.954   6.388  0.3711  0.0572 -0.5351
  142OSM    O1415533   6.493   2.111   6.240  0.0268 -0.5961  0.7124
  142OSM    O1115534   6.382   2.000   6.436 -0.0397  0.3497  0.3817
  142OSM    O1215535   6.442   1.867   6.242  0.0932 -0.2346 -0.4142
  142OSM    C1S15536   6.349   1.886   6.519 -0.1230 -0.6112  0.1054
  142OSM    H1S15537   6.429   1.811   6.538 -1.5440 -2.2570 -0.2187
  142OSM    H1T15538   6.267   1.832   6.467 -1.2598 -0.4743  1.7005
  142OSM     NF15539   6.313   1.833   6.762  0.2149 -0.0893 -0.7137
  142OSM    HNF15540   6.231   1.801   6.806  1.0118 -0.1591  0.7670
  142OSM    C2S15541   6.302   1.939   6.654  0.4168  0.0730  0.6208
  142OSM    H2S15542   6.379   2.014   6.685  1.6939 -0.8957 -0.1086
  142OSM    C3S15543   6.157   2.005   6.632 -0.5720 -0.3873 -0.1153
  142OSM    H3S15544   6.084   1.922   6.620 -0.9317 -0.0421 -0.3294
  142OSM     O315545   6.143   2.088   6.515  0.0427 -0.1966  0.6760
  142OSM    HO315546   6.230   2.087   6.475 -0.9019  1.0821 -1.6236
  142OSM    C4S15547   6.125   2.073   6.755  0.5527 -0.1754 -0.3947
  142OSM    H4S15548   6.030   2.039   6.798 -0.3764 -0.3840 -2.4526
  142OSM    C5S15549   6.191   2.171   6.818  0.3372 -0.6005  0.4833
  142OSM    H5S15550   6.283   2.213   6.774  0.5793 -1.7257 -0.1249
  142OSM    C6S15551   6.151   2.234   6.952 -0.5808  0.0731  0.2920
  142OSM    H6S15552   6.044   2.234   6.982  0.0455 -0.4227  2.7248
  142OSM    H6T15553   6.181   2.340   6.946  0.0235 -0.0854  0.4854
  142OSM    C7S15554   6.234   2.185   7.065 -0.3729  0.2751  0.3690
  142OSM    H7S15555   6.340   2.175   7.032  0.5160  1.9672  2.4938
  142OSM    H7T15556   6.205   2.080   7.089 -0.5561  0.3374  0.4219
  142OSM    C8S15557   6.235   2.272   7.194  0.5319  0.3249 -0.0939
  142OSM    H8S15558   6.131   2.297   7.227  0.8470 -0.0699  1.2761
  142OSM    H8T15559   6.286   2.366   7.165  1.0614 -0.6459 -2.4711
  142OSM    C9S15560   6.303   2.215   7.324  0.4569 -0.5026  0.5929
  142OSM    H9S15561   6.294   2.298   7.398  1.6426 -2.4631  3.0712
  142OSM    H9T15562   6.406   2.195   7.286 -0.1510  0.2364 -1.5638
  142OSM   C10S15563   6.233   2.091   7.394  0.0296 -0.1613  0.5157
  142OSM   H10S15564   6.253   1.998   7.337 -0.2941  0.2996 -0.3648
  142OSM   H10T15565   6.125   2.113   7.393  0.0776  0.3238 -2.4977
  142OSM   C11S15566   6.282   2.053   7.531 -0.7264 -0.4631  0.0397
  142OSM   H11S15567   6.388   2.020   7.523 -0.9096 -0.6185 -2.6151
  142OSM   H11T15568   6.215   1.972   7.565 -3.2287  0.9061 -1.3701
  142OSM   C12S15569   6.283   2.180   7.612 -0.1106  0.0468  0.5103
  142OSM   H12S15570   6.181   2.225   7.606  0.1011  0.5480  0.6479
  142OSM   H12T15571   6.364   2.248   7.578  0.5698 -0.1812  1.6305
  142OSM   C13S15572   6.316   2.156   7.761  0.0388  0.3880  0.5300
  142OSM   H13S15573   6.295   2.251   7.814 -0.7569  0.0919  0.7618
  142OSM   H13T15574   6.418   2.117   7.782  0.2470 -0.2836 -1.4492
  142OSM   C14S15575   6.215   2.053   7.814  0.2286  0.3633 -0.1057
  142OSM   H14S15576   6.240   1.957   7.763  0.5097  1.8444 -2.9693
  142OSM   H14T15577   6.117   2.080   7.769 -0.1598 -0.9129 -0.0776
  142OSM   C15S15578   6.215   2.039   7.963  0.7058 -0.4442 -0.0179
  142OSM   H15S15579   6.121   1.988   7.991  0.8440 -0.1711  0.9782
  142OSM   H15T15580   6.220   2.142   8.004  0.8512  0.1515 -1.4673
  142OSM   C16S15581   6.340   1.969   8.014  0.1116  0.7706 -0.3145
  142OSM   H16S15582   6.423   2.032   7.974  0.8882  0.1779  0.3237
  142OSM   H16T15583   6.351   1.867   7.970  0.0387 -0.3443  2.1212
  142OSM   C17S15584   6.349   1.941   8.168 -1.0566  0.7134 -0.3332
  142OSM   H17S15585   6.343   2.044   8.209  2.6605  1.0585 -0.2980
  142OSM   H17T15586   6.456   1.918   8.189 -1.2942  0.7545  0.9993
  142OSM   C18S15587   6.259   1.833   8.218 -0.1055  0.1061  1.4009
  142OSM   H18S15588   6.291   1.732   8.185 -0.4160  1.0945 -2.4492
  142OSM   H18T15589   6.160   1.853   8.174  0.7538  2.3444  0.3281
  142OSM   H18U15590   6.241   1.836   8.328  0.0940  2.4237  1.4280
  142OSM    C1F15591   6.433   1.795   6.816  0.3822 -0.0947  0.5921
  142OSM     OF15592   6.537   1.847   6.772  0.1011  0.5263  0.0257
  142OSM    C2F15593   6.432   1.715   6.941 -0.1601 -0.4608  0.8938
  142OSM    H2F15594   6.504   1.630   6.929 -1.0379 -0.9483 -1.3617
  142OSM    H2G15595   6.331   1.670   6.948 -0.2160 -0.5383 -0.3027
  142OSM    C3F15596   6.472   1.802   7.071 -0.0783 -0.1597  0.1855
  142OSM    H3F15597   6.385   1.871   7.082 -0.2845  0.0097 -2.1020
  142OSM    H3G15598   6.566   1.852   7.038 -0.3413  0.3053  0.1307
  142OSM    C4F15599   6.490   1.718   7.192  0.8432 -0.2247 -0.5817
  142OSM    H4F15600   6.509   1.790   7.275  1.7873 -2.1425  0.9459
  142OSM    H4G15601   6.579   1.652   7.185  1.1849  0.2370 -0.6406
  142OSM    C5F15602   6.361   1.635   7.212  0.0341  0.1323  0.2321
  142OSM    H5F15603   6.350   1.549   7.142  0.8248  0.7493 -0.6879
  142OSM    H5G15604   6.267   1.691   7.191 -0.8666 -1.7176 -0.9372
  142OSM    C6F15605   6.349   1.581   7.353  0.3404  0.9077  0.4670
  142OSM    H6F15606   6.445   1.527   7.366 -0.5062 -0.8131  0.0061
  142OSM    H6G15607   6.266   1.508   7.369  0.7664  0.3501  0.1612
  142OSM    C7F15608   6.325   1.689   7.448 -0.2168 -0.6775  0.4956
  142OSM    H7F15609   6.218   1.718   7.449 -0.6256 -2.0196 -0.5595
  142OSM    H7G15610   6.378   1.783   7.421 -0.1509 -0.8951 -0.1598
  142OSM    C8F15611   6.371   1.657   7.595  0.5321 -0.6602 -0.2166
  142OSM    H8F15612   6.327   1.557   7.618  0.9603 -1.3766 -2.2710
  142OSM    H8G15613   6.326   1.726   7.669  0.2674 -0.3608 -0.6577
  142OSM    C9F15614   6.522   1.668   7.599  0.8335  0.5527  0.1175
  142OSM    H9F15615   6.568   1.730   7.521 -0.8020 -1.0239 -2.2094
  142OSM   C10F15616   6.609   1.599   7.680  0.1670 -0.3351 -0.3942
  142OSM   H10F15617   6.716   1.615   7.662 -0.0368  1.2663 -0.3290
  142OSM   C11F15618   6.566   1.501   7.785  0.0698  0.0757 -0.2154
  142OSM   H11F15619   6.561   1.400   7.739 -1.7122  0.4506 -0.9012
  142OSM   H11G15620   6.470   1.529   7.834 -0.1905 -0.0387 -0.6547
  142OSM   C12F15621   6.661   1.518   7.907  0.2337 -0.0088  0.4050
  142OSM   H12F15622   6.767   1.505   7.876 -0.2095  0.0477 -1.2246
  142OSM   H12G15623   6.622   1.454   7.988 -2.7836  0.6715 -0.3926
  142OSM   C13F15624   6.645   1.664   7.970  0.2531  0.0550  0.2157
  142OSM   H13F15625   6.546   1.679   8.017  2.0790 -0.9883  5.0723
  142OSM   H13G15626   6.662   1.739   7.890 -0.3381 -0.8822 -0.8222
  142OSM   C14F15627   6.741   1.693   8.085 -0.2162 -0.1303 -0.3465
  142OSM   H14F15628   6.837   1.662   8.040  0.2847 -1.6352  1.6134
  142OSM   H14G15629   6.716   1.623   8.167 -1.9326  0.0717 -0.6534
  142OSM   C15F15630   6.727   1.835   8.131  0.1547 -0.1259  0.3316
  142OSM   H15F15631   6.629   1.872   8.094  0.8147  0.4472 -0.9089
  142OSM   H15G15632   6.813   1.888   8.084  0.8928  0.0033  1.7497
  142OSM   C16F15633   6.742   1.862   8.285 -0.2601  0.3156  0.1276
  142OSM   H16F15634   6.662   1.799   8.329  0.1288  0.8598  1.6580
  142OSM   H16G15635   6.718   1.970   8.294 -0.6937  0.6854 -3.6566
  142OSM   C17F15636   6.878   1.820   8.340 -0.2488  0.6215 -0.0534
  142OSM   H17F15637   6.947   1.878   8.274 -0.2961  0.7413  0.0027
  142OSM   H17G15638   6.893   1.712   8.320 -1.5972  0.7838 -2.3224
  142OSM   C18F15639   6.888   1.847   8.490  0.0797  0.1452  0.9988
  142OSM   H18F15640   6.869   1.954   8.514 -1.5612 -0.4001  2.2769
  142OSM   H18G15641   6.987   1.805   8.519  0.8397 -0.6928 -2.3731
  142OSM   H18H15642   6.802   1.795   8.538  1.5858 -2.1739  1.3433
  143OSM      N15643   1.918   2.549   6.079  0.2625  0.2657  0.2509
  143OSM    C1515644   1.948   2.668   5.998  0.1482 -0.5384 -0.2463
  143OSM   H15A15645   2.050   2.669   5.961  0.7055 -0.7306  1.2127
  143OSM   H15B15646   1.948   2.756   6.061  1.4365 -0.3039 -0.5262
  143OSM   H15C15647   1.872   2.684   5.922 -0.9316  0.1108  0.9315
  143OSM    C1415648   1.897   2.429   5.989 -0.0940  0.1896 -0.3707
  143OSM   H14A15649   1.844   2.350   6.039  0.8238  0.2374  0.7153
  143OSM   H14B15650   1.998   2.396   5.967  0.1846 -0.4940  1.7909
  143OSM   H14C15651   1.845   2.459   5.899  0.2516  0.8013 -0.3775
  143OSM    C1315652   2.040   2.524   6.166  0.0038 -0.0499 -0.0863
  143OSM   H13A15653   2.120   2.504   6.096 -0.7178 -1.0574 -0.6468
  143OSM   H13B15654   2.011   2.431   6.213  0.3571  0.5841  1.4610
  143OSM   H13C15655   2.074   2.603   6.233  0.2688  0.0843 -0.3775
  143OSM    C1215656   1.793   2.568   6.170 -0.1773 -0.3975  0.3803
  143OSM   H12A15657   1.829   2.636   6.245  1.7078  0.6309 -1.3318
  143OSM   H12B15658   1.781   2.474   6.221 -0.8261  0.8969  2.7266
  143OSM    C1115659   1.661   2.611   6.107  0.1717  0.6218 -0.2638
  143OSM   H11A15660   1.585   2.602   6.188 -0.8886  1.3897 -1.1398
  143OSM   H11B15661   1.632   2.535   6.030  1.8159 -2.9959  2.3735
  143OSM      P15662   1.684   2.879   6.134 -0.0660 -0.1267  0.1261
  143OSM    O1315663   1.806   2.937   6.079 -0.1282 -0.3884  0.3750
  143OSM    O1415664   1.562   2.964   6.127  0.6670  0.2285  0.1579
  143OSM    O1115665   1.707   2.826   6.280  0.0394 -0.4030 -0.9730
  143OSM    O1215666   1.651   2.745   6.051 -0.0689  0.4399  0.1282
  143OSM    C1S15667   1.723   2.935   6.378  0.2054 -0.3088  0.8297
  143OSM    H1S15668   1.618   2.965   6.402  0.0206  0.6253 -1.0285
  143OSM    H1T15669   1.763   3.028   6.334 -0.6624 -0.1602  0.3313
  143OSM     NF15670   1.788   2.996   6.599 -0.4052 -0.6984  0.1065
  143OSM    HNF15671   1.876   3.042   6.609 -0.6435 -0.3932  0.8637
  143OSM    C2S15672   1.807   2.895   6.500  0.7647 -0.7554  0.5814
  143OSM    H2S15673   1.778   2.793   6.534  2.0131 -1.0596  0.7999
  143OSM    C3S15674   1.955   2.880   6.453  0.1400 -0.0586  0.1784
  143OSM    H3S15675   2.003   2.977   6.427 -1.3969  0.7261  0.1895
  143OSM     O315676   1.982   2.806   6.336  0.0520 -0.3453  0.2038
  143OSM    HO315677   1.906   2.823   6.280  2.5560  1.4143 -3.0774
  143OSM    C4S15678   2.036   2.823   6.573 -0.2088 -0.5582  0.4653
  143OSM    H4S15679   2.062   2.899   6.650 -3.1545  2.2803 -1.1082
  143OSM    C5S15680   2.099   2.703   6.592  0.2849 -0.0895  0.6946
  143OSM    H5S15681   2.111   2.634   6.507  1.2967  0.1989  0.5825
  143OSM    C6S15682   2.173   2.666   6.716  0.3140 -0.5128  0.1208
  143OSM    H6S15683   2.277   2.699   6.699  0.3931 -1.2717 -0.9970
  143OSM    H6T15684   2.185   2.555   6.721 -0.4355 -0.6062  0.0839
  143OSM    C7S15685   2.130   2.714   6.857 -0.5445  0.2954  0.5702
  143OSM    H7S15686   2.022   2.705   6.882  0.1387 -1.8376  3.2292
  143OSM    H7T15687   2.155   2.823   6.857 -0.0517  0.2439 -1.7998
  143OSM    C8S15688   2.222   2.661   6.970 -0.2616 -0.7131 -0.2168
  143OSM    H8S15689   2.318   2.702   6.933  0.1640  0.2314  1.8320
  143OSM    H8T15690   2.231   2.550   6.971  1.0930 -0.6194 -0.4234
  143OSM    C9S15691   2.194   2.717   7.104  0.3898  0.3074 -0.5372
  143OSM    H9S15692   2.085   2.706   7.121  0.7394 -1.3439  0.9312
  143OSM    H9T15693   2.207   2.827   7.107  0.5848  0.2672  0.9099
  143OSM   C10S15694   2.282   2.653   7.220 -0.6863  0.8182  0.2253
  143OSM   H10S15695   2.388   2.647   7.186 -0.4421  0.8361  0.9588
  143OSM   H10T15696   2.247   2.548   7.230  3.0481 -0.9525 -2.5071
  143OSM   C11S15697   2.271   2.734   7.346 -0.2455 -0.5327 -0.2926
  143OSM   H11S15698   2.167   2.750   7.380 -0.0190 -1.4276  0.9077
  143OSM   H11T15699   2.321   2.829   7.315 -0.9706  0.2278  0.7732
  143OSM   C12S15700   2.362   2.679   7.456  0.1041  0.0740  0.0412
  143OSM   H12S15701   2.463   2.647   7.422  0.1235  0.5628 -0.3750
  143OSM   H12T15702   2.326   2.578   7.482  2.9690 -1.4982 -1.5648
  143OSM   C13S15703   2.370   2.772   7.579 -0.2402 -0.1900  0.1727
  143OSM   H13S15704   2.298   2.854   7.557 -0.2619  0.1236  1.3205
  143OSM   H13T15705   2.469   2.820   7.564 -0.2743 -0.6799 -1.9918
  143OSM   C14S15706   2.365   2.712   7.716 -0.1969  0.7077 -0.2530
  143OSM   H14S15707   2.281   2.640   7.717  0.0321  0.3799 -2.0817
  143OSM   H14T15708   2.337   2.798   7.781  2.4806  2.2776 -1.0084
  143OSM   C15S15709   2.491   2.637   7.771  0.1045 -0.0519  0.3706
  143OSM   H15S15710   2.585   2.695   7.783 -0.0235 -0.3154  3.2247
  143OSM   H15T15711   2.509   2.547   7.707  0.9022  0.3863 -0.0386
  143OSM   C16S15712   2.467   2.591   7.914  0.4594  0.5027  0.2973
  143OSM   H16S15713   2.385   2.516   7.913  1.6011 -0.7813  0.9094
  143OSM   H16T15714   2.428   2.680   7.968 -1.1454 -1.4742  2.5947
  143OSM   C17S15715   2.586   2.541   7.994  0.1835  0.4965  0.4759
  143OSM   H17S15716   2.675   2.606   7.979 -0.0030  0.5760 -0.3766
  143OSM   H17T15717   2.618   2.447   7.945  1.9192  0.6948  1.1582
  143OSM   C18S15718   2.550   2.514   8.139 -0.7613  0.7539  0.0872
  143OSM   H18S15719   2.546   2.604   8.204 -0.2182  0.4380  0.5602
  143OSM   H18T15720   2.628   2.448   8.181  0.2962  3.0137  1.8881
  143OSM   H18U15721   2.456   2.454   8.144  0.6115 -1.7943 -2.0781
  143OSM    C1F15722   1.680   3.012   6.675 -0.3805 -0.2363 -0.2185
  143OSM     OF15723   1.573   2.962   6.641 -1.0994  0.5601  1.0180
  143OSM    C2F15724   1.688   3.097   6.796  0.0654  0.6982 -0.1733
  143OSM    H2F15725   1.595   3.157   6.788 -0.4109  0.0147  0.1377
  143OSM    H2G15726   1.774   3.166   6.780 -1.9687  3.4447 -0.0858
  143OSM    C3F15727   1.690   3.008   6.932 -1.4462 -0.7199  0.6462
  143OSM    H3F15728   1.599   2.945   6.936 -1.6311 -0.4311  1.1325
  143OSM    H3G15729   1.691   3.078   7.018  1.2384  0.1703 -0.0169
  143OSM    C4F15730   1.811   2.920   6.953  0.2830 -0.3239  0.3398
  143OSM    H4F15731   1.889   2.999   6.951  0.4935 -0.5372 -0.6816
  143OSM    H4G15732   1.828   2.852   6.867 -0.0358 -0.8795  0.7081
  143OSM    C5F15733   1.807   2.845   7.086 -0.2248  0.3687 -0.0665
  143OSM    H5F15734   1.903   2.788   7.091 -0.7500 -0.4449  1.1562
  143OSM    H5G15735   1.730   2.765   7.085 -0.7117  0.8395 -0.6162
  143OSM    C6F15736   1.795   2.931   7.212 -0.1646  0.8945  0.4807
  143OSM    H6F15737   1.815   2.857   7.292  0.8302  2.2403  1.5238
  143OSM    H6G15738   1.692   2.969   7.227 -1.2082 -1.9474  0.9023
  143OSM    C7F15739   1.890   3.054   7.221 -0.0755 -1.3288  0.0671
  143OSM    H7F15740   1.882   3.127   7.138  0.1706 -0.8465  0.4694
  143OSM    H7G15741   1.998   3.026   7.220  0.3825  0.3835 -0.1262
  143OSM    C8F15742   1.866   3.133   7.353 -0.9307  0.4726  0.5141
  143OSM    H8F15743   1.761   3.166   7.342 -1.0303 -0.4097 -1.9649
  143OSM    H8G15744   1.940   3.214   7.341 -1.2623  0.4598 -2.2085
  143OSM    C9F15745   1.898   3.050   7.467  0.0423 -0.7589  0.0191
  143OSM    H9F15746   1.822   2.972   7.486 -1.6551  0.8357  0.0596
  143OSM   C10F15747   2.005   3.053   7.548 -0.2181 -0.2301  0.6426
  143OSM   H10F15748   2.004   2.973   7.623  1.5936  0.9148  1.9748
  143OSM   C11F15749   2.129   3.146   7.543  0.2287 -0.2311  0.5475
  143OSM   H11F15750   2.124   3.214   7.455 -0.5965 -0.2890  0.5488
  143OSM   H11G15751   2.227   3.092   7.538 -0.0836 -0.8026  0.5018
  143OSM   C12F15752   2.132   3.242   7.664  0.0972  0.3377 -0.5429
  143OSM   H12F15753   2.035   3.297   7.674  0.9187  1.7281  0.1290
  143OSM   H12G15754   2.211   3.317   7.641  0.9628 -0.8883 -1.6564
  143OSM   C13F15755   2.163   3.176   7.804  0.7354  0.8063  0.0805
  143OSM   H13F15756   2.267   3.136   7.809  0.6804  0.2982 -2.0908
  143OSM   H13G15757   2.090   3.094   7.822  0.7732  0.7811  0.1207
  143OSM   C14F15758   2.149   3.279   7.916  0.6119  0.3572 -0.7954
  143OSM   H14F15759   2.046   3.321   7.910  0.7675  1.5253  2.7192
  143OSM   H14G15760   2.226   3.358   7.899  2.7819 -1.9784 -2.5303
  143OSM   C15F15761   2.162   3.211   8.059  0.0294  0.2164  0.1192
  143OSM   H15F15762   2.271   3.187   8.068 -0.5859 -3.0358 -0.0263
  143OSM   H15G15763   2.100   3.121   8.075  0.6717  0.1225  2.4667
  143OSM   C16F15764   2.134   3.313   8.171 -0.5881  0.3194 -0.6564
  143OSM   H16F15765   2.033   3.358   8.158 -1.8638 -1.7671  1.3436
  143OSM   H16G15766   2.209   3.395   8.174 -1.7872  1.4334  0.0338
  143OSM   C17F15767   2.129   3.259   8.315  1.1056  0.2980 -0.0765
  143OSM   H17F15768   2.132   3.339   8.391  0.6513  1.4656 -1.2639
  143OSM   H17G15769   2.222   3.198   8.325  0.8847  0.2386  1.9322
  143OSM   C18F15770   2.004   3.170   8.344 -0.2164  0.3670 -0.3642
  143OSM   H18F15771   1.915   3.236   8.349 -1.0246 -0.7412  0.4324
  143OSM   H18G15772   2.023   3.117   8.441  1.8237 -0.1036 -0.9633
  143OSM   H18H15773   1.987   3.092   8.267 -1.6907 -0.7124  0.9663
  144OSM      N15774   2.515   2.208   6.154 -0.1601  0.0717 -0.6841
  144OSM    C1515775   2.461   2.332   6.092  0.2603 -0.4458  0.0594
  144OSM   H15A15776   2.468   2.407   6.170 -0.0948 -0.5054  0.1504
  144OSM   H15B15777   2.357   2.325   6.064  0.3978 -0.9435 -0.3440
  144OSM   H15C15778   2.524   2.349   6.006  0.7676 -1.0974  0.2973
  144OSM    C1415779   2.417   2.154   6.242  0.6906 -0.3105  0.1436
  144OSM   H14A15780   2.392   2.229   6.316  2.3262  1.7249 -1.2342
  144OSM   H14B15781   2.452   2.066   6.294  3.5993  0.2685 -0.6137
  144OSM   H14C15782   2.326   2.130   6.190 -0.0602 -1.4271  1.8907
  144OSM    C1315783   2.534   2.098   6.043  0.1300 -0.7032  0.2921
  144OSM   H13A15784   2.603   2.124   5.963 -0.7284  1.1029  0.0771
  144OSM   H13B15785   2.446   2.082   5.984  0.7960 -0.6558 -0.7433
  144OSM   H13C15786   2.569   2.002   6.078  0.5612 -0.8464 -0.5020
  144OSM    C1215787   2.647   2.220   6.230  0.0114 -0.3296  0.2629
  144OSM   H12A15788   2.720   2.256   6.159 -0.9193  0.0121 -0.5495
  144OSM   H12B15789   2.677   2.124   6.269  0.5994  0.9684  3.2416
  144OSM    C1115790   2.638   2.322   6.343 -0.6881 -0.3646 -0.8275
  144OSM   H11A15791   2.735   2.301   6.393 -0.3534 -1.5642 -1.9074
  144OSM   H11B15792   2.552   2.293   6.408 -2.3574 -1.1044 -3.2291
  144OSM      P15793   2.748   2.522   6.219  0.6192  0.1199  0.0206
  144OSM    O1315794   2.851   2.423   6.175  0.1930  0.0662 -0.9648
  144OSM    O1415795   2.697   2.608   6.109  0.9599  0.5922 -1.0446
  144OSM    O1115796   2.805   2.627   6.321 -0.1478  0.6315  0.4238
  144OSM    O1215797   2.623   2.456   6.291 -0.5465 -0.1455 -0.4770
  144OSM    C1S15798   2.794   2.619   6.463 -0.8550  0.1467  1.1401
  144OSM    H1S15799   2.700   2.571   6.498 -1.0315 -1.8021 -1.6676
  144OSM    H1T15800   2.772   2.724   6.490  0.6398  1.1633 -1.2847
  144OSM     NF15801   2.900   2.556   6.687 -0.0212  0.4491 -0.2138
  144OSM    HNF15802   2.950   2.613   6.751 -2.6404  0.1523  2.3152
  144OSM    C2S15803   2.921   2.570   6.536 -1.1067 -0.2928  0.0103
  144OSM    H2S15804   2.965   2.471   6.511  1.6366  0.1806  2.3954
  144OSM    C3S15805   3.039   2.665   6.505 -0.8034 -0.4041  0.3624
  144OSM    H3S15806   3.026   2.768   6.546 -3.0925 -0.4108 -0.1714
  144OSM     O315807   3.087   2.680   6.373  0.3107  0.1412 -0.4172
  144OSM    HO315808   3.013   2.634   6.333 -0.7186  1.0801  0.3300
  144OSM    C4S15809   3.155   2.611   6.585 -0.4062 -0.5865 -0.8155
  144OSM    H4S15810   3.182   2.514   6.541 -1.8540 -0.3799 -2.2332
  144OSM    C5S15811   3.219   2.682   6.682 -0.3102 -0.2934 -0.1003
  144OSM    H5S15812   3.187   2.783   6.711 -1.6915  0.0923 -2.6488
  144OSM    C6S15813   3.331   2.633   6.766 -0.1783 -0.2455 -0.3718
  144OSM    H6S15814   3.415   2.703   6.750 -0.1334 -0.2434 -0.1350
  144OSM    H6T15815   3.365   2.535   6.728 -0.5378 -0.8357  0.7697
  144OSM    C7S15816   3.300   2.631   6.924  0.2596  0.6297  0.4376
  144OSM    H7S15817   3.240   2.717   6.960 -0.9611 -0.5846  1.4100
  144OSM    H7T15818   3.394   2.622   6.981  0.8005  0.1305 -0.5103
  144OSM    C8S15819   3.225   2.500   6.952  0.0960  0.4174 -0.7149
  144OSM    H8S15820   3.282   2.408   6.924 -0.1264  0.5616 -1.6500
  144OSM    H8T15821   3.124   2.504   6.906  0.0776 -1.4726 -0.9534
  144OSM    C9S15822   3.174   2.479   7.095 -0.4135 -0.2153  0.1746
  144OSM    H9S15823   3.127   2.379   7.089 -1.6434  0.3170  0.6490
  144OSM    H9T15824   3.093   2.546   7.131 -0.7897  0.5007 -1.8324
  144OSM   C10S15825   3.292   2.472   7.193  0.0922  0.4890  0.1478
  144OSM   H10S15826   3.348   2.568   7.191  1.6847 -0.4071 -2.0340
  144OSM   H10T15827   3.367   2.404   7.148  0.5070  1.1690 -0.2126
  144OSM   C11S15828   3.253   2.451   7.339 -0.0737  0.5777  1.2541
  144OSM   H11S15829   3.228   2.343   7.344  1.1067  0.1421 -1.1348
  144OSM   H11T15830   3.157   2.507   7.343 -0.3845  0.2178 -0.3848
  144OSM   C12S15831   3.363   2.483   7.447  0.4603 -0.4096  1.3698
  144OSM   H12S15832   3.364   2.594   7.450  1.9970 -0.3528 -0.0637
  144OSM   H12T15833   3.466   2.466   7.412  1.2157  0.7273  2.9202
  144OSM   C13S15834   3.335   2.407   7.580 -0.7135 -0.0162  0.0780
  144OSM   H13S15835   3.344   2.301   7.549  2.1943  0.3436 -0.5793
  144OSM   H13T15836   3.231   2.435   7.609 -1.1257 -0.7055 -0.6995
  144OSM   C14S15837   3.438   2.464   7.681  0.6031  0.9952 -0.1701
  144OSM   H14S15838   3.505   2.541   7.637 -0.8950  2.8831  0.7352
  144OSM   H14T15839   3.485   2.369   7.716 -0.5506  1.1924  2.0971
  144OSM   C15S15840   3.371   2.517   7.804  0.8155 -0.0094 -0.6628
  144OSM   H15S15841   3.280   2.459   7.832  2.1979 -1.0760  1.9954
  144OSM   H15T15842   3.342   2.623   7.788  3.4499  0.7670 -0.7426
  144OSM   C16S15843   3.461   2.516   7.936  0.6292  0.0170 -0.3853
  144OSM   H16S15844   3.418   2.596   8.001  1.8251  1.4967 -1.3501
  144OSM   H16T15845   3.564   2.556   7.920  0.9592 -0.1951  1.0387
  144OSM   C17S15846   3.466   2.386   8.018 -0.4844  0.0376 -0.0104
  144OSM   H17S15847   3.364   2.346   8.035 -0.7654  0.4422 -0.7055
  144OSM   H17T15848   3.513   2.419   8.113 -0.2609 -0.0845 -0.0798
  144OSM   C18S15849   3.546   2.272   7.961 -0.0574 -0.2996 -0.4048
  144OSM   H18S15850   3.641   2.310   7.917 -0.1076 -0.6069 -0.7763
  144OSM   H18T15851   3.492   2.209   7.887  0.2706 -0.8333 -0.1949
  144OSM   H18U15852   3.572   2.210   8.049 -2.2982 -1.9695 -0.8492
  144OSM    C1F15853   2.808   2.466   6.737  0.3858  0.1399  0.2107
  144OSM     OF15854   2.768   2.373   6.666 -0.4862 -0.3433 -0.3700
  144OSM    C2F15855   2.763   2.485   6.882 -0.2970  0.3967 -0.8483
  144OSM    H2F15856   2.721   2.587   6.894  0.4838  0.7036 -0.6460
  144OSM    H2G15857   2.859   2.483   6.939 -0.5336 -0.4539 -0.4700
  144OSM    C3F15858   2.670   2.374   6.929 -0.1446 -0.1804  0.1464
  144OSM    H3F15859   2.706   2.279   6.885  4.0650 -0.2882  3.2417
  144OSM    H3G15860   2.567   2.394   6.892  0.3447  0.9751 -0.6307
  144OSM    C4F15861   2.675   2.354   7.080  0.1386 -0.3047  0.5886
  144OSM    H4F15862   2.629   2.439   7.135  0.8697 -0.7576  1.9514
  144OSM    H4G15863   2.783   2.366   7.101  0.6187 -0.7526 -1.4174
  144OSM    C5F15864   2.615   2.223   7.127  0.1684  0.4210  0.7000
  144OSM    H5F15865   2.655   2.135   7.072  0.6381  2.7187 -2.9395
  144OSM    H5G15866   2.508   2.212   7.096  0.4132 -2.5934  0.5825
  144OSM    C6F15867   2.637   2.206   7.273 -0.3330  0.0471  0.2422
  144OSM    H6F15868   2.743   2.182   7.292 -0.1605 -0.2001 -0.9759
  144OSM    H6G15869   2.572   2.119   7.297  1.0184 -1.5701 -1.7401
  144OSM    C7F15870   2.588   2.325   7.354  0.5682 -0.1721  0.1428
  144OSM    H7F15871   2.494   2.372   7.318  0.8803 -0.1476 -0.6671
  144OSM    H7G15872   2.663   2.406   7.343 -0.6062  1.1907  1.5994
  144OSM    C8F15873   2.566   2.285   7.496  0.9413 -0.4068  0.9776
  144OSM    H8F15874   2.483   2.211   7.502 -0.0711  0.6718  0.7219
  144OSM    H8G15875   2.519   2.371   7.549  1.8228  1.7838 -1.6013
  144OSM    C9F15876   2.691   2.235   7.575  0.3677  0.5728 -0.0279
  144OSM    H9F15877   2.787   2.260   7.527  0.9474 -0.4436  0.5573
  144OSM   C10F15878   2.689   2.151   7.683 -0.9507  0.3058  0.8998
  144OSM   H10F15879   2.785   2.122   7.728 -0.6713 -1.6855 -0.8290
  144OSM   C11F15880   2.569   2.094   7.757  0.0840  0.7816 -0.2580
  144OSM   H11F15881   2.543   1.988   7.738 -0.0922  0.6327  0.7728
  144OSM   H11G15882   2.472   2.143   7.730 -1.0107 -0.8439  0.6043
  144OSM   C12F15883   2.574   2.120   7.908 -0.0558  0.3528 -0.2923
  144OSM   H12F15884   2.474   2.094   7.946  0.1176  0.0413 -0.0462
  144OSM   H12G15885   2.587   2.229   7.929  2.5999  0.1093 -0.2279
  144OSM   C13F15886   2.676   2.039   7.992 -0.2446 -0.0197  0.1021
  144OSM   H13F15887   2.766   2.022   7.930 -1.8320  0.6543 -2.5661
  144OSM   H13G15888   2.632   1.938   8.010  0.4873 -0.4599 -0.5132
  144OSM   C14F15889   2.728   2.111   8.119 -0.1594  0.0852  0.6383
  144OSM   H14F15890   2.728   2.221   8.103  0.8270  0.2394  1.6153
  144OSM   H14G15891   2.828   2.070   8.144 -1.0495 -3.6482 -1.1962
  144OSM   C15F15892   2.630   2.085   8.235 -0.0261  0.2825 -0.4140
  144OSM   H15F15893   2.642   1.979   8.266 -0.5837  0.7811  1.6728
  144OSM   H15G15894   2.524   2.106   8.209 -0.3684 -0.5629  0.2155
  144OSM   C16F15895   2.654   2.160   8.362  0.1993 -0.3163  0.2720
  144OSM   H16F15896   2.656   2.270   8.348  0.8946 -0.3362  0.1736
  144OSM   H16G15897   2.755   2.144   8.405  0.1344  1.2000  1.0783
  144OSM   C17F15898   2.550   2.157   8.478 -0.7308  0.5186  0.2217
  144OSM   H17F15899   2.591   2.224   8.557  0.5996  0.1253 -0.1122
  144OSM   H17G15900   2.542   2.053   8.519 -0.1715  0.0748 -0.7677
  144OSM   C18F15901   2.411   2.203   8.438  0.0450  0.8925  0.0439
  144OSM   H18F15902   2.351   2.206   8.531  2.1671 -1.0394  1.6068
  144OSM   H18G15903   2.361   2.139   8.362 -0.5000 -0.2682  1.3370
  144OSM   H18H15904   2.424   2.302   8.390  1.4091  0.7444  0.0630
  145SAPE     N15905   3.348   5.542  10.920 -0.1638 -0.1911  0.0626
  145SAPE   HN115906   3.330   5.629  10.866 -0.2451  1.4433  2.5602
  145SAPE   HN215907   3.305   5.561  11.012 -0.7891  1.0220 -0.4568
  145SAPE   HN315908   3.449   5.520  10.926 -0.5713 -2.6653 -0.7458
  145SAPE   C1215909   3.261   5.440  10.857 -0.6798 -0.0084 -0.0115
  145SAPE  H12A15910   3.152   5.459  10.869 -0.5561  0.7969 -0.1106
  145SAPE  H12B15911   3.276   5.346  10.915 -3.0033 -0.1865  0.3818
  145SAPE   C1115912   3.310   5.410  10.715  0.3000 -0.6284 -0.4738
  145SAPE  H11A15913   3.277   5.487  10.642  1.1809  0.0528 -0.1611
  145SAPE  H11B15914   3.258   5.314  10.693 -0.7299  0.1067 -1.3564
  145SAPE     P15915   3.527   5.261  10.739 -0.0424 -0.6303 -0.4122
  145SAPE   O1315916   3.671   5.282  10.746 -0.0924 -0.1622  0.7427
  145SAPE   O1415917   3.466   5.197  10.859  0.0477 -0.1950  0.1216
  145SAPE   O1215918   3.451   5.401  10.711 -0.6527 -0.0463 -0.0433
  145SAPE   O1115919   3.486   5.180  10.613 -0.1006  0.4508  0.3198
  145SAPE    C115920   3.535   5.223  10.488  0.1496 -0.0302  0.3991
  145SAPE    HA15921   3.512   5.331  10.478  0.0693 -0.0643  0.2069
  145SAPE    HB15922   3.645   5.216  10.484  0.2495 -1.1013  3.2139
  145SAPE    C215923   3.487   5.143  10.365 -0.2287 -0.0603  0.0446
  145SAPE    HS15924   3.516   5.203  10.276 -0.1673 -0.1804 -0.0167
  145SAPE   O2115925   3.347   5.118  10.371 -0.5636  0.2167 -0.8151
  145SAPE   C2115926   3.269   5.225  10.362 -0.0926  0.3444  0.3415
  145SAPE   O2215927   3.301   5.340  10.362  0.4994  0.5716 -0.1639
  145SAPE   C2215928   3.123   5.173  10.350 -0.8656  0.6582 -0.1428
  145SAPE   H2R15929   3.114   5.112  10.442  2.9244  3.0011  2.0286
  145SAPE   H2S15930   3.056   5.261  10.346 -2.6678 -0.5293  1.7151
  145SAPE    C315931   3.551   4.998  10.365  0.2740  0.5200 -0.0842
  145SAPE    HX15932   3.499   4.942  10.445  2.4370  0.0859  1.1077
  145SAPE    HY15933   3.655   5.009  10.404 -0.2471  1.6278  1.0773
  145SAPE   O3115934   3.555   4.941  10.237  0.0483  0.0560  0.5927
  145SAPE   C3115935   3.446   4.884  10.197  0.1938 -0.0955 -0.2437
  145SAPE   O3215936   3.358   4.838  10.269  0.1131 -0.1278  0.3144
  145SAPE   C3215937   3.455   4.856  10.049  0.6929 -0.5808 -0.3281
  145SAPE   H2X15938   3.354   4.825  10.015 -0.4230  1.6330  0.7034
  145SAPE   H2Y15939   3.526   4.775  10.025  0.4197 -0.1578 -2.9506
  145SAPE   C2315940   3.093   5.083  10.228 -0.1921 -0.3343 -0.9288
  145SAPE   H3R15941   3.006   5.019  10.254 -1.0173  1.2637  0.4083
  145SAPE   H3S15942   3.173   5.008  10.210 -1.0340 -1.3677 -0.4705
  145SAPE   C2415943   3.052   5.155  10.094 -0.1771  0.3991  0.1136
  145SAPE   H4R15944   2.952   5.201  10.109 -1.3254 -2.3515  1.7091
  145SAPE   H4S15945   3.040   5.073  10.020  0.3109  2.6925 -2.6319
  145SAPE   C2515946   3.161   5.242  10.038  0.4408  0.3997 -0.0826
  145SAPE   H5R15947   3.264   5.232  10.077  0.6380 -0.4715 -0.8057
  145SAPE   C2615948   3.140   5.318   9.928 -0.0175 -0.2183  0.7105
  145SAPE   H6R15949   3.221   5.386   9.898 -0.2439  0.1453  0.9247
  145SAPE   C2715950   3.013   5.328   9.852  0.3737  0.3146  0.3960
  145SAPE   H7R15951   2.999   5.432   9.815 -1.6449 -0.8625 -2.5636
  145SAPE   H7S15952   2.928   5.294   9.915  0.4318 -2.5973 -0.9363
  145SAPE   C2815953   3.009   5.245   9.724 -0.9527  0.1213  0.0707
  145SAPE   H8R15954   3.048   5.144   9.743 -0.9032  0.5354  2.5242
  145SAPE   C2915955   2.955   5.274   9.598 -0.2835  0.5274  0.5151
  145SAPE   H9R15956   2.963   5.204   9.513  0.0221  2.4876 -1.1345
  145SAPE  C21015957   2.880   5.402   9.562  0.8678  0.0675  0.2372
  145SAPE  H10R15958   2.853   5.471   9.645 -0.3524  0.0329 -0.1143
  145SAPE  H10S15959   2.782   5.361   9.530  0.4231  0.2925  1.2876
  145SAPE  C21115960   2.953   5.489   9.459  0.7647  0.8177  0.3026
  145SAPE  H11R15961   3.043   5.542   9.492 -0.1491  0.9655  2.7881
  145SAPE  C21215962   2.927   5.511   9.327  0.7957  0.1769  0.2473
  145SAPE  H12R15963   2.998   5.567   9.265  0.6686 -0.5719 -0.5985
  145SAPE  C21315964   2.812   5.462   9.238  0.1693  0.5798 -0.4285
  145SAPE  H13R15965   2.831   5.505   9.138  2.2530 -2.7949 -1.6493
  145SAPE  H13S15966   2.713   5.500   9.272 -0.8033 -1.1250 -1.1897
  145SAPE  C21415967   2.808   5.315   9.220 -0.6283 -1.0571  0.4877
  145SAPE  H14R15968   2.745   5.260   9.291 -0.9341 -1.9790 -0.4708
  145SAPE  C21515969   2.892   5.259   9.135 -0.2249 -0.8098  0.1086
  145SAPE  H15R15970   2.897   5.149   9.138  2.3365 -0.7354  0.8039
  145SAPE  C21615971   2.994   5.329   9.048  0.3566  0.9259  0.0009
  145SAPE  H16R15972   3.006   5.438   9.068  2.1467  0.8475 -0.4886
  145SAPE  H16S15973   2.961   5.330   8.942  0.4108 -2.7678 -0.1462
  145SAPE  C21715974   3.125   5.259   9.075  0.7390 -0.4852  0.0690
  145SAPE  H17R15975   3.199   5.319   9.018 -1.8494  2.1225 -0.7618
  145SAPE  H17S15976   3.129   5.151   9.051 -1.2567 -0.8144  1.0462
  145SAPE  C21815977   3.177   5.278   9.219 -0.1626 -0.6046 -0.2776
  145SAPE  H18R15978   3.105   5.229   9.288 -0.6989  2.8248  1.8143
  145SAPE  H18S15979   3.176   5.387   9.239 -2.5695 -0.2618 -1.8564
  145SAPE  C21915980   3.316   5.215   9.244  0.5293 -0.4296  0.3560
  145SAPE  H19R15981   3.294   5.106   9.244 -1.1378 -0.1284 -0.7064
  145SAPE  H19S15982   3.343   5.239   9.349  0.2636 -0.5827  0.4593
  145SAPE  C22015983   3.427   5.244   9.140  0.6110 -0.0293 -0.5774
  145SAPE  H20R15984   3.401   5.196   9.044  0.4422 -0.5799 -0.2627
  145SAPE  H20S15985   3.524   5.209   9.182 -0.3235 -0.2625  1.5468
  145SAPE  H20T15986   3.431   5.355   9.131 -0.3966  0.1051  0.3077
  145SAPE   C3315987   3.498   4.988   9.968  0.8484 -0.9643 -0.6663
  145SAPE   H3X15988   3.599   5.018  10.002 -0.0808  0.9075  0.5789
  145SAPE   H3Y15989   3.437   5.078   9.988  0.5289 -1.4812  0.8471
  145SAPE   C3415990   3.479   4.963   9.818  0.6101 -0.0509 -1.0352
  145SAPE   H4X15991   3.533   4.869   9.792  1.8480 -0.6602  2.9927
  145SAPE   H4Y15992   3.519   5.054   9.768 -1.4541  1.4700 -0.0289
  145SAPE   C3515993   3.338   4.949   9.773 -0.5341  0.6352  0.2070
  145SAPE   H5X15994   3.273   5.022   9.825 -1.0161  0.2192  0.2024
  145SAPE   H5Y15995   3.296   4.848   9.795 -0.7338  0.7138  0.1925
  145SAPE   C3615996   3.320   4.956   9.616  0.1450 -0.5349 -0.4186
  145SAPE   H6X15997   3.417   4.913   9.583 -0.9101 -1.8908 -1.8924
  145SAPE   H6Y15998   3.304   5.056   9.572 -0.8404 -1.7693 -3.0486
  145SAPE   C3715999   3.207   4.856   9.565  0.4017  0.2173  0.0935
  145SAPE   H7X16000   3.108   4.872   9.613  0.5688  0.8014  0.2505
  145SAPE   H7Y16001   3.228   4.754   9.604 -3.1633 -0.4333  0.7104
  145SAPE   C3816002   3.200   4.867   9.421 -0.7018 -0.7717  0.1198
  145SAPE   H8X16003   3.296   4.855   9.367 -1.0475 -1.9311 -0.2470
  145SAPE   H8Y16004   3.161   4.965   9.385  0.7893 -1.0755 -2.5094
  145SAPE   C3916005   3.122   4.759   9.348 -0.2738 -0.1323 -0.1323
  145SAPE   H9X16006   3.026   4.741   9.401 -0.0283 -2.3813 -0.3561
  145SAPE   H9Y16007   3.172   4.661   9.365  1.6824  0.9650  0.7996
  145SAPE  C31016008   3.119   4.788   9.194 -0.1670  0.5544 -0.4452
  145SAPE  H10X16009   3.099   4.691   9.144 -0.2253 -0.5156  1.5564
  145SAPE  H10Y16010   3.225   4.812   9.168  0.1416 -1.1423 -0.9115
  145SAPE  C31116011   3.018   4.893   9.159  0.7317 -0.8357  0.6255
  145SAPE  H11X16012   3.053   4.997   9.179  0.0100  0.1220 -2.5764
  145SAPE  H11Y16013   2.925   4.873   9.217  0.7731 -2.4917  0.1736
  145SAPE  C31216014   2.983   4.876   9.005 -0.2161  0.8994 -0.5600
  145SAPE  H12X16015   2.935   4.776   9.013 -2.1504  1.7449 -0.9670
  145SAPE  H12Y16016   3.075   4.862   8.944  0.9045  0.0715  1.2291
  145SAPE  C31316017   2.889   4.982   8.951 -0.1952  0.1607 -0.3031
  145SAPE  H13X16018   2.946   5.076   8.940  1.0609 -0.6187 -0.5931
  145SAPE  H13Y16019   2.794   4.996   9.008 -1.4722  0.5895 -2.4084
  145SAPE  C31416020   2.829   4.935   8.817 -1.0457 -0.0642 -0.2311
  145SAPE  H14X16021   2.776   4.837   8.815  0.5535 -0.9543 -1.2844
  145SAPE  H14Y16022   2.908   4.925   8.740 -0.4842  0.2501  0.2910
  145SAPE  C31516023   2.731   5.042   8.764 -0.2100  0.3789 -0.1157
  145SAPE  H15X16024   2.634   5.018   8.813 -1.4620 -1.1526 -3.1314
  145SAPE  H15Y16025   2.712   5.039   8.655 -2.2287 -0.2174  0.2172
  145SAPE  C31616026   2.753   5.191   8.802 -0.0417 -0.3444  0.0514
  145SAPE  H16X16027   2.851   5.223   8.760 -0.2433  1.3155  0.7474
  145SAPE  H16Y16028   2.760   5.216   8.910  1.4325 -0.2065 -0.0602
  145SAPE  C31716029   2.641   5.274   8.743 -0.1090  0.2843  0.1677
  145SAPE  H17X16030   2.543   5.226   8.764  0.3021 -1.8975 -2.4059
  145SAPE  H17Y16031   2.667   5.280   8.636 -1.1293  1.2072 -0.0382
  145SAPE  C31816032   2.636   5.418   8.801 -0.7796  0.6459 -1.0147
  145SAPE  H18X16033   2.574   5.489   8.743 -1.9916 -0.2154 -0.8267
  145SAPE  H18Y16034   2.738   5.456   8.823 -0.4004 -0.7297 -0.2613
  145SAPE  H18Z16035   2.586   5.421   8.901  1.9423  1.6352  0.4317
  146SAPE     N16036   2.862   5.938  11.003  0.0888 -0.2203  0.2762
  146SAPE   HN116037   2.801   6.022  11.015  1.7135  1.4194 -2.0454
  146SAPE   HN216038   2.805   5.853  10.983  1.2173 -0.5988 -1.5285
  146SAPE   HN316039   2.909   5.918  11.093 -1.7146 -0.6762  1.1739
  146SAPE   C1216040   2.958   5.958  10.887  0.8547  0.4140  0.0859
  146SAPE  H12A16041   3.018   6.050  10.904 -0.0448  1.3269 -1.4593
  146SAPE  H12B16042   2.898   5.981  10.797  0.5025 -0.6815  0.0187
  146SAPE   C1116043   3.021   5.821  10.856 -0.5488  0.4087  0.3568
  146SAPE  H11A16044   2.951   5.735  10.854  0.5574 -0.5536  1.3196
  146SAPE  H11B16045   3.088   5.792  10.940  1.1557 -0.5621 -1.2928
  146SAPE     P16046   3.242   5.880  10.722 -0.0820 -0.4241  0.1380
  146SAPE   O1316047   3.254   6.010  10.792 -0.2791  0.0382 -0.5342
  146SAPE   O1416048   3.325   5.764  10.758 -0.3916 -0.2635 -0.4512
  146SAPE   O1216049   3.092   5.837  10.730 -0.0728  0.8271  0.0771
  146SAPE   O1116050   3.263   5.913  10.571  0.3755  0.0360 -0.4181
  146SAPE    C116051   3.237   5.810  10.473 -0.0963  0.3096  0.5187
  146SAPE    HA16052   3.152   5.743  10.497  0.8786  0.1813  4.2456
  146SAPE    HB16053   3.213   5.863  10.378 -0.9222  0.3883  0.7689
  146SAPE    C216054   3.367   5.727  10.437  0.1609 -0.2948 -0.2108
  146SAPE    HS16055   3.378   5.652  10.519 -2.2320  0.6353  1.0354
  146SAPE   O2116056   3.477   5.824  10.438  0.1122  0.0312  0.4212
  146SAPE   C2116057   3.588   5.776  10.492 -0.3426  0.2405  0.5370
  146SAPE   O2216058   3.610   5.658  10.516  0.0019 -0.5091 -0.5722
  146SAPE   C2216059   3.688   5.886  10.525  0.5893  0.1615  0.1608
  146SAPE   H2R16060   3.622   5.976  10.530 -2.4898 -1.8948 -0.5378
  146SAPE   H2S16061   3.724   5.863  10.627 -1.0530  0.0297  0.7366
  146SAPE    C316062   3.354   5.658  10.300  0.2363 -0.1208 -0.0246
  146SAPE    HX16063   3.274   5.581  10.308  0.3087 -0.0618  1.4098
  146SAPE    HY16064   3.453   5.610  10.285  0.2288  0.2865 -1.5426
  146SAPE   O3116065   3.327   5.759  10.192 -0.2480  0.4720 -0.0970
  146SAPE   C3116066   3.333   5.691  10.077 -0.7203 -0.7228  0.3831
  146SAPE   O3216067   3.350   5.573  10.077  0.0062 -0.1168  0.0771
  146SAPE   C3216068   3.311   5.782   9.954 -0.1316 -0.4146 -0.4769
  146SAPE   H2X16069   3.402   5.846   9.951  0.3533 -1.0390  0.4113
  146SAPE   H2Y16070   3.226   5.842   9.994 -1.1848 -1.5000 -1.0450
  146SAPE   C2316071   3.805   5.889  10.424  1.0062 -0.2080 -0.0708
  146SAPE   H3R16072   3.844   5.787  10.403 -0.6497 -1.1519  1.2267
  146SAPE   H3S16073   3.883   5.950  10.473 -0.4980  0.1546  1.9782
  146SAPE   C2416074   3.779   5.958  10.291 -0.0282  0.6225 -0.2943
  146SAPE   H4R16075   3.878   5.976  10.244 -0.8941 -0.3588 -2.6140
  146SAPE   H4S16076   3.750   6.064  10.303 -0.2618  0.6101 -0.7264
  146SAPE   C2516077   3.682   5.877  10.204  0.1250 -0.1486  0.2574
  146SAPE   H5R16078   3.578   5.885  10.237  0.0636 -2.0287  0.6431
  146SAPE   C2616079   3.712   5.813  10.091  0.0596  0.9179 -0.8687
  146SAPE   H6R16080   3.634   5.758  10.036  0.0364  0.5860 -0.5101
  146SAPE   C2716081   3.848   5.793  10.023  0.7288  0.0963 -0.1609
  146SAPE   H7R16082   3.909   5.725  10.086 -0.8373 -2.0020 -0.8227
  146SAPE   H7S16083   3.910   5.885  10.011  1.8010 -0.5498  0.3091
  146SAPE   C2816084   3.837   5.717   9.898  0.4481  0.3569  0.0712
  146SAPE   H8R16085   3.781   5.624   9.912  2.5267 -1.1161 -0.9196
  146SAPE   C2916086   3.882   5.752   9.776  0.1449 -0.1898 -0.1565
  146SAPE   H9R16087   3.856   5.691   9.688  1.3732  1.1837 -1.5485
  146SAPE  C21016088   3.953   5.882   9.738  0.3848  0.2653 -0.2084
  146SAPE  H10R16089   4.059   5.867   9.708  0.4143 -0.7625  0.3769
  146SAPE  H10S16090   3.953   5.949   9.827 -2.4820  1.1891 -0.8075
  146SAPE  C21116091   3.881   5.955   9.628  0.6074  0.4660  0.6193
  146SAPE  H11R16092   3.818   6.039   9.661 -0.0391 -0.9144  3.1008
  146SAPE  C21216093   3.893   5.932   9.494  0.2654  0.4444 -0.4986
  146SAPE  H12R16094   3.849   5.993   9.414  3.1405 -0.7214 -3.2225
  146SAPE  C21316095   3.981   5.828   9.429  0.6695 -0.8003 -0.4678
  146SAPE  H13R16096   3.931   5.798   9.335 -1.0115  0.4414 -0.0289
  146SAPE  H13S16097   3.996   5.744   9.501 -0.7157 -0.8195 -0.1605
  146SAPE  C21416098   4.114   5.883   9.390  0.2790 -0.2870 -0.0978
  146SAPE  H14R16099   4.154   5.964   9.453  4.1439 -2.0191 -0.0285
  146SAPE  C21516100   4.188   5.848   9.282 -0.0456 -0.2125  0.4708
  146SAPE  H15R16101   4.279   5.905   9.258 -0.6592  1.1398  1.2103
  146SAPE  C21616102   4.143   5.737   9.191 -0.2142 -0.2734 -0.0145
  146SAPE  H16R16103   4.088   5.785   9.108  0.2364 -0.1131 -0.2239
  146SAPE  H16S16104   4.071   5.672   9.245  0.3262 -0.3977  0.5727
  146SAPE  C21716105   4.252   5.640   9.131  0.1898 -0.4800 -0.1520
  146SAPE  H17R16106   4.301   5.601   9.223 -0.5855 -1.3822 -0.1081
  146SAPE  H17S16107   4.333   5.685   9.070  0.6447 -0.5464  0.4019
  146SAPE  C21816108   4.194   5.522   9.043 -0.1689 -0.7154 -0.0748
  146SAPE  H18R16109   4.104   5.478   9.091 -2.3948  2.3875 -1.0963
  146SAPE  H18S16110   4.275   5.447   9.042  0.8227  0.3189  0.5830
  146SAPE  C21916111   4.147   5.574   8.909 -0.0142  0.2296 -0.1633
  146SAPE  H19R16112   4.092   5.670   8.922 -0.7503 -0.4859  2.4983
  146SAPE  H19S16113   4.077   5.504   8.858  0.3553  0.8653 -1.5833
  146SAPE  C22016114   4.253   5.600   8.806 -0.4267  0.1199  0.2274
  146SAPE  H20R16115   4.310   5.691   8.834  1.8625 -0.1930 -2.9372
  146SAPE  H20S16116   4.203   5.614   8.707 -2.1412  0.1523  1.0596
  146SAPE  H20T16117   4.317   5.509   8.800  1.0602  1.0698  1.1946
  146SAPE   C3316118   3.280   5.705   9.829 -0.2469 -0.4444 -0.2220
  146SAPE   H3X16119   3.235   5.776   9.756  2.9149  1.0514 -0.8964
  146SAPE   H3Y16120   3.212   5.618   9.838 -0.8681  0.0182 -0.3335
  146SAPE   C3416121   3.412   5.659   9.751  0.6659  0.2887  0.4004
  146SAPE   H4X16122   3.471   5.597   9.822  0.8924  1.5947  1.3929
  146SAPE   H4Y16123   3.479   5.745   9.729 -0.2765  0.6370 -1.2841
  146SAPE   C3516124   3.373   5.587   9.620  0.1605 -0.5535  0.0842
  146SAPE   H5X16125   3.314   5.494   9.630  2.3267 -1.9148  0.8532
  146SAPE   H5Y16126   3.464   5.542   9.575  0.2578 -0.6066  0.3302
  146SAPE   C3616127   3.302   5.681   9.518  0.0130 -0.3793 -0.3039
  146SAPE   H6X16128   3.358   5.777   9.526  1.4534 -1.0901 -1.3827
  146SAPE   H6Y16129   3.197   5.697   9.553  0.1589  1.8675 -0.7647
  146SAPE   C3716130   3.310   5.636   9.364 -0.4604  0.5300 -0.1797
  146SAPE   H7X16131   3.250   5.543   9.369 -0.0725  0.3043  0.3084
  146SAPE   H7Y16132   3.416   5.614   9.342 -0.5397  1.6475 -1.8923
  146SAPE   C3816133   3.241   5.734   9.268  0.8571 -0.2744 -0.6758
  146SAPE   H8X16134   3.289   5.834   9.266  1.3538 -0.3063  2.8663
  146SAPE   H8Y16135   3.147   5.774   9.312  1.4606 -0.0060  0.4249
  146SAPE   C3916136   3.205   5.683   9.131 -0.4183  0.5850 -0.1469
  146SAPE   H9X16137   3.106   5.725   9.102  0.7855  2.9654 -1.0813
  146SAPE   H9Y16138   3.193   5.573   9.143 -1.1407  0.5815 -0.8223
  146SAPE  C31016139   3.311   5.735   9.032 -0.8675 -0.1656 -0.7204
  146SAPE  H10X16140   3.406   5.752   9.087 -0.3052  0.9616 -1.9872
  146SAPE  H10Y16141   3.288   5.839   9.003  1.8187  0.5390 -0.5657
  146SAPE  C31116142   3.341   5.640   8.916  0.5559 -0.1959 -0.2633
  146SAPE  H11X16143   3.372   5.543   8.960 -0.1156 -0.9732 -1.4511
  146SAPE  H11Y16144   3.418   5.672   8.842  0.3056  1.1390  0.0191
  146SAPE  C31216145   3.212   5.606   8.834  0.3270  0.0817  0.4286
  146SAPE  H12X16146   3.137   5.556   8.900 -2.0747 -0.1224 -2.2827
  146SAPE  H12Y16147   3.235   5.535   8.753 -0.9852 -1.4729  1.3539
  146SAPE  C31316148   3.145   5.736   8.779  0.8645 -0.1649 -0.2613
  146SAPE  H13X16149   3.222   5.787   8.718  0.7855 -0.2937 -0.4700
  146SAPE  H13Y16150   3.117   5.814   8.853 -0.2582  1.1700 -2.0019
  146SAPE  C31416151   3.040   5.686   8.684  0.3660  0.1828  0.8980
  146SAPE  H14X16152   2.967   5.627   8.744 -2.8230  0.6855 -2.1692
  146SAPE  H14Y16153   3.088   5.619   8.610 -1.6000  0.2704 -0.5474
  146SAPE  C31516154   2.973   5.803   8.615 -0.3743  0.2024  0.8245
  146SAPE  H15X16155   3.053   5.849   8.553  0.1271 -0.2173  1.1559
  146SAPE  H15Y16156   2.937   5.873   8.694  1.6881  2.8297 -0.3976
  146SAPE  C31616157   2.857   5.766   8.514  0.0834 -0.0530  0.3671
  146SAPE  H16X16158   2.900   5.709   8.429 -1.6462 -0.1300 -0.5063
  146SAPE  H16Y16159   2.815   5.862   8.477 -0.2303  0.4060  1.8662
  146SAPE  C31716160   2.748   5.676   8.579  0.6334  0.6690 -0.4132
  146SAPE  H17X16161   2.716   5.733   8.669 -2.6664 -0.1969 -0.9281
  146SAPE  H17Y16162   2.799   5.585   8.617 -2.4577 -1.2247 -0.5378
  146SAPE  C31816163   2.630   5.656   8.492 -0.6201  0.7577  0.5534
  146SAPE  H18X16164   2.653   5.590   8.406 -0.7203  0.0138  1.0859
  146SAPE  H18Y16165   2.583   5.750   8.456  0.7334  0.2417 -2.9612
  146SAPE  H18Z16166   2.552   5.605   8.552 -1.6128 -1.9953 -2.7635
  147SAPE     N16167   5.629   1.721  10.968 -0.8041 -0.5201 -0.0217
  147SAPE   HN116168   5.662   1.742  10.872  4.2218  0.0153  1.5180
  147SAPE   HN216169   5.530   1.752  10.963 -0.6076  0.0638 -0.3894
  147SAPE   HN316170   5.685   1.788  11.026  0.4628 -1.1876 -0.4464
  147SAPE   C1216171   5.647   1.582  11.014  0.7549  0.7458 -0.1009
  147SAPE  H12A16172   5.618   1.578  11.121 -1.5134 -0.6202 -0.7206
  147SAPE  H12B16173   5.757   1.563  11.009  0.7349  0.5668  0.1239
  147SAPE   C1116174   5.580   1.475  10.932 -0.0926 -0.4580  0.4513
  147SAPE  H11A16175   5.486   1.508  10.883 -0.3340 -0.6322  0.7917
  147SAPE  H11B16176   5.551   1.384  10.989 -1.7080 -0.2436  0.0101
  147SAPE     P16177   5.698   1.492  10.684 -0.3218  0.0950 -0.1041
  147SAPE   O1316178   5.840   1.531  10.675 -0.2914 -0.9906  0.4916
  147SAPE   O1416179   5.635   1.412  10.582  0.5060  0.4091 -0.3933
  147SAPE   O1216180   5.675   1.430  10.833  0.6240 -0.0870  0.1545
  147SAPE   O1116181   5.627   1.635  10.677  0.1549  0.1547  0.1023
  147SAPE    C116182   5.502   1.672  10.620 -0.0415 -0.2241  0.3532
  147SAPE    HA16183   5.436   1.583  10.624 -0.2154 -0.1492 -0.6175
  147SAPE    HB16184   5.465   1.763  10.672  0.5014  1.7009 -2.3756
  147SAPE    C216185   5.524   1.718  10.469  0.3639  0.1341 -0.0295
  147SAPE    HS16186   5.429   1.770  10.446  0.9750  0.4488 -2.0085
  147SAPE   O2116187   5.555   1.607  10.381 -0.4228  0.1304 -0.9400
  147SAPE   C2116188   5.459   1.516  10.355  0.2021 -0.2550  0.2974
  147SAPE   O2216189   5.342   1.528  10.404 -0.1835  0.5320  0.3874
  147SAPE   C2216190   5.508   1.406  10.264  0.4835 -0.2115  0.6825
  147SAPE   H2R16191   5.602   1.438  10.214 -0.6751  1.3848 -0.5898
  147SAPE   H2S16192   5.517   1.314  10.325  2.4287 -0.4615  0.1161
  147SAPE    C316193   5.645   1.815  10.468 -0.0548 -0.2135  0.1216
  147SAPE    HX16194   5.732   1.761  10.512 -0.4746 -2.4305 -1.5516
  147SAPE    HY16195   5.611   1.892  10.541 -0.6012  0.1426 -0.5001
  147SAPE   O3116196   5.659   1.870  10.335 -0.1089  0.3088 -0.3230
  147SAPE   C3116197   5.737   1.796  10.264 -0.8330  0.7074 -0.4943
  147SAPE   O3216198   5.819   1.712  10.307  0.1731  0.6260 -0.8208
  147SAPE   C3216199   5.709   1.809  10.112 -0.2437  0.4969  0.8416
  147SAPE   H2X16200   5.703   1.918  10.091 -1.2967  0.6842  1.9501
  147SAPE   H2Y16201   5.615   1.757  10.084 -0.5033  2.3039 -2.0210
  147SAPE   C2316202   5.409   1.386  10.150 -0.1458  0.5102  0.2201
  147SAPE   H3R16203   5.379   1.472  10.088  1.5603  1.1636  0.2461
  147SAPE   H3S16204   5.313   1.354  10.197 -0.4733 -0.4566 -1.0485
  147SAPE   C2416205   5.456   1.274  10.052  0.1171  0.7897  0.5725
  147SAPE   H4R16206   5.364   1.243   9.996  0.4036  0.7353  0.1261
  147SAPE   H4S16207   5.479   1.181  10.108  0.3216  0.3174 -0.2649
  147SAPE   C2516208   5.573   1.300   9.955 -0.0094 -1.0969 -0.2996
  147SAPE   H5R16209   5.675   1.315   9.994  0.7685 -2.4557 -1.6960
  147SAPE   C2616210   5.553   1.310   9.823  0.5738  0.2363 -0.5064
  147SAPE   H6R16211   5.644   1.340   9.768  2.8348 -0.6859  2.4475
  147SAPE   C2716212   5.429   1.302   9.736 -0.1114  0.4050 -0.6903
  147SAPE   H7R16213   5.336   1.287   9.795  1.2365 -0.1099  1.4049
  147SAPE   H7S16214   5.445   1.204   9.687 -2.0230  0.2963 -1.1701
  147SAPE   C2816215   5.422   1.427   9.646  0.2990 -1.2450 -0.0572
  147SAPE   H8R16216   5.458   1.521   9.690 -0.9599 -0.7561 -0.0318
  147SAPE   C2916217   5.368   1.422   9.519 -0.0702  0.3534 -0.2472
  147SAPE   H9R16218   5.361   1.517   9.464  0.0816  1.2383  1.1949
  147SAPE  C21016219   5.313   1.297   9.460 -1.0220  0.5079  0.0023
  147SAPE  H10R16220   5.297   1.216   9.535  0.2075 -1.5549 -1.8369
  147SAPE  H10S16221   5.399   1.258   9.402 -0.6888  2.4578 -0.8763
  147SAPE  C21116222   5.190   1.307   9.373  1.4148 -0.0622 -0.7464
  147SAPE  H11R16223   5.101   1.335   9.431  1.8833 -0.4045  0.1530
  147SAPE  C21216224   5.178   1.274   9.248 -0.6774  0.0419 -0.5847
  147SAPE  H12R16225   5.077   1.289   9.206 -0.6568  1.8323 -0.0688
  147SAPE  C21316226   5.275   1.223   9.146 -0.2366  0.2333 -0.5894
  147SAPE  H13R16227   5.271   1.112   9.153 -0.2861  0.3081  0.8960
  147SAPE  H13S16228   5.373   1.266   9.178 -0.7799  0.4588  0.8771
  147SAPE  C21416229   5.254   1.264   9.007  0.4109  0.3469 -0.3738
  147SAPE  H14R16230   5.205   1.362   8.997  2.7971  1.3850 -3.3403
  147SAPE  C21516231   5.288   1.191   8.901  1.0373 -0.2214 -0.0241
  147SAPE  H15R16232   5.262   1.235   8.803  0.4966  0.1183  0.2680
  147SAPE  C21616233   5.351   1.055   8.901 -0.1751 -0.5357  0.4982
  147SAPE  H16R16234   5.403   1.025   8.994  0.6625 -2.4928 -0.5388
  147SAPE  H16S16235   5.418   1.037   8.814 -0.0370  0.0457  0.4801
  147SAPE  C21716236   5.243   0.944   8.889  0.2118 -0.2054 -0.2868
  147SAPE  H17R16237   5.172   0.962   8.805  3.0056 -0.4599 -2.9047
  147SAPE  H17S16238   5.183   0.945   8.982  0.4616 -0.4927 -0.1208
  147SAPE  C21816239   5.310   0.804   8.872 -0.0510  0.5176  0.5093
  147SAPE  H18R16240   5.340   0.763   8.971  3.4103 -1.0103 -0.9885
  147SAPE  H18S16241   5.406   0.803   8.816  0.5334 -2.5813  1.3842
  147SAPE  C21916242   5.215   0.699   8.827  0.8531 -1.0212  0.7035
  147SAPE  H19R16243   5.141   0.699   8.910  0.9996  0.4002  0.8576
  147SAPE  H19S16244   5.276   0.607   8.829  1.5739 -0.5646  3.0157
  147SAPE  C22016245   5.146   0.714   8.689 -0.4255 -0.4704 -0.4358
  147SAPE  H20R16246   5.079   0.802   8.680  1.1022  0.6826 -0.8812
  147SAPE  H20S16247   5.081   0.626   8.671 -0.7281 -0.5886  1.0525
  147SAPE  H20T16248   5.213   0.715   8.601 -1.6827 -2.8291 -1.5238
  147SAPE   C3316249   5.821   1.738  10.029 -0.5795  0.1362  0.4873
  147SAPE   H3X16250   5.828   1.630  10.057 -1.9600 -0.0257  0.2755
  147SAPE   H3Y16251   5.919   1.786  10.054 -0.4782  0.5223 -0.6201
  147SAPE   C3416252   5.798   1.747   9.879  0.5024  0.3289 -0.1088
  147SAPE   H4X16253   5.875   1.805   9.823  2.6861 -2.5996 -0.4014
  147SAPE   H4Y16254   5.696   1.787   9.860 -0.8541 -2.4131  0.8856
  147SAPE   C3516255   5.792   1.609   9.810 -0.1682 -0.1596 -0.5988
  147SAPE   H5X16256   5.740   1.626   9.713 -3.2461  1.7438  1.2379
  147SAPE   H5Y16257   5.707   1.561   9.863  0.5180 -1.2259 -0.4266
  147SAPE   C3616258   5.912   1.517   9.814 -1.1464  1.3723  0.4514
  147SAPE   H6X16259   5.865   1.416   9.804 -0.5963  1.2322 -0.8974
  147SAPE   H6Y16260   5.963   1.516   9.913 -0.6559 -1.1045  0.2532
  147SAPE   C3716261   6.028   1.541   9.717  0.4986  0.3669 -0.3931
  147SAPE   H7X16262   6.106   1.463   9.729 -0.2198 -0.0632  1.9945
  147SAPE   H7Y16263   6.062   1.644   9.742  0.1960  1.1475 -2.8881
  147SAPE   C3816264   5.989   1.549   9.566  0.0724  0.4010  0.3291
  147SAPE   H8X16265   5.892   1.602   9.554  0.4715  1.0182 -0.2464
  147SAPE   H8Y16266   5.962   1.451   9.522 -0.9129  1.2677 -1.1106
  147SAPE   C3916267   6.095   1.616   9.475 -0.5016  0.4044  0.1487
  147SAPE   H9X16268   6.184   1.551   9.492  0.5689  2.1799  1.7889
  147SAPE   H9Y16269   6.125   1.720   9.500  0.2713  0.1800  0.1871
  147SAPE  C31016270   6.060   1.611   9.325  0.2307  0.7953  0.1214
  147SAPE  H10X16271   5.998   1.698   9.293  1.1032  0.9935 -1.1128
  147SAPE  H10Y16272   5.998   1.523   9.297  0.3552  0.9770 -0.7656
  147SAPE  C31116273   6.184   1.607   9.236 -0.1968 -0.2666  0.5106
  147SAPE  H11X16274   6.263   1.546   9.285  0.7002  0.8326  0.4724
  147SAPE  H11Y16275   6.228   1.709   9.240 -1.1565  0.1608  0.3817
  147SAPE  C31216276   6.142   1.579   9.096 -0.0332 -0.8122  0.6302
  147SAPE  H12X16277   6.086   1.660   9.043 -1.5241 -2.4503 -0.4155
  147SAPE  H12Y16278   6.095   1.479   9.097 -0.6895 -0.5506  3.1253
  147SAPE  C31316279   6.269   1.550   9.012 -0.4694 -1.1615  0.4161
  147SAPE  H13X16280   6.331   1.484   9.077 -0.4323 -2.1574 -0.5943
  147SAPE  H13Y16281   6.315   1.648   8.988 -2.4717 -0.0822  0.7553
  147SAPE  C31416282   6.246   1.487   8.874 -0.2612  0.0547 -0.0497
  147SAPE  H14X16283   6.216   1.382   8.893  3.7663 -1.5446 -1.3800
  147SAPE  H14Y16284   6.344   1.476   8.821  0.2319 -2.1996  1.2251
  147SAPE  C31516285   6.133   1.538   8.791 -0.7204 -0.2508  0.5655
  147SAPE  H15X16286   6.045   1.563   8.854 -1.1347  0.4643 -0.2623
  147SAPE  H15Y16287   6.107   1.464   8.713  0.9753 -0.3883  0.0865
  147SAPE  C31616288   6.169   1.667   8.712 -0.8626  0.1153  0.1462
  147SAPE  H16X16289   6.261   1.650   8.653  0.4225 -0.1362  2.1584
  147SAPE  H16Y16290   6.191   1.750   8.783  1.0044  1.8241 -2.2584
  147SAPE  C31716291   6.060   1.713   8.608 -0.5021 -0.4290 -0.4133
  147SAPE  H17X16292   6.099   1.802   8.555  0.2856 -0.6603 -0.2294
  147SAPE  H17Y16293   5.968   1.744   8.662 -0.8609 -0.8472 -0.7731
  147SAPE  C31816294   6.026   1.606   8.506  0.2383  0.7124  0.0985
  147SAPE  H18X16295   5.955   1.643   8.430 -0.7499  0.2819  0.7857
  147SAPE  H18Y16296   5.969   1.516   8.539 -1.2503  2.0412  1.2959
  147SAPE  H18Z16297   6.116   1.568   8.454  1.4160 -0.7708  2.9564
  148SAPE     N16298   5.154   4.282  10.896 -0.0045 -0.0307 -0.0434
  148SAPE   HN116299   5.230   4.245  10.956  0.9512 -1.5906 -2.0865
  148SAPE   HN216300   5.190   4.346  10.822 -0.6304  0.4014  0.0186
  148SAPE   HN316301   5.079   4.331  10.949  0.0546 -1.0381  1.0019
  148SAPE   C1216302   5.111   4.172  10.811  0.6236 -0.7300  0.3062
  148SAPE  H12A16303   5.011   4.141  10.846  1.5619 -1.7654  2.2291
  148SAPE  H12B16304   5.184   4.089  10.822  1.4876  0.1010  1.0223
  148SAPE   C1116305   5.112   4.217  10.661 -0.1511 -0.0680  0.8236
  148SAPE  H11A16306   5.022   4.283  10.654  0.3511  0.8703  2.7045
  148SAPE  H11B16307   5.100   4.130  10.593  0.3945 -0.5455  1.3365
  148SAPE     P16308   5.370   4.219  10.580  0.0896 -0.1844 -0.1029
  148SAPE   O1316309   5.484   4.296  10.630  0.0861 -0.3548  0.3286
  148SAPE   O1416310   5.358   4.075  10.616 -0.1545 -0.6950  0.2449
  148SAPE   O1216311   5.232   4.290  10.618  0.7247 -0.1257 -0.1732
  148SAPE   O1116312   5.365   4.241  10.422 -0.2469 -0.1274  0.0200
  148SAPE    C116313   5.339   4.131  10.329  0.5485 -0.7987 -0.3608
  148SAPE    HA16314   5.256   4.064  10.360  0.9151 -1.8220 -1.5010
  148SAPE    HB16315   5.333   4.175  10.227  0.8912 -0.4171 -0.2145
  148SAPE    C216316   5.471   4.047  10.308  0.9136  0.1951 -0.1223
  148SAPE    HS16317   5.504   4.009  10.407 -0.5186  4.1567  2.1125
  148SAPE   O2116318   5.574   4.133  10.260  0.2783  0.3780  0.4334
  148SAPE   C2116319   5.699   4.104  10.286 -0.0031  0.3460  0.5290
  148SAPE   O2216320   5.736   4.017  10.365 -0.1176  0.0299  0.0121
  148SAPE   C2216321   5.794   4.187  10.196 -0.2316 -0.1017  0.3847
  148SAPE   H2R16322   5.784   4.294  10.224  0.9903  0.0765  0.1964
  148SAPE   H2S16323   5.895   4.143  10.210 -1.2359 -2.4668  0.6870
  148SAPE    C316324   5.441   3.941  10.193  0.1154  0.5074 -0.0710
  148SAPE    HX16325   5.355   3.873  10.213 -1.1224  0.9554 -3.2079
  148SAPE    HY16326   5.532   3.879  10.182 -0.3398 -0.2288  0.2412
  148SAPE   O3116327   5.414   4.009  10.069  0.0825 -0.9331 -0.0782
  148SAPE   C3116328   5.371   3.935   9.973  0.4150  0.0925 -0.3033
  148SAPE   O3216329   5.348   3.813   9.992  0.3842 -0.1294  0.0371
  148SAPE   C3216330   5.352   4.008   9.837 -0.3968  0.1385  0.1748
  148SAPE   H2X16331   5.454   4.038   9.806  0.2007  1.1782  2.8226
  148SAPE   H2Y16332   5.306   4.105   9.866  1.8059  1.3049 -0.0695
  148SAPE   C2316333   5.770   4.168  10.047  0.0355  0.1673  0.0894
  148SAPE   H3R16334   5.824   4.258  10.010  1.1610 -0.1305  0.9475
  148SAPE   H3S16335   5.663   4.179  10.021 -0.2539 -0.2556  1.0881
  148SAPE   C2416336   5.843   4.049   9.989  0.6707  0.1208  0.3579
  148SAPE   H4R16337   5.936   4.024  10.046  1.1467 -1.5643 -1.0707
  148SAPE   H4S16338   5.885   4.075   9.889  1.3663  0.2719  0.6820
  148SAPE   C2516339   5.750   3.931   9.977  0.0293  0.2308  0.3225
  148SAPE   H5R16340   5.704   3.896  10.071  0.4351 -1.6003 -0.1241
  148SAPE   C2616341   5.718   3.860   9.868  0.1580  0.5492 -0.4850
  148SAPE   H6R16342   5.651   3.774   9.880 -0.1798  0.6832 -1.3431
  148SAPE   C2716343   5.762   3.882   9.727  0.5714 -0.5074  0.0746
  148SAPE   H7R16344   5.862   3.834   9.720  0.2182 -1.1798 -0.4564
  148SAPE   H7S16345   5.762   3.989   9.696 -0.9993 -0.9573 -1.6945
  148SAPE   C2816346   5.668   3.818   9.631 -0.2118 -0.0333  0.3568
  148SAPE   H8R16347   5.629   3.718   9.654 -1.3200  0.7025  1.8253
  148SAPE   C2916348   5.640   3.871   9.511  0.6171  0.4574  0.5246
  148SAPE   H9R16349   5.569   3.820   9.444  0.7468 -0.4313  1.0360
  148SAPE  C21016350   5.696   3.991   9.443 -0.2146 -0.0055  0.5135
  148SAPE  H10R16351   5.724   3.974   9.337  0.5476  2.8185  0.1958
  148SAPE  H10S16352   5.790   4.025   9.492 -0.3804 -1.6781  2.1181
  148SAPE  C21116353   5.605   4.114   9.442  0.4140  0.0325 -0.7335
  148SAPE  H11R16354   5.608   4.164   9.540  5.2728  3.0702 -2.0693
  148SAPE  C21216355   5.534   4.156   9.336  0.2585  0.2286 -0.3024
  148SAPE  H12R16356   5.459   4.236   9.336  1.5870  1.5417 -1.2049
  148SAPE  C21316357   5.539   4.089   9.194  0.3672  0.4161 -0.2761
  148SAPE  H13R16358   5.445   4.117   9.142 -0.8901 -2.4193  0.2675
  148SAPE  H13S16359   5.527   3.979   9.203 -0.6630  0.4476 -1.0854
  148SAPE  C21416360   5.664   4.130   9.118  0.2885  1.0927  0.8630
  148SAPE  H14R16361   5.750   4.153   9.183 -0.2427  0.7288  1.7243
  148SAPE  C21516362   5.672   4.148   8.983  0.5089  0.2845 -0.1922
  148SAPE  H15R16363   5.766   4.184   8.939  0.0077  1.7853 -0.1038
  148SAPE  C21616364   5.566   4.111   8.879 -0.0807 -0.5347  0.5898
  148SAPE  H16R16365   5.477   4.072   8.933 -0.0743 -1.3409  0.0311
  148SAPE  H16S16366   5.614   4.032   8.819 -0.8742  0.3246 -1.2807
  148SAPE  C21716367   5.526   4.225   8.789  0.7527  0.1883 -0.2709
  148SAPE  H17R16368   5.601   4.307   8.789 -1.1829  2.0612  0.2429
  148SAPE  H17S16369   5.430   4.267   8.827  0.7809 -0.9232  1.1011
  148SAPE  C21816370   5.502   4.176   8.642  0.0245 -0.4766  0.1929
  148SAPE  H18R16371   5.426   4.240   8.592 -0.2423 -1.8159 -1.1892
  148SAPE  H18S16372   5.468   4.070   8.648  0.0508 -0.6314 -1.6383
  148SAPE  C21916373   5.633   4.185   8.565 -0.1227 -0.3891 -0.2051
  148SAPE  H19R16374   5.606   4.139   8.467  0.3759  0.5496 -0.7913
  148SAPE  H19S16375   5.720   4.134   8.612 -0.6656 -0.4266  0.7782
  148SAPE  C22016376   5.667   4.327   8.536  0.3325 -0.2826 -0.5455
  148SAPE  H20R16377   5.743   4.361   8.611  0.2588  3.5848 -2.0022
  148SAPE  H20S16378   5.583   4.399   8.524  0.2944  0.1782  1.8602
  148SAPE  H20T16379   5.737   4.325   8.450  2.5903  1.9528  1.0541
  148SAPE   C3316380   5.272   3.937   9.726 -0.2069  0.8525 -0.7520
  148SAPE   H3X16381   5.171   3.922   9.770  0.7195 -1.3293  0.8586
  148SAPE   H3Y16382   5.317   3.837   9.709 -1.3587  0.2013 -0.1033
  148SAPE   C3416383   5.273   4.018   9.592  0.1441 -0.0478 -0.1208
  148SAPE   H4X16384   5.372   3.989   9.550  0.1660 -0.7543  0.4124
  148SAPE   H4Y16385   5.249   4.126   9.602  1.9619  0.7745 -3.1703
  148SAPE   C3516386   5.170   3.956   9.496  0.2825 -0.3129  0.0550
  148SAPE   H5X16387   5.071   3.949   9.546 -0.9168  0.2886 -2.0882
  148SAPE   H5Y16388   5.192   3.849   9.475 -3.2992 -0.8537 -1.6837
  148SAPE   C3616389   5.149   4.041   9.363 -0.4829  0.2267  0.7035
  148SAPE   H6X16390   5.243   4.043   9.305  1.1362 -1.2383  3.0969
  148SAPE   H6Y16391   5.128   4.148   9.390 -1.1348  0.9171 -2.2078
  148SAPE   C3716392   5.035   3.997   9.274 -0.8570 -0.1886  0.2692
  148SAPE   H7X16393   4.934   4.020   9.316 -1.9906  0.3563 -2.5451
  148SAPE   H7Y16394   5.036   3.890   9.244 -0.6344 -0.1405  0.1074
  148SAPE   C3816395   5.044   4.080   9.147 -0.1716 -0.8218  0.1061
  148SAPE   H8X16396   5.099   4.174   9.166  1.1455 -1.4781 -0.3919
  148SAPE   H8Y16397   4.945   4.112   9.106  0.4735  0.3993 -0.5625
  148SAPE   C3916398   5.121   4.005   9.035  0.1620 -0.3594  0.7521
  148SAPE   H9X16399   5.101   3.896   9.036  3.3873 -1.1172 -1.5572
  148SAPE   H9Y16400   5.229   3.992   9.057  0.4130 -0.8031 -0.6568
  148SAPE  C31016401   5.090   4.056   8.892 -0.1934  0.5029 -0.2457
  148SAPE  H10X16402   5.110   4.164   8.904 -0.2977  0.4581  0.3409
  148SAPE  H10Y16403   4.982   4.038   8.874 -0.5464  0.7694  1.4369
  148SAPE  C31116404   5.168   3.974   8.785 -0.2019 -0.4156 -0.3777
  148SAPE  H11X16405   5.274   3.958   8.817 -0.8893 -2.6422  1.0425
  148SAPE  H11Y16406   5.177   4.020   8.685 -2.6466 -2.3437 -1.5843
  148SAPE  C31216407   5.109   3.828   8.765  0.7207  0.0819 -0.0947
  148SAPE  H12X16408   5.001   3.842   8.745  0.3771  0.9872  2.1153
  148SAPE  H12Y16409   5.105   3.776   8.863  0.2572  2.0125  0.9653
  148SAPE  C31316410   5.182   3.751   8.657  0.1159  0.0479 -0.1317
  148SAPE  H13X16411   5.119   3.663   8.635 -0.5166  0.8365 -1.6159
  148SAPE  H13Y16412   5.281   3.718   8.697 -0.2062 -0.8566 -0.0658
  148SAPE  C31416413   5.211   3.828   8.526 -0.5818  0.3917 -0.5692
  148SAPE  H14X16414   5.285   3.907   8.552  0.7881 -0.2623 -2.2664
  148SAPE  H14Y16415   5.114   3.871   8.494 -0.2198 -0.0692 -2.4461
  148SAPE  C31516416   5.260   3.722   8.424  0.6917  0.1422 -0.4746
  148SAPE  H15X16417   5.191   3.636   8.425  2.0187 -0.9490  0.3256
  148SAPE  H15Y16418   5.361   3.686   8.453 -0.2373 -0.2337  2.7059
  148SAPE  C31616419   5.258   3.776   8.283 -0.3562  0.7228 -0.0028
  148SAPE  H16X16420   5.299   3.879   8.277  1.8402 -0.0376  0.9508
  148SAPE  H16Y16421   5.150   3.783   8.258 -0.2385  2.7455 -0.1088
  148SAPE  C31716422   5.331   3.682   8.180 -0.1931 -0.6758  0.2930
  148SAPE  H17X16423   5.265   3.595   8.156 -0.2437 -0.2218 -1.3273
  148SAPE  H17Y16424   5.420   3.632   8.223  0.6614  0.3875 -0.1990
  148SAPE  C31816425   5.375   3.751   8.046  0.1791 -0.4220  1.1586
  148SAPE  H18X16426   5.293   3.792   7.984  0.7647  1.9110  1.7907
  148SAPE  H18Y16427   5.437   3.679   7.989 -2.9160 -2.5492  0.2290
  148SAPE  H18Z16428   5.428   3.845   8.075 -2.1892  1.5219 -0.4292
  149SAPE     N16429   1.493   4.575  11.114  0.3548 -0.0567 -0.2294
  149SAPE   HN116430   1.592   4.587  11.143 -0.0526  4.1018  0.0926
  149SAPE   HN216431   1.437   4.607  11.196  2.0995  0.0291  0.9844
  149SAPE   HN316432   1.473   4.474  11.102  0.9581 -0.5325  2.2865
  149SAPE   C1216433   1.442   4.655  10.998  0.1052  0.9654 -0.4478
  149SAPE  H12A16434   1.402   4.750  11.040 -1.8080  0.2742 -0.6179
  149SAPE  H12B16435   1.359   4.593  10.957 -0.1925  1.5498 -0.7428
  149SAPE   C1116436   1.556   4.679  10.905 -0.6586  0.1604  0.9636
  149SAPE  H11A16437   1.517   4.742  10.823  0.8679 -1.5558 -1.2185
  149SAPE  H11B16438   1.577   4.577  10.867 -0.6686  0.3532  0.4404
  149SAPE     P16439   1.733   4.881  10.945 -0.0910 -0.6065 -0.1518
  149SAPE   O1316440   1.688   4.976  11.050 -0.4782 -0.7539  0.3332
  149SAPE   O1416441   1.882   4.864  10.938  0.0436  0.2756  0.2325
  149SAPE   O1216442   1.666   4.745  10.967  1.3141  1.2783 -0.2479
  149SAPE   O1116443   1.675   4.939  10.803 -0.2821 -0.1537 -0.4201
  149SAPE    C116444   1.700   4.874  10.677 -0.1571  0.1306 -0.5902
  149SAPE    HA16445   1.717   4.765  10.692 -0.9258  0.3444  2.6540
  149SAPE    HB16446   1.610   4.890  10.614 -1.2182  1.2995  1.1300
  149SAPE    C216447   1.821   4.931  10.604 -0.0014 -0.3002 -0.4093
  149SAPE    HS16448   1.907   4.938  10.674 -0.6567  1.4106  0.2652
  149SAPE   O2116449   1.795   5.058  10.551  0.2719  0.1618  0.5322
  149SAPE   C2116450   1.897   5.140  10.542  0.6140 -0.4960  0.9155
  149SAPE   O2216451   2.012   5.113  10.563  0.0874 -0.1131 -0.1917
  149SAPE   C2216452   1.848   5.273  10.486  0.0939  0.4373 -0.0607
  149SAPE   H2R16453   1.738   5.274  10.500  0.0827  1.6876 -0.1396
  149SAPE   H2S16454   1.889   5.353  10.551 -0.0600 -0.5747  1.3568
  149SAPE    C316455   1.877   4.828  10.494  0.2175 -0.3798 -0.0225
  149SAPE    HX16456   1.909   4.743  10.557 -0.7943  0.5100  1.7719
  149SAPE    HY16457   1.966   4.882  10.455  1.3133 -1.2996  1.1197
  149SAPE   O3116458   1.779   4.798  10.393 -0.2403 -0.3200 -0.2442
  149SAPE   C3116459   1.764   4.669  10.354  0.3624 -0.6635 -0.3638
  149SAPE   O3216460   1.821   4.573  10.394  0.2507 -0.4186 -0.3913
  149SAPE   C3216461   1.648   4.679  10.258  0.6141  0.1637  0.0736
  149SAPE   H2X16462   1.701   4.658  10.162  2.8227 -0.1424  1.3051
  149SAPE   H2Y16463   1.597   4.778  10.256 -1.2057 -0.7427 -0.6176
  149SAPE   C2316464   1.915   5.300  10.355 -0.8556  0.2536  0.0974
  149SAPE   H3R16465   1.872   5.235  10.277  0.8119  0.7782 -1.3237
  149SAPE   H3S16466   2.023   5.274  10.362 -1.1874 -1.3505 -0.4326
  149SAPE   C2416467   1.916   5.441  10.299 -0.3818  0.0020  0.2981
  149SAPE   H4R16468   1.956   5.525  10.359 -1.4693  1.1368 -0.5169
  149SAPE   H4S16469   1.810   5.462  10.272 -0.4243 -0.3592  0.1840
  149SAPE   C2516470   2.003   5.456  10.178 -0.1762 -0.1245  0.1788
  149SAPE   H5R16471   2.109   5.466  10.205  0.0334  1.9594 -1.1529
  149SAPE   C2616472   1.967   5.453  10.048 -0.1602  0.0238  0.0435
  149SAPE   H6R16473   2.049   5.455   9.974 -0.1344 -0.4724  0.0521
  149SAPE   C2716474   1.833   5.432   9.986  0.4095 -0.2765 -0.4578
  149SAPE   H7R16475   1.811   5.526   9.931  1.3186  1.0354  1.3236
  149SAPE   H7S16476   1.750   5.436  10.060  1.0255  1.8396  0.2011
  149SAPE   C2816477   1.836   5.315   9.889  0.1088 -0.4716 -0.7351
  149SAPE   H8R16478   1.838   5.218   9.941 -1.5563 -0.0798  0.1108
  149SAPE   C2916479   1.841   5.317   9.753 -0.0988  0.0263  0.5665
  149SAPE   H9R16480   1.860   5.218   9.708  2.7191  0.9390 -0.4540
  149SAPE  C21016481   1.840   5.435   9.657  0.8764 -0.1298 -0.0404
  149SAPE  H10R16482   1.844   5.530   9.713 -0.5980 -0.4168  0.5874
  149SAPE  H10S16483   1.748   5.452   9.597  1.2226 -0.0692 -0.5596
  149SAPE  C21116484   1.956   5.430   9.562 -0.4318 -0.4523 -0.7178
  149SAPE  H11R16485   2.047   5.459   9.618 -0.4457 -2.5212  0.4852
  149SAPE  C21216486   1.960   5.380   9.439 -0.4052  0.4192 -0.3443
  149SAPE  H12R16487   2.059   5.379   9.390 -0.1805  0.5232  0.1075
  149SAPE  C21316488   1.852   5.317   9.353  0.1911  0.3187  0.6337
  149SAPE  H13R16489   1.791   5.247   9.415 -0.9302 -0.5498 -1.3120
  149SAPE  H13S16490   1.899   5.250   9.277  0.6589 -0.2296  1.3957
  149SAPE  C21416491   1.753   5.408   9.283  0.3801  0.0299 -0.0868
  149SAPE  H14R16492   1.748   5.515   9.308 -0.3422 -0.2679  1.1557
  149SAPE  C21516493   1.660   5.367   9.201 -0.0420 -0.7271 -0.0102
  149SAPE  H15R16494   1.603   5.445   9.148 -0.5362  0.0252  1.5482
  149SAPE  C21616495   1.636   5.227   9.151 -1.1282  0.6294 -0.5487
  149SAPE  H16R16496   1.530   5.197   9.162 -0.0284 -3.2086  1.8064
  149SAPE  H16S16497   1.695   5.154   9.211 -1.2396 -0.2140 -1.4489
  149SAPE  C21716498   1.683   5.211   9.005  0.1267 -0.5985 -0.2412
  149SAPE  H17R16499   1.790   5.239   8.996  0.0095 -0.3619 -0.9159
  149SAPE  H17S16500   1.627   5.289   8.949  3.2828  2.6835  0.8050
  149SAPE  C21816501   1.664   5.069   8.954 -0.8221 -0.4208 -0.1527
  149SAPE  H18R16502   1.553   5.059   8.952 -0.7571 -1.0733 -1.3278
  149SAPE  H18S16503   1.711   4.997   9.024  0.6471  0.5490 -0.1067
  149SAPE  C21916504   1.710   5.051   8.809  0.1153 -0.8967  0.0875
  149SAPE  H19R16505   1.814   5.088   8.790 -0.8863  0.8575 -2.6904
  149SAPE  H19S16506   1.652   5.114   8.737 -0.6892 -1.8521 -0.1192
  149SAPE  C22016507   1.699   4.908   8.756 -0.2960  0.7536  0.3891
  149SAPE  H20R16508   1.776   4.847   8.808 -0.0775  1.7794  1.3234
  149SAPE  H20S16509   1.721   4.902   8.648  2.1873  0.2940  0.8647
  149SAPE  H20T16510   1.597   4.868   8.775  0.1596  0.1461  1.7170
  149SAPE   C3316511   1.547   4.569  10.285  0.0632  0.9308 -0.1023
  149SAPE   H3X16512   1.446   4.581  10.241  0.3361  0.8563 -0.7621
  149SAPE   H3Y16513   1.518   4.565  10.392  1.4200  2.1964  0.3521
  149SAPE   C3416514   1.593   4.428  10.246 -0.7032 -1.0270 -0.8124
  149SAPE   H4X16515   1.511   4.360  10.278 -1.4975  0.7188  1.1251
  149SAPE   H4Y16516   1.688   4.401  10.296 -1.9351 -1.4434  1.4147
  149SAPE   C3516517   1.632   4.417  10.097 -0.0064  0.2633  0.5802
  149SAPE   H5X16518   1.662   4.312  10.077  3.8418  1.2100  0.6615
  149SAPE   H5Y16519   1.722   4.479  10.074  2.4049 -3.3619 -0.4977
  149SAPE   C3616520   1.513   4.428   9.998  0.4962 -0.0468  0.1477
  149SAPE   H6X16521   1.456   4.520  10.023 -1.5531 -0.6839 -1.9154
  149SAPE   H6Y16522   1.445   4.343  10.020 -2.4159  1.9581 -0.6337
  149SAPE   C3716523   1.553   4.422   9.850 -0.2797  0.4973 -0.4180
  149SAPE   H7X16524   1.456   4.431   9.798 -0.6149  0.9120  0.2631
  149SAPE   H7Y16525   1.595   4.319   9.841 -1.0706  0.2220 -1.0696
  149SAPE   C3816526   1.656   4.533   9.811  0.0286  0.6496 -0.1281
  149SAPE   H8X16527   1.756   4.499   9.844 -0.5475 -1.8507 -0.7127
  149SAPE   H8Y16528   1.623   4.625   9.863 -0.2356  0.2306  0.4573
  149SAPE   C3916529   1.663   4.559   9.660 -0.5269  0.2335  0.2084
  149SAPE   H9X16530   1.741   4.637   9.657 -0.3234  0.0416  0.5762
  149SAPE   H9Y16531   1.569   4.612   9.630 -1.1751  0.5076  2.5238
  149SAPE  C31016532   1.699   4.444   9.566 -0.7732 -0.3105 -0.3114
  149SAPE  H10X16533   1.617   4.368   9.561 -1.5442  0.1583  2.7803
  149SAPE  H10Y16534   1.794   4.399   9.604 -0.1787  1.4672  0.3952
  149SAPE  C31116535   1.720   4.478   9.412 -0.2522 -0.1507  0.2849
  149SAPE  H11X16536   1.756   4.384   9.365 -1.2415  0.3830 -1.6361
  149SAPE  H11Y16537   1.800   4.552   9.390 -0.9942  0.5600 -0.0819
  149SAPE  C31216538   1.595   4.509   9.332  0.0384 -0.2723  0.0511
  149SAPE  H12X16539   1.542   4.602   9.360 -1.5588  0.1614 -3.7919
  149SAPE  H12Y16540   1.531   4.418   9.334 -0.5569  0.0440 -2.3247
  149SAPE  C31316541   1.640   4.548   9.186  0.9728  0.6886 -0.1161
  149SAPE  H13X16542   1.681   4.457   9.139 -1.9890 -0.2758 -1.0679
  149SAPE  H13Y16543   1.711   4.633   9.177  1.4502  0.6929  2.7782
  149SAPE  C31416544   1.522   4.575   9.091 -0.5371 -0.5230 -0.5831
  149SAPE  H14X16545   1.483   4.679   9.101  2.4011  0.5961  0.5098
  149SAPE  H14Y16546   1.437   4.509   9.118 -0.9140  0.8135  1.8298
  149SAPE  C31516547   1.562   4.566   8.939 -0.1773 -0.3009  0.2570
  149SAPE  H15X16548   1.568   4.456   8.924 -1.3840 -0.2562 -0.6642
  149SAPE  H15Y16549   1.654   4.619   8.907  0.0446 -2.3200 -2.9103
  149SAPE  C31616550   1.446   4.615   8.845  0.2612 -0.0551  0.8990
  149SAPE  H16X16551   1.435   4.726   8.846 -0.0837 -0.0929  1.6595
  149SAPE  H16Y16552   1.354   4.568   8.883  0.1143 -1.5231 -1.1120
  149SAPE  C31716553   1.479   4.579   8.698 -0.2320 -0.3716 -0.5758
  149SAPE  H17X16554   1.498   4.470   8.695  0.7723 -0.2103 -0.4790
  149SAPE  H17Y16555   1.581   4.616   8.674  1.4947 -2.5113  2.7129
  149SAPE  C31816556   1.370   4.616   8.602 -0.2891 -0.5288 -0.4813
  149SAPE  H18X16557   1.361   4.725   8.585  1.7902 -0.3612 -0.7366
  149SAPE  H18Y16558   1.275   4.569   8.637 -0.4052  1.7633  2.6956
  149SAPE  H18Z16559   1.392   4.580   8.499  1.6981 -0.1733 -0.2270
  150SAPE     N16560   2.141   4.964  10.959  0.4822 -0.3749  0.4324
  150SAPE   HN116561   2.200   4.923  11.035 -0.2213  0.1552  1.2854
  150SAPE   HN216562   2.123   5.064  10.983  3.1975  0.2781  0.1191
  150SAPE   HN316563   2.051   4.912  10.964 -0.6193  1.5565  2.3171
  150SAPE   C1216564   2.207   4.950  10.829 -0.6397 -0.0994  0.0102
  150SAPE  H12A16565   2.143   5.004  10.755 -1.7279  0.7410  1.4859
  150SAPE  H12B16566   2.202   4.843  10.801  0.0949 -0.8816  2.5950
  150SAPE   C1116567   2.360   4.983  10.833  0.2346  0.9568 -0.2553
  150SAPE  H11A16568   2.392   5.085  10.867 -1.3868  1.5644 -0.4870
  150SAPE  H11B16569   2.398   4.965  10.730  0.8986 -2.4435  0.4800
  150SAPE     P16570   2.570   4.894  10.960  0.1379 -0.7128  0.6568
  150SAPE   O1316571   2.591   5.023  11.038 -0.5447 -0.8076  0.1021
  150SAPE   O1416572   2.614   4.761  11.011  0.0414  0.1777  0.5754
  150SAPE   O1216573   2.411   4.886  10.921  0.2978  0.2706 -0.3356
  150SAPE   O1116574   2.633   4.921  10.816 -0.6109  0.3181  0.0400
  150SAPE    C116575   2.719   4.826  10.753 -0.1600  0.3777 -0.3167
  150SAPE    HA16576   2.812   4.884  10.733  0.2217 -0.7679 -2.2265
  150SAPE    HB16577   2.742   4.734  10.811 -0.3837  0.2129 -0.4861
  150SAPE    C216578   2.672   4.778  10.615 -0.1204  0.3469  0.2257
  150SAPE    HS16579   2.749   4.711  10.571  0.1412  0.1301  0.9965
  150SAPE   O2116580   2.623   4.893  10.542  0.6532  0.7951 -0.2663
  150SAPE   C2116581   2.685   4.914  10.431  0.0618 -0.5335 -0.2765
  150SAPE   O2216582   2.786   4.867  10.390 -0.3274 -0.8212  0.4991
  150SAPE   C2216583   2.595   5.015  10.355  0.0509  0.1389  0.7405
  150SAPE   H2R16584   2.497   4.966  10.341 -0.1653  0.8779 -0.4818
  150SAPE   H2S16585   2.578   5.099  10.425 -2.7229  0.0947  0.2257
  150SAPE    C316586   2.561   4.667  10.637 -0.2421 -0.1173  0.1194
  150SAPE    HX16587   2.465   4.717  10.665  1.2792  4.4561 -1.8313
  150SAPE    HY16588   2.581   4.608  10.729 -0.7719 -0.5393 -0.0298
  150SAPE   O3116589   2.561   4.573  10.527  0.6859  0.0556 -0.1451
  150SAPE   C3116590   2.467   4.602  10.434  0.1404 -1.0258  0.2260
  150SAPE   O3216591   2.392   4.696  10.441 -0.7893 -0.5222 -0.6216
  150SAPE   C3216592   2.450   4.493  10.334 -0.2526  0.0047 -0.7890
  150SAPE   H2X16593   2.372   4.422  10.370 -1.2588  1.5551  0.2670
  150SAPE   H2Y16594   2.545   4.437  10.320  0.2712  0.7542 -0.3550
  150SAPE   C2316595   2.654   5.078  10.221 -0.7076 -0.5575 -0.8941
  150SAPE   H3R16596   2.671   4.996  10.148 -0.4135 -0.6678 -0.7039
  150SAPE   H3S16597   2.758   5.110  10.244 -1.2352 -0.5497  1.8811
  150SAPE   C2416598   2.582   5.204  10.179 -0.0872  0.5538  0.8093
  150SAPE   H4R16599   2.650   5.279  10.134  1.4536 -2.3087 -2.0272
  150SAPE   H4S16600   2.543   5.244  10.275  0.5425  1.7078  0.6009
  150SAPE   C2516601   2.476   5.177  10.079  0.3214 -1.1063  0.4550
  150SAPE   H5R16602   2.528   5.143   9.988  1.2476  1.3255  0.0166
  150SAPE   C2616603   2.339   5.165  10.084  0.1587 -0.2212  0.5892
  150SAPE   H6R16604   2.281   5.158   9.991 -1.9881  0.4545  1.8037
  150SAPE   C2716605   2.248   5.168  10.197  0.7209  0.8383  0.3119
  150SAPE   H7R16606   2.161   5.229  10.165  1.0685  1.2282  0.1033
  150SAPE   H7S16607   2.294   5.223  10.281  0.8803  0.8770  0.1983
  150SAPE   C2816608   2.203   5.027  10.241  0.4265  0.9900  0.1784
  150SAPE   H8R16609   2.286   4.989  10.302 -0.1790 -2.4024 -0.8931
  150SAPE   C2916610   2.090   4.958  10.223  0.0311  0.3276 -0.4390
  150SAPE   H9R16611   2.099   4.852  10.251  1.6766  1.0726  2.2519
  150SAPE  C21016612   1.969   5.002  10.145  0.2676 -0.1022 -0.0047
  150SAPE  H10R16613   1.991   5.102  10.103  0.3688 -0.1858 -0.1509
  150SAPE  H10S16614   1.895   5.016  10.227 -0.0677 -4.8608  0.8358
  150SAPE  C21116615   1.910   4.908  10.046 -0.0904 -0.0503 -0.3574
  150SAPE  H11R16616   1.804   4.883  10.064 -0.0412 -2.2039 -2.6505
  150SAPE  C21216617   1.969   4.867   9.935 -0.8676  0.5069 -0.2209
  150SAPE  H12R16618   1.913   4.801   9.868  3.1250 -3.4208 -0.1394
  150SAPE  C21316619   2.104   4.906   9.881  0.0685  0.1791 -0.4101
  150SAPE  H13R16620   2.156   4.821   9.832 -2.8522 -1.2319 -1.3435
  150SAPE  H13S16621   2.176   4.925   9.963  0.4915  0.8463 -0.9250
  150SAPE  C21416622   2.098   5.033   9.804  0.2329 -0.1404 -0.2223
  150SAPE  H14R16623   2.058   5.122   9.855 -1.7661  0.1153 -2.0845
  150SAPE  C21516624   2.141   5.045   9.678  0.3200 -0.6441 -1.1589
  150SAPE  H15R16625   2.123   5.141   9.627  0.1507  0.9445  1.7031
  150SAPE  C21616626   2.194   4.931   9.590  0.5243 -0.4912 -0.3247
  150SAPE  H16R16627   2.166   4.826   9.612  0.3654 -0.6241 -1.1201
  150SAPE  H16S16628   2.304   4.939   9.586  0.4369  0.5080 -1.2967
  150SAPE  C21716629   2.152   4.967   9.440 -0.3060 -0.4932 -0.1274
  150SAPE  H17R16630   2.219   4.904   9.377  0.5764 -0.8657  1.1354
  150SAPE  H17S16631   2.168   5.074   9.415  0.0484 -0.8651 -1.6513
  150SAPE  C21816632   2.013   4.935   9.398  1.2234 -0.1613  0.2673
  150SAPE  H18R16633   1.941   5.001   9.450 -0.0289 -1.0881 -0.2508
  150SAPE  H18S16634   1.985   4.830   9.422 -0.8117 -0.3202 -2.3154
  150SAPE  C21916635   1.989   4.957   9.257  0.0304  0.2461  0.8404
  150SAPE  H19R16636   2.076   4.929   9.194  0.1320  0.1150  1.0398
  150SAPE  H19S16637   1.967   5.062   9.230 -0.3567  0.1985  0.9632
  150SAPE  C22016638   1.868   4.871   9.211 -0.6755 -0.8347 -1.1430
  150SAPE  H20R16639   1.858   4.853   9.102  0.4784 -0.0254 -1.3986
  150SAPE  H20S16640   1.771   4.916   9.243  0.1894 -0.8391  1.7277
  150SAPE  H20T16641   1.867   4.773   9.263 -1.1922  0.2391  0.9794
  150SAPE   C3316642   2.422   4.549  10.198 -0.3324  0.3339  0.1980
  150SAPE   H3X16643   2.338   4.621  10.185 -0.9462 -0.6042 -1.4283
  150SAPE   H3Y16644   2.394   4.462  10.135 -2.0574  1.5976 -0.8866
  150SAPE   C3416645   2.544   4.611  10.125 -0.3553 -0.3832  0.1585
  150SAPE   H4X16646   2.623   4.538  10.099 -0.3538  0.1584 -1.5209
  150SAPE   H4Y16647   2.588   4.678  10.201  2.8223  0.2762 -2.0520
  150SAPE   C3516648   2.512   4.699   9.998  0.6187 -0.1688 -0.0439
  150SAPE   H5X16649   2.609   4.721   9.948 -1.5764  1.4503 -4.0560
  150SAPE   H5Y16650   2.484   4.799  10.037  0.7980 -0.0491 -0.2165
  150SAPE   C3616651   2.413   4.648   9.900 -0.3017  0.3795  0.5639
  150SAPE   H6X16652   2.401   4.718   9.815 -1.0935  1.7398  1.7603
  150SAPE   H6Y16653   2.313   4.624   9.942  0.5666 -1.0009  1.9881
  150SAPE   C3716654   2.464   4.519   9.831  0.0650 -0.3830  0.1920
  150SAPE   H7X16655   2.471   4.446   9.914 -0.1689 -0.3248  0.2623
  150SAPE   H7Y16656   2.570   4.539   9.804 -0.0758 -2.1349 -1.9644
  150SAPE   C3816657   2.369   4.451   9.728 -0.0971  0.2957 -0.6754
  150SAPE   H8X16658   2.285   4.422   9.795  0.6833 -1.8539 -0.5352
  150SAPE   H8Y16659   2.398   4.347   9.700  0.0781 -0.6112  2.5367
  150SAPE   C3916660   2.319   4.532   9.610  0.0469  0.1867 -0.1353
  150SAPE   H9X16661   2.404   4.582   9.559 -0.8887  0.6487 -1.2959
  150SAPE   H9Y16662   2.258   4.620   9.639  1.0290  0.8946 -0.1551
  150SAPE  C31016663   2.232   4.453   9.504 -0.4422 -0.2449 -0.1605
  150SAPE  H10X16664   2.137   4.417   9.550 -0.1237 -0.5082  0.2949
  150SAPE  H10Y16665   2.295   4.367   9.474  3.0847  2.9328 -2.7237
  150SAPE  C31116666   2.194   4.531   9.380  0.1044 -0.0639  0.6771
  150SAPE  H11X16667   2.287   4.543   9.321 -1.0302  0.2961 -1.1571
  150SAPE  H11Y16668   2.158   4.634   9.403 -1.1517 -0.3729  0.1950
  150SAPE  C31216669   2.083   4.461   9.310 -0.3970  0.1980  0.1052
  150SAPE  H12X16670   1.996   4.464   9.379 -1.1087  0.4336 -0.7898
  150SAPE  H12Y16671   2.105   4.352   9.299  0.1285  0.0607  2.1826
  150SAPE  C31316672   2.038   4.517   9.175 -0.3937  0.5955  0.2896
  150SAPE  H13X16673   2.030   4.627   9.191 -3.0857  0.4413  0.4994
  150SAPE  H13Y16674   1.934   4.487   9.153 -1.2449  1.6609  2.5531
  150SAPE  C31416675   2.133   4.473   9.062  0.3783 -0.2424  0.2424
  150SAPE  H14X16676   2.234   4.500   9.100  0.8056  2.0929 -2.2668
  150SAPE  H14Y16677   2.112   4.539   8.976  0.2332  1.8006  1.7702
  150SAPE  C31516678   2.132   4.325   9.027  0.5210 -0.1373  0.7699
  150SAPE  H15X16679   2.031   4.280   9.018  1.4937 -2.1842 -0.6729
  150SAPE  H15Y16680   2.165   4.262   9.112  0.4958 -0.6447  0.4062
  150SAPE  C31616681   2.208   4.299   8.901  0.4733  0.0575  0.1152
  150SAPE  H16X16682   2.312   4.336   8.912  0.9267 -0.9624 -0.6005
  150SAPE  H16Y16683   2.154   4.348   8.816 -0.3552  0.0889  0.6430
  150SAPE  C31716684   2.217   4.149   8.866  0.0816  0.4100  0.2083
  150SAPE  H17X16685   2.114   4.126   8.833  0.2325 -0.4019  0.2804
  150SAPE  H17Y16686   2.229   4.083   8.955  0.8997 -0.4216 -0.4945
  150SAPE  C31816687   2.304   4.108   8.751  0.7041  0.0561 -0.6287
  150SAPE  H18X16688   2.284   4.000   8.732 -2.6523  0.3719  0.3805
  150SAPE  H18Y16689   2.410   4.122   8.783  0.6028  3.8494 -1.4460
  150SAPE  H18Z16690   2.280   4.173   8.665 -0.8395  0.5554  0.1349
  151SAPE     N16691   0.436   1.476  10.626  0.5917 -0.0506  0.4815
  151SAPE   HN116692   0.370   1.507  10.552  1.4087  0.6217  0.0165
  151SAPE   HN216693   0.528   1.461  10.579  0.0891  0.1236 -0.5822
  151SAPE   HN316694   0.402   1.390  10.674 -0.7502  0.7727  1.0350
  151SAPE   C1216695   0.450   1.569  10.741  0.1616 -0.2382  0.0877
  151SAPE  H12A16696   0.491   1.507  10.824 -0.3937 -2.5620 -1.2777
  151SAPE  H12B16697   0.345   1.589  10.769  0.2908  0.6942 -0.0578
  151SAPE   C1116698   0.530   1.697  10.703  0.4241 -0.1855  0.4067
  151SAPE  H11A16699   0.549   1.754  10.797  0.8405  1.3688 -0.5768
  151SAPE  H11B16700   0.463   1.757  10.639  0.0091 -1.1179 -0.0413
  151SAPE     P16701   0.731   1.805  10.586 -0.2475 -0.0886 -0.1166
  151SAPE   O1316702   0.688   1.917  10.671 -0.2587 -0.1674 -0.8292
  151SAPE   O1416703   0.877   1.781  10.574  0.3294 -0.0543  0.1932
  151SAPE   O1216704   0.650   1.669  10.631  0.4743  0.3872  0.0378
  151SAPE   O1116705   0.675   1.820  10.438 -0.1001  0.1768  0.0700
  151SAPE    C116706   0.710   1.720  10.347 -0.1040 -0.0497 -0.1501
  151SAPE    HA16707   0.812   1.747  10.312  0.2618 -0.5178  0.5278
  151SAPE    HB16708   0.729   1.623  10.397 -1.9284 -0.4184 -0.1035
  151SAPE    C216709   0.607   1.711  10.227  0.2068  0.3017  0.8018
  151SAPE    HS16710   0.648   1.638  10.155 -1.4419 -1.4631  1.5724
  151SAPE   O2116711   0.584   1.843  10.177 -0.0203 -0.2518 -0.0248
  151SAPE   C2116712   0.683   1.878  10.090 -0.3796 -0.1754  0.5167
  151SAPE   O2216713   0.771   1.799  10.057  0.1871  0.0326 -0.5670
  151SAPE   C2216714   0.663   2.021  10.040  0.2904  0.4409  0.2800
  151SAPE   H2R16715   0.557   2.021  10.007  0.4511  1.2528 -0.2842
  151SAPE   H2S16716   0.662   2.092  10.125 -0.9974  1.0880 -0.2448
  151SAPE    C316717   0.465   1.661  10.270  0.2464  0.4230 -0.1396
  151SAPE    HX16718   0.438   1.692  10.373  1.8732  2.3702 -0.2298
  151SAPE    HY16719   0.482   1.552  10.256  1.5372  0.3526  1.5745
  151SAPE   O3116720   0.358   1.699  10.171 -0.0890  0.0295 -0.4034
  151SAPE   C3116721   0.275   1.799  10.206 -0.0067  0.6738 -0.1590
  151SAPE   O3216722   0.273   1.864  10.310  0.1018  0.2122 -0.6977
  151SAPE   C3216723   0.188   1.828  10.083 -0.4962  0.8201  0.0972
  151SAPE   H2X16724   0.122   1.743  10.055 -0.0734  1.0012 -1.5401
  151SAPE   H2Y16725   0.252   1.844   9.994  0.8345  0.9276  1.0499
  151SAPE   C2316726   0.751   2.070   9.922  0.6406  0.7673 -0.2704
  151SAPE   H3R16727   0.771   1.989   9.849  1.4071 -0.0356  0.7975
  151SAPE   H3S16728   0.846   2.111   9.963  1.0905 -0.2084 -0.3137
  151SAPE   C2416729   0.698   2.192   9.846  0.0121  0.4267 -0.3182
  151SAPE   H4R16730   0.655   2.271   9.911 -0.7788  0.1304 -0.4654
  151SAPE   H4S16731   0.623   2.160   9.770 -0.2106 -1.8945  0.7775
  151SAPE   C2516732   0.803   2.267   9.769  0.2558  0.4064  0.2701
  151SAPE   H5R16733   0.874   2.321   9.833 -0.8251 -0.6849  2.4984
  151SAPE   C2616734   0.839   2.258   9.636 -0.5183  0.3207  0.9140
  151SAPE   H6R16735   0.924   2.320   9.606  0.7229 -1.6630  0.1968
  151SAPE   C2716736   0.778   2.169   9.520 -0.1029  0.2954 -0.3317
  151SAPE   H7R16737   0.822   2.204   9.424  1.5183  2.2665  1.0611
  151SAPE   H7S16738   0.670   2.193   9.524  0.2560  2.2206 -1.2758
  151SAPE   C2816739   0.806   2.021   9.538  0.8192 -0.3918  0.4064
  151SAPE   H8R16740   0.830   1.985   9.639  1.2114 -1.1891  0.0393
  151SAPE   C2916741   0.796   1.931   9.437  0.5401  0.6042 -0.1632
  151SAPE   H9R16742   0.805   1.824   9.464  0.3442  0.5682 -0.2427
  151SAPE  C21016743   0.762   1.959   9.293  0.1522  0.8123 -0.1934
  151SAPE  H10R16744   0.852   1.932   9.232  0.3059 -1.1262  0.8230
  151SAPE  H10S16745   0.743   2.066   9.269 -1.0160  0.8084  0.6905
  151SAPE  C21116746   0.636   1.876   9.246  0.0121 -0.5773  0.1803
  151SAPE  H11R16747   0.548   1.939   9.225 -1.0387 -1.9339  0.3527
  151SAPE  C21216748   0.620   1.748   9.224 -0.1742  0.4241  0.3962
  151SAPE  H12R16749   0.520   1.717   9.189 -0.3379  1.9935 -0.6359
  151SAPE  C21316750   0.727   1.640   9.249  0.3113  0.0161  0.2342
  151SAPE  H13R16751   0.825   1.684   9.220 -0.1918  1.3157  0.4416
  151SAPE  H13S16752   0.712   1.566   9.167 -0.8306  1.5493 -1.0107
  151SAPE  C21416753   0.751   1.575   9.381 -0.0206 -0.2335  0.1560
  151SAPE  H14R16754   0.698   1.631   9.460  1.2528  0.6342  0.4162
  151SAPE  C21516755   0.818   1.457   9.402  0.0674  0.6025  0.0834
  151SAPE  H15R16756   0.816   1.407   9.500  0.6828  3.0152  1.4132
  151SAPE  C21616757   0.896   1.396   9.284  0.0695 -0.0824  0.2789
  151SAPE  H16R16758   1.002   1.384   9.316 -0.3869 -0.0442  1.8371
  151SAPE  H16S16759   0.896   1.460   9.193 -0.1419 -0.5073 -0.0238
  151SAPE  C21716760   0.851   1.249   9.242 -0.0747  0.8294 -0.5493
  151SAPE  H17R16761   0.745   1.263   9.213  0.1588  0.8169 -1.4425
  151SAPE  H17S16762   0.867   1.177   9.326  0.9350 -0.1596 -1.5583
  151SAPE  C21816763   0.919   1.190   9.118  0.1923  0.9891 -0.3427
  151SAPE  H18R16764   1.030   1.197   9.124  0.3502  1.6286 -2.9341
  151SAPE  H18S16765   0.898   1.256   9.031 -1.4516  1.2577  0.2168
  151SAPE  C21916766   0.897   1.035   9.084 -0.0908 -0.4875 -0.5636
  151SAPE  H19R16767   0.789   1.013   9.073 -0.6297  2.1495 -1.2443
  151SAPE  H19S16768   0.936   0.982   9.174  0.1232  1.1682  0.3735
  151SAPE  C22016769   0.962   0.982   8.959  0.3790 -1.0538 -0.2279
  151SAPE  H20R16770   0.933   0.875   8.948  0.5565 -1.3048  1.5090
  151SAPE  H20S16771   1.073   0.996   8.961  0.0645  2.1319 -0.8458
  151SAPE  H20T16772   0.940   1.046   8.871  0.7737  0.4781  0.7518
  151SAPE   C3316773   0.114   1.959  10.102  0.0793  0.1009  0.1976
  151SAPE   H3X16774   0.062   1.954  10.201  0.6180  1.1877  0.5466
  151SAPE   H3Y16775   0.033   1.966  10.027  1.6930 -0.0642 -1.6248
  151SAPE   C3416776   0.192   2.085  10.106  0.1195  0.3250 -0.1243
  151SAPE   H4X16777   0.296   2.068  10.142  0.2620 -0.6966 -0.9727
  151SAPE   H4Y16778   0.141   2.159  10.170  1.6133  0.7698  0.5906
  151SAPE   C3516779   0.184   2.166   9.974 -0.0634 -0.9981  0.1366
  151SAPE   H5X16780   0.089   2.220   9.955  0.0880 -0.7966 -0.0552
  151SAPE   H5Y16781   0.195   2.081   9.904  0.3717 -2.5292  1.9835
  151SAPE   C3616782   0.304   2.264   9.957 -0.8254 -0.1050  0.1474
  151SAPE   H6X16783   0.396   2.206   9.934 -0.0617  1.5186 -1.1181
  151SAPE   H6Y16784   0.315   2.321  10.052 -0.4409 -1.6996  1.1035
  151SAPE   C3716785   0.291   2.367   9.842 -0.9737  0.0269 -0.0411
  151SAPE   H7X16786   0.185   2.401   9.832 -1.2539 -0.7497  0.2145
  151SAPE   H7Y16787   0.310   2.302   9.754  2.4968 -1.8277  1.8910
  151SAPE   C3816788   0.390   2.478   9.844 -0.0099 -0.3271 -0.4804
  151SAPE   H8X16789   0.477   2.427   9.890 -0.5743  1.3160  2.7056
  151SAPE   H8Y16790   0.353   2.562   9.906  1.0837  1.1504 -1.7528
  151SAPE   C3916791   0.429   2.537   9.710 -0.9958  0.5128  0.3249
  151SAPE   H9X16792   0.479   2.636   9.713 -1.3634  0.8595 -2.3474
  151SAPE   H9Y16793   0.332   2.549   9.657 -0.5748 -1.6662 -1.0854
  151SAPE  C31016794   0.533   2.457   9.629  0.1323 -0.5579 -0.3239
  151SAPE  H10X16795   0.493   2.355   9.609 -2.8179  0.8363 -2.2351
  151SAPE  H10Y16796   0.628   2.433   9.682 -0.0770  0.0793  0.3529
  151SAPE  C31116797   0.548   2.515   9.485  0.3418 -0.4954  0.3252
  151SAPE  H11X16798   0.606   2.609   9.483 -0.6810  0.1424 -0.6891
  151SAPE  H11Y16799   0.449   2.538   9.440  0.6584 -1.6924 -1.0830
  151SAPE  C31216800   0.637   2.445   9.382 -0.1854 -0.2708 -0.2534
  151SAPE  H12X16801   0.591   2.347   9.358  0.1148 -0.7616  1.0784
  151SAPE  H12Y16802   0.737   2.436   9.429  0.1932  0.7576 -0.8240
  151SAPE  C31316803   0.654   2.531   9.253 -0.4065 -0.0004  0.0543
  151SAPE  H13X16804   0.722   2.616   9.277 -0.3846  0.1386 -0.4841
  151SAPE  H13Y16805   0.555   2.575   9.227 -0.5875  0.6600  1.7395
  151SAPE  C31416806   0.710   2.450   9.138 -0.9272 -0.5958 -0.7278
  151SAPE  H14X16807   0.635   2.370   9.122  0.2633 -3.2464  4.5103
  151SAPE  H14Y16808   0.797   2.391   9.174  0.3221  1.1555 -0.7609
  151SAPE  C31516809   0.743   2.533   9.013  0.0582  0.8379  0.3316
  151SAPE  H15X16810   0.814   2.614   9.041 -0.0924  0.6689  1.2350
  151SAPE  H15Y16811   0.653   2.589   8.980 -1.7448 -1.8940  0.3325
  151SAPE  C31616812   0.806   2.451   8.893  0.3273  0.3837  1.0452
  151SAPE  H16X16813   0.768   2.349   8.913  1.0370 -0.0196  0.3891
  151SAPE  H16Y16814   0.917   2.455   8.890  0.5078 -2.5982 -0.4086
  151SAPE  C31716815   0.752   2.488   8.752 -0.4518  0.0205 -0.0944
  151SAPE  H17X16816   0.796   2.583   8.715 -0.1953 -0.4955 -1.1420
  151SAPE  H17Y16817   0.644   2.509   8.771 -0.5252  2.5362 -2.6230
  151SAPE  C31816818   0.781   2.368   8.660  0.3456 -0.5476 -0.4388
  151SAPE  H18X16819   0.726   2.277   8.694 -1.4161  0.8442  0.6434
  151SAPE  H18Y16820   0.888   2.340   8.653  0.5810  0.4550 -1.0340
  151SAPE  H18Z16821   0.758   2.400   8.556 -0.4706  0.5344  0.0524
  152SAPE     N16822   3.147   2.091  10.605  0.0329 -0.7891 -0.2898
  152SAPE   HN116823   3.233   2.063  10.656  1.1413  1.4440 -0.7898
  152SAPE   HN216824   3.155   2.190  10.574  2.2926 -1.1732 -1.1213
  152SAPE   HN316825   3.065   2.076  10.668  0.3977 -0.9274  0.1562
  152SAPE   C1216826   3.123   1.992  10.492  0.4438  0.1765 -0.0573
  152SAPE  H12A16827   3.123   1.889  10.534 -0.2489 -0.7050 -2.0849
  152SAPE  H12B16828   3.209   1.995  10.421 -0.0804 -0.2933 -0.7312
  152SAPE   C1116829   2.992   2.005  10.406 -0.6085  0.2537  0.6745
  152SAPE  H11A16830   2.982   1.926  10.329 -2.9055  1.1679 -0.0491
  152SAPE  H11B16831   2.999   2.104  10.355  0.6290  0.4720  1.2449
  152SAPE     P16832   2.800   1.885  10.537  0.0426 -0.4170  0.3510
  152SAPE   O1316833   2.891   1.789  10.603 -0.2837  0.6672 -0.0714
  152SAPE   O1416834   2.678   1.928  10.607 -0.2134 -0.6218 -0.4242
  152SAPE   O1216835   2.885   2.009  10.493  0.2358 -0.7071  0.5649
  152SAPE   O1116836   2.761   1.833  10.391 -0.2177 -0.6988  0.0564
  152SAPE    C116837   2.637   1.884  10.343  0.1033  0.4552 -0.5885
  152SAPE    HA16838   2.558   1.830  10.399 -0.0897  2.2251  0.9159
  152SAPE    HB16839   2.620   1.992  10.362  0.8154  0.5538 -0.4821
  152SAPE    C216840   2.620   1.860  10.180  0.5554 -0.8915 -0.5994
  152SAPE    HS16841   2.673   1.764  10.163  3.1789  0.4418 -0.5001
  152SAPE   O2116842   2.699   1.971  10.130 -0.0460  0.0988 -0.2908
  152SAPE   C2116843   2.763   1.930  10.014 -0.5709 -0.2614 -0.6540
  152SAPE   O2216844   2.754   1.821   9.960 -0.5556  0.0015  0.0193
  152SAPE   C2216845   2.837   2.045   9.956  0.5602  0.2261  0.2913
  152SAPE   H2R16846   2.763   2.124   9.934  0.8217  0.2416 -0.5543
  152SAPE   H2S16847   2.906   2.082  10.035 -2.3748  3.5309  1.5615
  152SAPE    C316848   2.481   1.853  10.124  0.5588  0.0890 -0.2872
  152SAPE    HX16849   2.425   1.948  10.136 -1.3288 -1.1267  1.1977
  152SAPE    HY16850   2.421   1.776  10.177  0.1361 -0.1979 -1.1570
  152SAPE   O3116851   2.484   1.817   9.983 -0.2138  0.1012 -0.0404
  152SAPE   C3116852   2.491   1.689   9.949 -0.0915 -0.0521 -0.8633
  152SAPE   O3216853   2.511   1.603  10.034  0.3948  0.3670  0.2469
  152SAPE   C3216854   2.469   1.676   9.797 -0.0347 -0.4501 -0.0937
  152SAPE   H2X16855   2.529   1.750   9.740  0.0477  0.0662  0.6442
  152SAPE   H2Y16856   2.362   1.695   9.777  0.1475  0.0885 -0.5682
  152SAPE   C2316857   2.901   2.012   9.820  0.6153 -0.2527 -0.3023
  152SAPE   H3R16858   2.830   1.950   9.761  0.1010 -1.2244  1.2665
  152SAPE   H3S16859   2.989   1.946   9.836  0.4650 -0.7840 -1.5406
  152SAPE   C2416860   2.958   2.136   9.753 -0.4446  0.1645 -0.0598
  152SAPE   H4R16861   3.036   2.175   9.821 -0.3324  1.0177 -0.6664
  152SAPE   H4S16862   2.878   2.212   9.759 -0.9116 -0.3494  0.3748
  152SAPE   C2516863   3.040   2.108   9.628  0.0829 -0.3666  0.0348
  152SAPE   H5R16864   3.138   2.058   9.638  1.4229  1.8490 -1.1591
  152SAPE   C2616865   3.006   2.155   9.508  0.5677  0.5793  0.2788
  152SAPE   H6R16866   3.078   2.132   9.428  1.2232  1.3043  0.6489
  152SAPE   C2716867   2.886   2.238   9.466  0.3284  0.1629 -0.2956
  152SAPE   H7R16868   2.906   2.347   9.481 -0.2499  0.1341  0.7543
  152SAPE   H7S16869   2.804   2.228   9.539  1.2230 -1.0307  0.5701
  152SAPE   C2816870   2.820   2.210   9.332 -0.8427 -0.2341 -0.6128
  152SAPE   H8R16871   2.719   2.167   9.344 -1.5851  1.6096  0.1261
  152SAPE   C2916872   2.870   2.226   9.213 -0.1378 -0.4032  0.2779
  152SAPE   H9R16873   2.811   2.197   9.125  1.2276  1.2208 -1.2481
  152SAPE  C21016874   3.003   2.274   9.185 -0.6469  0.1172 -0.2537
  152SAPE  H10R16875   3.076   2.223   9.251 -2.4977 -1.8211  0.4180
  152SAPE  H10S16876   3.000   2.383   9.206 -0.2158  0.2965 -1.0855
  152SAPE  C21116877   3.042   2.249   9.037  1.2688 -0.1928  0.1795
  152SAPE  H11R16878   3.037   2.145   9.001  1.2309 -0.6152  1.3631
  152SAPE  C21216879   3.070   2.343   8.950  0.3116 -0.8042  0.8128
  152SAPE  H12R16880   3.096   2.314   8.847  1.8655 -0.4355  1.0698
  152SAPE  C21316881   3.057   2.492   8.964  0.2281  0.1122 -0.6527
  152SAPE  H13R16882   3.154   2.545   8.973  0.4517 -0.3368 -0.4295
  152SAPE  H13S16883   3.010   2.503   9.064 -0.7945 -4.1257 -0.5129
  152SAPE  C21416884   2.957   2.566   8.878  0.0293  0.7138  0.6182
  152SAPE  H14R16885   2.851   2.550   8.901  0.1175 -3.6723 -1.0328
  152SAPE  C21516886   2.983   2.634   8.766 -0.7403  0.8255  0.2705
  152SAPE  H15R16887   2.900   2.683   8.712 -0.7191  0.2038 -0.3349
  152SAPE  C21616888   3.123   2.652   8.711 -0.1380 -0.5009 -0.5177
  152SAPE  H16R16889   3.146   2.574   8.635 -1.5361 -0.5596 -0.9091
  152SAPE  H16S16890   3.196   2.649   8.795 -2.1507  1.7446  1.4873
  152SAPE  C21716891   3.139   2.786   8.631 -0.1148 -0.1012 -1.0060
  152SAPE  H17R16892   3.044   2.796   8.574  0.0036 -2.6833 -1.7898
  152SAPE  H17S16893   3.232   2.774   8.573  0.3383 -1.0981 -0.0979
  152SAPE  C21816894   3.154   2.895   8.728 -0.0749 -0.2940 -0.2127
  152SAPE  H18R16895   3.242   2.874   8.792 -0.0779 -0.7965 -0.3661
  152SAPE  H18S16896   3.065   2.908   8.793 -0.4217 -4.8639  0.5413
  152SAPE  C21916897   3.172   3.028   8.658  1.1131  0.9375 -0.6677
  152SAPE  H19R16898   3.268   3.037   8.602  0.8513  0.3242 -1.2275
  152SAPE  H19S16899   3.163   3.105   8.737 -1.0066  0.3019 -0.2310
  152SAPE  C22016900   3.059   3.062   8.564  0.3035  0.3145  1.1702
  152SAPE  H20R16901   2.964   3.017   8.598  0.2824  0.3880  1.2079
  152SAPE  H20S16902   3.071   3.029   8.458  1.2788  0.7514  1.1324
  152SAPE  H20T16903   3.047   3.173   8.565  1.7252  0.5586 -0.8885
  152SAPE   C3316904   2.500   1.534   9.746 -0.0759  0.2991  1.0667
  152SAPE   H3X16905   2.453   1.516   9.647  0.2764  0.5557  0.8473
  152SAPE   H3Y16906   2.454   1.460   9.815  0.1256 -1.8496 -0.9698
  152SAPE   C3416907   2.646   1.492   9.742  0.1970 -0.4807 -0.0377
  152SAPE   H4X16908   2.653   1.384   9.718  1.2000 -0.8266  1.6680
  152SAPE   H4Y16909   2.673   1.491   9.850 -2.0526  0.1405  0.6053
  152SAPE   C3516910   2.746   1.577   9.664  0.8419 -0.6890  0.5339
  152SAPE   H5X16911   2.845   1.532   9.687  1.7218  2.4926  3.7733
  152SAPE   H5Y16912   2.754   1.675   9.715 -0.9018 -0.6258  0.7407
  152SAPE   C3616913   2.711   1.593   9.521 -0.2916 -0.1318  0.3337
  152SAPE   H6X16914   2.615   1.650   9.515  1.1497  2.3806 -0.1528
  152SAPE   H6Y16915   2.696   1.498   9.465 -3.8680  0.0392  0.7261
  152SAPE   C3716916   2.800   1.687   9.438 -0.3633  0.2852 -0.3242
  152SAPE   H7X16917   2.901   1.641   9.445 -0.2574  0.3738 -1.1964
  152SAPE   H7Y16918   2.803   1.785   9.491  1.5644 -0.3910  0.9097
  152SAPE   C3816919   2.758   1.700   9.291 -1.1773  0.1574  0.1667
  152SAPE   H8X16920   2.727   1.599   9.256  2.4708 -1.4768  1.1263
  152SAPE   H8Y16921   2.843   1.738   9.230 -1.4054 -0.2343 -0.3951
  152SAPE   C3916922   2.645   1.809   9.257 -0.3884 -0.3477 -0.4256
  152SAPE   H9X16923   2.699   1.906   9.251  1.4755 -1.1670  1.5517
  152SAPE   H9Y16924   2.583   1.809   9.349  0.4982  1.7588  0.2431
  152SAPE  C31016925   2.566   1.781   9.123 -1.0039  0.2400 -0.5735
  152SAPE  H10X16926   2.651   1.753   9.057  0.1763  1.7696  0.2349
  152SAPE  H10Y16927   2.509   1.867   9.082 -2.9798  0.1706  1.7925
  152SAPE  C31116928   2.469   1.665   9.142  0.7227 -0.3654 -0.2267
  152SAPE  H11X16929   2.385   1.708   9.201  3.6910  1.5294  2.9409
  152SAPE  H11Y16930   2.505   1.578   9.202  4.2892  0.7845 -0.5208
  152SAPE  C31216931   2.401   1.602   9.028 -0.0695 -0.9003  0.0020
  152SAPE  H12X16932   2.358   1.676   8.957  0.1979 -0.1243  0.6466
  152SAPE  H12Y16933   2.321   1.547   9.083 -0.1291  1.2003  2.1488
  152SAPE  C31316934   2.505   1.514   8.952 -0.3365 -0.0784 -0.2763
  152SAPE  H13X16935   2.554   1.439   9.017 -2.1744 -0.1271  1.1184
  152SAPE  H13Y16936   2.590   1.572   8.912  0.8380  0.2958  2.5683
  152SAPE  C31416937   2.434   1.446   8.831  0.1145  0.3307 -0.2055
  152SAPE  H14X16938   2.361   1.523   8.798 -0.1979  0.0133 -0.2605
  152SAPE  H14Y16939   2.383   1.353   8.865 -1.5511  2.2408  2.9504
  152SAPE  C31516940   2.527   1.403   8.714  0.0009  0.2577 -0.1633
  152SAPE  H15X16941   2.610   1.347   8.763  0.7850  1.9895  0.5851
  152SAPE  H15Y16942   2.573   1.495   8.672 -0.8635  0.6121 -0.3443
  152SAPE  C31616943   2.450   1.351   8.596 -0.5259  0.0732 -0.0577
  152SAPE  H16X16944   2.345   1.388   8.590 -1.3013 -2.0508 -0.4384
  152SAPE  H16Y16945   2.426   1.243   8.606  3.1761 -0.8969 -0.3134
  152SAPE  C31716946   2.536   1.361   8.471 -0.3334 -0.0144  0.3472
  152SAPE  H17X16947   2.612   1.283   8.491  0.9369  1.0844 -0.0590
  152SAPE  H17Y16948   2.589   1.459   8.468 -0.7993  0.2330 -0.1086
  152SAPE  C31816949   2.459   1.338   8.339 -0.2449 -0.1330  1.0853
  152SAPE  H18X16950   2.519   1.315   8.249  0.5521  0.3134  1.4953
  152SAPE  H18Y16951   2.383   1.418   8.325 -0.4040 -0.6551 -1.5255
  152SAPE  H18Z16952   2.399   1.244   8.343  3.0714 -2.4005  2.0328
  153SAPE     N16953   0.129   3.790  10.700 -0.6272  0.3463 -0.1560
  153SAPE   HN116954   0.165   3.788  10.797  1.2565 -0.4206 -0.8224
  153SAPE   HN216955   0.032   3.828  10.695 -0.4733  0.6205 -1.2854
  153SAPE   HN316956   0.130   3.691  10.668  0.3881 -0.2494  1.5697
  153SAPE   C1216957   0.226   3.874  10.639  0.1978 -0.1092  0.5697
  153SAPE  H12A16958   0.236   3.968  10.698  1.5271  2.0424 -2.7601
  153SAPE  H12B16959   0.198   3.898  10.534  0.5839 -0.3044  0.4172
  153SAPE   C1116960   0.361   3.802  10.635 -0.1392  0.0824  0.5293
  153SAPE  H11A16961   0.413   3.798  10.733  0.2607  3.6688  0.5820
  153SAPE  H11B16962   0.424   3.875  10.581  1.7416  0.3840  2.9620
  153SAPE     P16963   0.416   3.547  10.612 -0.2651 -0.1966  0.4800
  153SAPE   O1316964   0.387   3.534  10.756 -0.3814  0.4402 -0.1605
  153SAPE   O1416965   0.361   3.434  10.527 -0.2360 -0.3474 -0.4033
  153SAPE   O1216966   0.357   3.682  10.558 -0.0789  0.1573  0.4263
  153SAPE   O1116967   0.568   3.562  10.607 -0.0828  0.0150 -0.0984
  153SAPE    C116968   0.637   3.636  10.506 -0.3612 -0.7188  0.3233
  153SAPE    HA16969   0.579   3.722  10.467  1.8326  0.9324  0.5552
  153SAPE    HB16970   0.728   3.688  10.543  1.2138 -3.0415 -0.0677
  153SAPE    C216971   0.697   3.560  10.383  0.3585 -0.3617 -0.1192
  153SAPE    HS16972   0.727   3.639  10.311 -1.4497  0.8957  0.4153
  153SAPE   O2116973   0.598   3.472  10.324 -0.2507 -0.0778  0.2543
  153SAPE   C2116974   0.514   3.532  10.240  0.0884 -0.7795 -0.1526
  153SAPE   O2216975   0.513   3.650  10.216 -0.7686  0.2276  0.3591
  153SAPE   C2216976   0.424   3.428  10.185  0.4496 -0.3178 -0.3930
  153SAPE   H2R16977   0.395   3.364  10.270 -1.9278  0.7243 -0.3394
  153SAPE   H2S16978   0.327   3.475  10.155 -0.7719 -1.6446  1.2915
  153SAPE    C316979   0.827   3.475  10.421  1.4763 -0.2978  0.5448
  153SAPE    HX16980   0.802   3.411  10.509  0.1704  0.5043  0.7875
  153SAPE    HY16981   0.906   3.550  10.440  0.2437  1.0829  0.3680
  153SAPE   O3116982   0.877   3.398  10.303  0.4485  0.2290 -0.1206
  153SAPE   C3116983   0.821   3.278  10.294 -0.0387 -0.0495 -0.5807
  153SAPE   O3216984   0.734   3.232  10.364  0.0130  0.3947  0.0133
  153SAPE   C3216985   0.884   3.210  10.170  0.1019 -0.1917 -0.6548
  153SAPE   H2X16986   0.816   3.123  10.166  1.3807 -1.3378  0.9128
  153SAPE   H2Y16987   0.987   3.186  10.203  0.2400  2.4737  1.2620
  153SAPE   C2316988   0.501   3.345  10.082 -0.0500 -0.3494  0.2660
  153SAPE   H3R16989   0.450   3.257  10.037  0.3231 -1.1067  1.3145
  153SAPE   H3S16990   0.594   3.300  10.121  0.0021 -2.0929 -1.7074
  153SAPE   C2416991   0.533   3.432   9.953 -1.0597  0.0191  0.1012
  153SAPE   H4R16992   0.593   3.376   9.877 -1.7954 -1.3617  0.4988
  153SAPE   H4S16993   0.613   3.503   9.983 -1.2176  0.0264  0.5017
  153SAPE   C2516994   0.420   3.508   9.890  0.9355  0.0052 -0.3331
  153SAPE   H5R16995   0.384   3.600   9.937 -0.6598  1.2104 -3.6350
  153SAPE   C2616996   0.381   3.485   9.766 -0.6115  0.0943 -0.6728
  153SAPE   H6R16997   0.299   3.551   9.735 -0.6396  0.3856  0.0048
  153SAPE   C2716998   0.422   3.376   9.665  0.7878  0.0912 -0.4737
  153SAPE   H7R16999   0.336   3.354   9.598  0.1965  1.0724 -0.0583
  153SAPE   H7S17000   0.438   3.282   9.722  2.5631 -1.1719 -2.8510
  153SAPE   C2817001   0.547   3.413   9.579 -0.3278 -0.4191 -0.1881
  153SAPE   H8R17002   0.623   3.470   9.634  1.3032 -2.5985 -0.0638
  153SAPE   C2917003   0.566   3.396   9.450 -0.3616  0.1162 -0.5060
  153SAPE   H9R17004   0.663   3.419   9.404  1.1191  0.0283  2.3388
  153SAPE  C21017005   0.460   3.339   9.363 -0.8543 -0.1580  0.2498
  153SAPE  H10R17006   0.398   3.259   9.411  1.1958 -3.7602 -2.5586
  153SAPE  H10S17007   0.502   3.294   9.270  0.4427  1.1575  0.1687
  153SAPE  C21117008   0.356   3.442   9.321  0.2040  0.1464 -0.3633
  153SAPE  H11R17009   0.301   3.488   9.405  1.0363  0.1459  0.1964
  153SAPE  C21217010   0.306   3.474   9.202 -0.0082  0.7792  0.0968
  153SAPE  H12R17011   0.229   3.552   9.198 -0.4776  0.4073  1.4509
  153SAPE  C21317012   0.347   3.400   9.074  0.6836 -0.2684  0.2651
  153SAPE  H13R17013   0.405   3.308   9.094 -0.8603 -1.3892 -0.3015
  153SAPE  H13S17014   0.398   3.468   9.002  1.2572  0.6745  1.5224
  153SAPE  C21417015   0.212   3.377   9.007  0.0101  0.2748 -0.2906
  153SAPE  H14R17016   0.177   3.274   9.022  0.4839 -0.0662 -1.4279
  153SAPE  C21517017   0.137   3.461   8.936  0.1979  0.2690 -0.0576
  153SAPE  H15R17018   0.044   3.419   8.894  0.3545 -0.1224 -0.0147
  153SAPE  C21617019   0.170   3.602   8.889 -0.0144  0.4047 -0.1798
  153SAPE  H16R17020   0.253   3.652   8.943  0.5083 -0.5635 -0.0817
  153SAPE  H16S17021   0.090   3.679   8.900  1.5564  2.1300 -0.3939
  153SAPE  C21717022   0.187   3.586   8.733 -0.0533  0.2849 -0.4704
  153SAPE  H17R17023   0.272   3.520   8.702 -1.8848 -1.1440 -2.8046
  153SAPE  H17S17024   0.216   3.688   8.699 -1.8041  1.5186  1.5098
  153SAPE  C21817025   0.063   3.543   8.656 -0.5808  0.2286 -0.2692
  153SAPE  H18R17026  -0.034   3.580   8.696 -1.1270 -2.7061  1.4703
  153SAPE  H18S17027   0.056   3.432   8.653  2.0767  0.0047  0.0370
  153SAPE  C21917028   0.084   3.591   8.511 -0.3360  0.1965 -0.0227
  153SAPE  H19R17029   0.167   3.533   8.465  0.7599  0.6227  1.3402
  153SAPE  H19S17030   0.115   3.698   8.509 -0.8202  0.3300 -1.2303
  153SAPE  C22017031  -0.031   3.555   8.423  0.0952  0.0686  0.3351
  153SAPE  H20R17032  -0.057   3.447   8.428 -0.0306  0.1101  0.6192
  153SAPE  H20S17033  -0.003   3.578   8.318 -0.8712 -0.4545 -0.0473
  153SAPE  H20T17034  -0.118   3.618   8.451  0.1598  1.2927 -1.9639
  153SAPE   C3317035   0.885   3.290  10.042  0.1189 -0.3996 -0.2153
  153SAPE   H3X17036   0.965   3.366  10.033 -0.2732 -0.0390 -0.6896
  153SAPE   H3Y17037   0.791   3.343  10.016  0.7645  0.5066 -0.7877
  153SAPE   C3417038   0.922   3.204   9.925  0.4448  0.3837  0.2548
  153SAPE   H4X17039   0.851   3.118   9.929 -0.5639  1.1971  0.2083
  153SAPE   H4Y17040   1.031   3.184   9.930  0.7050  1.8690  1.0250
  153SAPE   C3517041   0.905   3.286   9.791 -0.5302  0.0066 -0.1530
  153SAPE   H5X17042   0.994   3.352   9.784  1.5515 -2.5920  0.3795
  153SAPE   H5Y17043   0.812   3.346   9.781  0.6931  2.1850  0.9282
  153SAPE   C3617044   0.909   3.186   9.672  0.3449 -0.5892 -0.6496
  153SAPE   H6X17045   0.823   3.117   9.682 -0.4612  0.5162  0.3981
  153SAPE   H6Y17046   0.996   3.122   9.698  0.5765  0.9311  2.9064
  153SAPE   C3717047   0.909   3.261   9.540 -0.0305 -0.2400  0.7716
  153SAPE   H7X17048   1.001   3.323   9.527 -0.5442  0.1169 -1.4460
  153SAPE   H7Y17049   0.827   3.336   9.542 -2.5000 -2.7885  1.9199
  153SAPE   C3817050   0.900   3.165   9.420 -1.1126  0.1937  0.1179
  153SAPE   H8X17051   0.793   3.165   9.390 -0.9524  1.2485 -0.4736
  153SAPE   H8Y17052   0.920   3.061   9.455 -0.5824 -1.1048 -3.6242
  153SAPE   C3917053   0.978   3.201   9.292  0.4263  0.0144 -0.7744
  153SAPE   H9X17054   1.008   3.108   9.238 -3.0735 -1.9809  0.3815
  153SAPE   H9Y17055   1.072   3.242   9.335  0.2964 -1.8749  1.5289
  153SAPE  C31017056   0.910   3.297   9.202 -0.3999 -0.0017 -0.1106
  153SAPE  H10X17057   0.897   3.391   9.260  1.0564  1.1584 -1.6061
  153SAPE  H10Y17058   0.816   3.245   9.175  0.4660 -1.8287  0.2135
  153SAPE  C31117059   1.000   3.330   9.076  0.1126  0.6292 -0.1079
  153SAPE  H11X17060   1.021   3.242   9.010  2.7397  0.9343  0.2245
  153SAPE  H11Y17061   1.095   3.375   9.112  0.2184 -0.4576  1.0358
  153SAPE  C31217062   0.935   3.438   8.981 -0.3479  0.7602  0.3377
  153SAPE  H12X17063   1.012   3.486   8.917 -0.5434  0.5403 -0.0707
  153SAPE  H12Y17064   0.908   3.527   9.043  1.3915  1.1380  0.5977
  153SAPE  C31317065   0.818   3.387   8.897  0.1836  0.0760 -1.0422
  153SAPE  H13X17066   0.743   3.346   8.968  1.2260 -1.6089 -0.8582
  153SAPE  H13Y17067   0.848   3.310   8.823 -1.2660 -0.1912 -1.3727
  153SAPE  C31417068   0.752   3.503   8.815 -1.1421  0.5641 -0.1143
  153SAPE  H14X17069   0.824   3.588   8.815  2.4695 -2.2439  0.9447
  153SAPE  H14Y17070   0.658   3.539   8.863 -2.0806  1.6263 -2.5534
  153SAPE  C31517071   0.706   3.454   8.678  0.0502 -0.1388  0.3325
  153SAPE  H15X17072   0.679   3.347   8.687  0.1293 -0.2178 -0.3133
  153SAPE  H15Y17073   0.788   3.462   8.603 -0.5035 -0.6280 -0.3445
  153SAPE  C31617074   0.587   3.546   8.626 -0.0016 -0.3762  0.1345
  153SAPE  H16X17075   0.627   3.648   8.605 -0.6466  0.0584  0.9545
  153SAPE  H16Y17076   0.513   3.557   8.709 -0.5271  0.8392 -0.4694
  153SAPE  C31717077   0.518   3.488   8.503 -0.1212 -0.0684 -0.3636
  153SAPE  H17X17078   0.414   3.525   8.489  0.2805  1.2933  0.0916
  153SAPE  H17Y17079   0.516   3.379   8.521  4.4412 -0.3685 -0.4479
  153SAPE  C31817080   0.591   3.511   8.376  0.0461 -0.2144 -0.3464
  153SAPE  H18X17081   0.693   3.467   8.378  0.3859  0.5019 -1.2075
  153SAPE  H18Y17082   0.607   3.621   8.368 -1.4148  0.1254  0.9445
  153SAPE  H18Z17083   0.539   3.468   8.287 -1.7965  0.1162  0.5186
  154SAPE     N17084   2.256   2.364  10.558  0.4285  0.3857 -0.2405
  154SAPE   HN117085   2.203   2.426  10.494 -1.3839 -1.6446 -0.8372
  154SAPE   HN217086   2.359   2.357  10.542  0.5520 -2.5999  1.0340
  154SAPE   HN317087   2.231   2.267  10.529 -1.6709  0.3909  1.3316
  154SAPE   C1217088   2.196   2.395  10.691  0.4081 -0.5559  0.2845
  154SAPE  H12A17089   2.245   2.482  10.739  0.5943  0.6453 -1.9574
  154SAPE  H12B17090   2.201   2.311  10.764 -0.5202 -1.0775 -0.2300
  154SAPE   C1117091   2.049   2.431  10.667 -0.7259 -0.3433  0.9941
  154SAPE  H11A17092   1.995   2.457  10.760 -1.8848  1.1271 -0.0542
  154SAPE  H11B17093   1.994   2.350  10.615 -0.1603  0.2408 -0.5855
  154SAPE     P17094   2.042   2.694  10.626  0.0641  0.3568 -0.2278
  154SAPE   O1317095   1.907   2.718  10.694  0.3418 -0.6293 -0.1929
  154SAPE   O1417096   2.161   2.716  10.711 -0.2674  0.3370 -0.3944
  154SAPE   O1217097   2.051   2.542  10.578 -0.1029  0.1187 -0.6286
  154SAPE   O1117098   2.060   2.781  10.494 -0.2242 -0.3143 -0.0696
  154SAPE    C117099   1.953   2.822  10.422  1.0743 -0.3696  0.7660
  154SAPE    HA17100   1.880   2.739  10.408  1.9786 -1.3538  1.6763
  154SAPE    HB17101   1.900   2.905  10.471 -0.9375 -1.3362  0.3216
  154SAPE    C217102   1.984   2.869  10.278  0.2327  0.3639 -0.0000
  154SAPE    HS17103   1.889   2.908  10.235 -0.3205 -1.9974 -1.0875
  154SAPE   O2117104   2.016   2.761  10.189 -0.0026 -0.1619  0.1250
  154SAPE   C2117105   1.912   2.706  10.136  0.2371  0.7144 -0.9458
  154SAPE   O2217106   1.793   2.730  10.153  0.1465 -0.1915  0.1481
  154SAPE   C2217107   1.960   2.597  10.043  0.2607 -0.9354  0.3390
  154SAPE   H2R17108   2.034   2.638   9.972  0.7687 -0.3304  1.1946
  154SAPE   H2S17109   2.007   2.519  10.106  0.6609 -0.6854  0.3532
  154SAPE    C317110   2.100   2.971  10.273 -0.8381  0.4948  0.0692
  154SAPE    HX17111   2.197   2.917  10.275 -1.0928  0.0560  0.9326
  154SAPE    HY17112   2.100   3.023  10.371  0.2434 -1.3971  1.1332
  154SAPE   O3117113   2.106   3.054  10.156  0.3568  0.5134 -0.4298
  154SAPE   C3117114   2.169   3.165  10.164 -0.5134 -0.9763 -0.1043
  154SAPE   O3217115   2.198   3.237  10.257  0.4950  0.4687 -0.5626
  154SAPE   C3217116   2.213   3.199  10.028 -0.0008 -0.5468  0.0415
  154SAPE   H2X17117   2.154   3.138   9.955  0.6271  0.8420 -1.6939
  154SAPE   H2Y17118   2.322   3.179  10.017  0.0305  0.2746 -1.3116
  154SAPE   C2317119   1.845   2.535   9.952 -0.1138  0.4096 -1.1625
  154SAPE   H3R17120   1.801   2.623   9.900 -4.6601 -0.5800  0.5813
  154SAPE   H3S17121   1.756   2.496  10.006  0.7824 -0.3760 -0.1996
  154SAPE   C2417122   1.885   2.433   9.841 -0.0152  0.9594  0.4400
  154SAPE   H4R17123   1.954   2.362   9.891 -0.9322  0.2169  0.6879
  154SAPE   H4S17124   1.951   2.480   9.765  0.0459  0.2931  0.0648
  154SAPE   C2517125   1.774   2.356   9.776 -0.0897 -0.4863  0.6749
  154SAPE   H5R17126   1.703   2.302   9.840 -1.1852  0.2824  0.1501
  154SAPE   C2617127   1.754   2.328   9.643 -0.5690 -0.2493 -0.4981
  154SAPE   H6R17128   1.657   2.278   9.625 -0.3965 -1.3654  1.4108
  154SAPE   C2717129   1.834   2.376   9.525 -0.0520  0.7035  0.2801
  154SAPE   H7R17130   1.891   2.287   9.490 -0.6780  0.2382  0.4331
  154SAPE   H7S17131   1.900   2.462   9.549  0.5594  0.3325 -0.0450
  154SAPE   C2817132   1.730   2.421   9.436  0.4064 -1.0007  0.9343
  154SAPE   H8R17133   1.662   2.497   9.476  0.7993 -0.1356  0.0220
  154SAPE   C2917134   1.714   2.392   9.306 -0.2522  0.1428  0.3952
  154SAPE   H9R17135   1.630   2.441   9.255  0.1338  2.0126  1.4945
  154SAPE  C21017136   1.804   2.307   9.218 -0.1086 -0.1830 -0.2311
  154SAPE  H10R17137   1.890   2.264   9.274  2.2911  1.2050 -2.6098
  154SAPE  H10S17138   1.864   2.374   9.153 -0.2733  0.0381 -0.1527
  154SAPE  C21117139   1.740   2.195   9.143  0.5470  0.4417  0.0806
  154SAPE  H11R17140   1.682   2.125   9.205 -1.0033  1.5552 -0.0404
  154SAPE  C21217141   1.740   2.176   9.012  0.3540 -0.1496  0.1207
  154SAPE  H12R17142   1.689   2.084   8.979  1.0045 -0.8531  1.0093
  154SAPE  C21317143   1.795   2.264   8.900 -0.6321  0.1104  0.7437
  154SAPE  H13R17144   1.881   2.319   8.941 -0.6667  1.6668 -1.0961
  154SAPE  H13S17145   1.716   2.338   8.875  0.5608  0.4717 -2.4862
  154SAPE  C21417146   1.839   2.189   8.776 -0.5370 -0.2685 -0.2423
  154SAPE  H14R17147   1.774   2.100   8.777 -2.2804  0.8456  3.3234
  154SAPE  C21517148   1.927   2.214   8.677 -0.2311  0.0417  0.6300
  154SAPE  H15R17149   1.949   2.148   8.592  2.0542  1.4618  0.0274
  154SAPE  C21617150   1.996   2.347   8.650  1.1742  0.2094  0.1725
  154SAPE  H16R17151   1.950   2.427   8.712 -4.3170 -1.6255 -0.9929
  154SAPE  H16S17152   1.994   2.375   8.543  1.9598  3.2282  0.8555
  154SAPE  C21717153   2.146   2.339   8.689  0.4743 -0.4287 -0.6044
  154SAPE  H17R17154   2.196   2.253   8.641  0.1896 -0.8705 -0.1209
  154SAPE  H17S17155   2.141   2.329   8.800 -1.8495  3.1606 -0.2209
  154SAPE  C21817156   2.221   2.459   8.637 -0.2315  0.2827  0.1695
  154SAPE  H18R17157   2.180   2.552   8.682  1.0521  0.7151  0.4899
  154SAPE  H18S17158   2.202   2.481   8.530  1.5462 -1.4451 -0.5477
  154SAPE  C21917159   2.373   2.468   8.666 -0.3466 -0.8729  0.7780
  154SAPE  H19R17160   2.420   2.369   8.649 -1.7928 -1.3640 -0.7100
  154SAPE  H19S17161   2.375   2.493   8.774 -1.0544 -1.5412  0.9529
  154SAPE  C22017162   2.439   2.566   8.573 -0.3489  0.0073  0.1929
  154SAPE  H20R17163   2.545   2.585   8.603 -1.2386  1.0357  3.0182
  154SAPE  H20S17164   2.393   2.667   8.581  0.8162  0.5828 -0.1426
  154SAPE  H20T17165   2.441   2.535   8.467 -2.0672  0.1749  0.0924
  154SAPE   C3317166   2.188   3.350   9.993 -0.1374  0.1371 -0.6547
  154SAPE   H3X17167   2.258   3.411  10.055 -0.6328  0.2517 -0.1969
  154SAPE   H3Y17168   2.083   3.374  10.021  0.2265 -1.6927  2.9718
  154SAPE   C3417169   2.223   3.391   9.846  0.5398 -0.3433  0.0891
  154SAPE   H4X17170   2.323   3.348   9.825  1.4544  1.3423  0.7598
  154SAPE   H4Y17171   2.224   3.502   9.849 -1.1045 -0.2591 -1.1795
  154SAPE   C3517172   2.104   3.361   9.744 -0.4440 -0.4623  0.4434
  154SAPE   H5X17173   2.003   3.391   9.779 -0.5302  0.6886 -0.7522
  154SAPE   H5Y17174   2.093   3.251   9.738  1.3728 -0.6515 -0.2055
  154SAPE   C3617175   2.131   3.411   9.602  0.1865  0.0296  0.0077
  154SAPE   H6X17176   2.222   3.365   9.559 -0.6839 -0.3820 -1.4530
  154SAPE   H6Y17177   2.125   3.522   9.590 -2.1524  0.0657  1.0138
  154SAPE   C3717178   2.023   3.367   9.504 -0.1346  0.2073 -0.1823
  154SAPE   H7X17179   1.922   3.395   9.541  0.3693  2.2221 -0.1973
  154SAPE   H7Y17180   2.027   3.257   9.493 -3.0635  0.1239 -1.1396
  154SAPE   C3817181   2.038   3.428   9.366  0.2267 -0.3509 -0.0548
  154SAPE   H8X17182   2.140   3.434   9.324 -0.4485  1.7666 -1.5482
  154SAPE   H8Y17183   2.000   3.531   9.385  1.1597  0.5021 -2.3945
  154SAPE   C3917184   1.956   3.362   9.258 -0.5250  0.2186  0.7194
  154SAPE   H9X17185   1.847   3.356   9.276 -1.2939 -1.2848 -3.3749
  154SAPE   H9Y17186   1.990   3.257   9.254  2.2064  1.0145  0.5300
  154SAPE  C31017187   1.987   3.413   9.117 -0.1222  0.0396  0.5322
  154SAPE  H10X17188   2.077   3.477   9.130 -1.1107  2.1776 -2.3045
  154SAPE  H10Y17189   1.900   3.468   9.077 -0.2586  0.2222  1.0728
  154SAPE  C31117190   2.022   3.294   9.034 -0.0108 -0.1392  0.0828
  154SAPE  H11X17191   1.945   3.215   9.048 -0.6028  0.3567 -0.3453
  154SAPE  H11Y17192   2.112   3.237   9.069 -1.1255 -3.2827 -1.7412
  154SAPE  C31217193   2.038   3.337   8.890 -0.3464 -0.2001 -0.2539
  154SAPE  H12X17194   2.130   3.399   8.886 -0.4812 -0.0011 -0.3652
  154SAPE  H12Y17195   1.952   3.398   8.855  0.3304 -0.6634 -2.9667
  154SAPE  C31317196   2.059   3.217   8.790 -0.3851  0.3235 -0.3974
  154SAPE  H13X17197   2.047   3.259   8.687  0.6023 -0.7764 -0.9740
  154SAPE  H13Y17198   1.979   3.141   8.804 -2.1222  1.6430 -2.4498
  154SAPE  C31417199   2.194   3.152   8.809 -0.8944 -0.7196 -0.0452
  154SAPE  H14X17200   2.205   3.117   8.914  1.4762  0.6168  0.2106
  154SAPE  H14Y17201   2.270   3.232   8.799  0.2217 -1.8052 -0.5564
  154SAPE  C31517202   2.229   3.044   8.703  0.0886  0.0477 -0.4522
  154SAPE  H15X17203   2.208   3.095   8.606 -2.8673 -2.1272 -1.1160
  154SAPE  H15Y17204   2.148   2.968   8.711 -0.9414  1.0014 -1.4214
  154SAPE  C31617205   2.369   2.981   8.701 -0.3638  0.4353  0.5119
  154SAPE  H16X17206   2.356   2.910   8.617 -1.8591 -0.4417  1.4364
  154SAPE  H16Y17207   2.384   2.924   8.795 -0.6038  0.2370  0.4306
  154SAPE  C31717208   2.483   3.078   8.677  0.7784 -0.0383 -0.1196
  154SAPE  H17X17209   2.587   3.039   8.681  0.7014 -0.2415 -0.0748
  154SAPE  H17Y17210   2.478   3.165   8.745 -1.2509 -0.3377  0.1885
  154SAPE  C31817211   2.465   3.143   8.537  0.0431 -0.2329 -0.0777
  154SAPE  H18X17212   2.549   3.215   8.530  0.0463 -0.1440  0.8194
  154SAPE  H18Y17213   2.372   3.204   8.530 -0.9101 -1.5943  0.2264
  154SAPE  H18Z17214   2.467   3.076   8.448  1.4837  0.1134 -0.3217
  155SAPE     N17215   3.377   4.959  10.775  0.0742  0.0686 -0.1611
  155SAPE   HN117216   3.404   5.054  10.808  0.9546  0.2308 -1.2930
  155SAPE   HN217217   3.460   4.923  10.723 -2.4452 -0.4510 -4.2373
  155SAPE   HN317218   3.298   4.978  10.710 -0.0343  1.3085  0.3102
  155SAPE   C1217219   3.334   4.872  10.891 -0.5793  0.4627  0.0586
  155SAPE  H12A17220   3.301   4.939  10.973 -2.3044  1.1677 -1.1393
  155SAPE  H12B17221   3.428   4.824  10.924 -1.6329 -0.9856  1.0911
  155SAPE   C1117222   3.221   4.785  10.840 -0.2232 -0.0467 -0.3678
  155SAPE  H11A17223   3.240   4.735  10.743 -1.5536 -2.9083  0.7364
  155SAPE  H11B17224   3.133   4.850  10.825  0.3833  0.9156  0.1331
  155SAPE     P17225   3.180   4.543  10.919  0.1196  0.3823  0.1540
  155SAPE   O1317226   3.295   4.490  10.842 -0.0728 -0.4912  0.4765
  155SAPE   O1417227   3.164   4.474  11.050  0.2745  0.5441 -0.0822
  155SAPE   O1217228   3.203   4.695  10.952 -0.1460  0.5726 -0.6782
  155SAPE   O1117229   3.039   4.530  10.840  0.0657 -0.1030 -0.1457
  155SAPE    C117230   3.031   4.551  10.701  0.1640  0.2410  0.6156
  155SAPE    HA17231   2.987   4.650  10.677  2.0710  1.1881  0.8374
  155SAPE    HB17232   3.131   4.561  10.654 -0.0832  0.4759  0.1350
  155SAPE    C217233   2.941   4.438  10.642  0.5150 -0.4620 -0.4553
  155SAPE    HS17234   3.002   4.345  10.637  0.7986 -0.4222  1.4538
  155SAPE   O2117235   2.883   4.473  10.515 -0.3759  0.5031  0.1676
  155SAPE   C2117236   2.979   4.477  10.425 -0.4652  0.0418 -0.2175
  155SAPE   O2217237   3.095   4.447  10.436  0.7740  0.3148 -1.0714
  155SAPE   C2217238   2.909   4.543  10.302 -0.2062 -0.3755 -0.5350
  155SAPE   H2R17239   2.802   4.511  10.301 -0.5494  0.4908  1.7810
  155SAPE   H2S17240   2.904   4.652  10.321 -0.7009 -0.5871  0.6867
  155SAPE    C317241   2.827   4.390  10.730 -0.2257 -0.0007  0.3838
  155SAPE    HX17242   2.759   4.477  10.724  0.7458  0.7302 -0.2641
  155SAPE    HY17243   2.854   4.373  10.837 -3.1858 -1.4693  1.0231
  155SAPE   O3117244   2.761   4.272  10.671 -0.1581  0.1613  0.4205
  155SAPE   C3117245   2.826   4.155  10.687 -0.3953  0.1665 -0.7009
  155SAPE   O3217246   2.927   4.141  10.757 -0.2470  0.2732 -0.3699
  155SAPE   C3217247   2.738   4.045  10.624  0.5016  0.5685  0.9818
  155SAPE   H2X17248   2.633   4.065  10.653 -0.6180 -2.5358 -0.4751
  155SAPE   H2Y17249   2.774   3.946  10.659  1.6936  1.2522  1.7635
  155SAPE   C2317250   2.979   4.513  10.169 -0.2203  0.1582  0.6844
  155SAPE   H3R17251   2.908   4.491  10.087  2.5605  0.3426 -1.9479
  155SAPE   H3S17252   3.048   4.426  10.178 -0.4238 -0.0363  0.3751
  155SAPE   C2417253   3.061   4.637  10.128  0.0761 -0.2074 -0.2798
  155SAPE   H4R17254   3.143   4.650  10.202  0.6479  0.8788 -1.0719
  155SAPE   H4S17255   3.011   4.735  10.112  1.7441  0.7018 -0.2167
  155SAPE   C2517256   3.144   4.604  10.011  0.5490 -0.4321  0.5203
  155SAPE   H5R17257   3.240   4.555  10.036  1.4772  1.2853  0.4736
  155SAPE   C2617258   3.089   4.616   9.893  0.0209  0.6551  0.8755
  155SAPE   H6R17259   3.143   4.574   9.807  1.4270  0.5413  1.7665
  155SAPE   C2717260   2.948   4.661   9.854  0.3660 -0.1206  0.7697
  155SAPE   H7R17261   2.881   4.601   9.920  0.2693  2.6357  3.4261
  155SAPE   H7S17262   2.931   4.629   9.749  1.2264  1.5868  0.0812
  155SAPE   C2817263   2.907   4.808   9.872 -0.1656  0.6651 -0.4768
  155SAPE   H8R17264   2.960   4.849   9.959  4.8584 -1.8385 -1.9915
  155SAPE   C2917265   2.838   4.884   9.793  0.7854 -0.7625 -0.2549
  155SAPE   H9R17266   2.826   4.988   9.827 -1.0169 -1.3072  0.8966
  155SAPE  C21017267   2.766   4.846   9.666  0.4702  0.1871  0.4154
  155SAPE  H10R17268   2.656   4.849   9.680 -0.2176 -2.4241 -2.8773
  155SAPE  H10S17269   2.782   4.739   9.641  1.4873 -0.3054  2.9441
  155SAPE  C21117270   2.805   4.941   9.552 -0.6776  0.0283  0.2101
  155SAPE  H11R17271   2.912   4.934   9.526 -0.3239 -0.3904  1.6983
  155SAPE  C21217272   2.720   5.020   9.474 -0.1017  0.9431 -0.3926
  155SAPE  H12R17273   2.771   5.074   9.392 -0.7513 -0.5850 -1.8763
  155SAPE  C21317274   2.570   5.031   9.480 -0.5932 -0.3124 -0.7689
  155SAPE  H13R17275   2.551   5.130   9.528  0.2166 -0.4759 -0.0810
  155SAPE  H13S17276   2.514   4.956   9.541 -0.8201 -0.5904 -1.3188
  155SAPE  C21417277   2.506   5.038   9.348 -0.1671  0.8182  0.0001
  155SAPE  H14R17278   2.504   5.135   9.296 -0.8454 -0.3941 -2.3546
  155SAPE  C21517279   2.469   4.935   9.271 -0.7376 -0.4356 -0.3128
  155SAPE  H15R17280   2.428   4.956   9.171  1.0557  1.3309 -0.7372
  155SAPE  C21617281   2.477   4.791   9.298 -0.2721 -0.4022  0.3093
  155SAPE  H16R17282   2.371   4.756   9.296 -0.5171  0.3162  0.1272
  155SAPE  H16S17283   2.515   4.775   9.401 -0.7782 -2.8915  0.1663
  155SAPE  C21717284   2.568   4.727   9.189  0.2344 -0.4322  0.3452
  155SAPE  H17R17285   2.600   4.627   9.223  0.5718 -0.8181 -1.0622
  155SAPE  H17S17286   2.660   4.790   9.189 -0.1674  0.1978  1.6595
  155SAPE  C21817287   2.506   4.714   9.050 -0.7993  0.1578 -0.5029
  155SAPE  H18R17288   2.475   4.812   9.007  0.7358  0.3210 -1.3211
  155SAPE  H18S17289   2.418   4.648   9.068  1.0368 -2.3587 -0.1428
  155SAPE  C21917290   2.599   4.646   8.947 -0.6710 -0.1730 -0.8129
  155SAPE  H19R17291   2.692   4.705   8.942 -0.7026 -0.1985 -2.2574
  155SAPE  H19S17292   2.558   4.647   8.843 -0.4093 -0.3498 -0.9189
  155SAPE  C22017293   2.644   4.499   8.964  0.1468 -0.2601 -0.1244
  155SAPE  H20R17294   2.696   4.486   9.062  1.8807  1.0971 -0.8214
  155SAPE  H20S17295   2.708   4.477   8.876 -0.0177  2.4183 -0.9977
  155SAPE  H20T17296   2.559   4.427   8.962  1.4339 -1.9117  1.2718
  155SAPE   C3317297   2.731   4.057  10.473 -0.3107 -0.2660 -0.1172
  155SAPE   H3X17298   2.696   4.156  10.435  0.7193  0.7421  1.4492
  155SAPE   H3Y17299   2.648   3.989  10.443 -1.1102  0.5241  0.2605
  155SAPE   C3417300   2.863   4.014  10.402  0.3628  0.2868  0.7127
  155SAPE   H4X17301   2.833   3.955  10.313  1.0341 -0.4781  0.9813
  155SAPE   H4Y17302   2.915   3.936  10.461 -1.7523 -0.8581  1.1473
  155SAPE   C3517303   2.973   4.115  10.371  0.5309  0.2277  0.1614
  155SAPE   H5X17304   2.982   4.169  10.468  0.6641 -1.3599  1.0713
  155SAPE   H5Y17305   2.940   4.186  10.292 -0.4773 -0.5202 -0.1069
  155SAPE   C3617306   3.114   4.070  10.338  0.2457  0.3353  0.2723
  155SAPE   H6X17307   3.147   3.995  10.413  1.9767  1.1831  0.4295
  155SAPE   H6Y17308   3.183   4.157  10.340 -0.8398  1.1914  1.2311
  155SAPE   C3717309   3.124   3.999  10.197 -0.1400 -0.4359  0.1215
  155SAPE   H7X17310   3.073   4.067  10.125 -0.5346  0.6991  1.4295
  155SAPE   H7Y17311   3.057   3.911  10.203  1.9378 -2.0561  0.6290
  155SAPE   C3817312   3.268   3.954  10.164 -0.3533 -0.1286 -0.4227
  155SAPE   H8X17313   3.307   3.883  10.240 -0.1054 -0.0909 -0.5115
  155SAPE   H8Y17314   3.331   4.046  10.166  2.7972 -2.1099 -0.8982
  155SAPE   C3917315   3.285   3.888  10.030  0.5203  0.2741  0.6050
  155SAPE   H9X17316   3.199   3.819  10.016 -0.7209  1.7914  0.5479
  155SAPE   H9Y17317   3.379   3.829  10.028  0.1147 -0.3702 -0.3712
  155SAPE  C31017318   3.276   3.988   9.913 -0.7518 -0.5784  0.4110
  155SAPE  H10X17319   3.361   4.058   9.926 -0.3108 -0.7600 -1.2589
  155SAPE  H10Y17320   3.179   4.042   9.923 -0.2179  0.2897  1.0440
  155SAPE  C31117321   3.288   3.905   9.779  0.6775  0.3499  0.5233
  155SAPE  H11X17322   3.209   3.826   9.778 -0.0683  0.9316  3.1952
  155SAPE  H11Y17323   3.387   3.857   9.788  0.4514  0.0727  1.7149
  155SAPE  C31217324   3.300   3.991   9.652 -0.1960 -0.1126 -0.8248
  155SAPE  H12X17325   3.388   4.060   9.653  0.3894 -0.7662 -2.6378
  155SAPE  H12Y17326   3.213   4.059   9.644 -0.2774 -0.3736 -2.3778
  155SAPE  C31317327   3.316   3.918   9.520 -0.1277  0.1266 -0.0449
  155SAPE  H13X17328   3.243   3.835   9.509  2.5386 -2.3093 -0.2886
  155SAPE  H13Y17329   3.417   3.873   9.512  0.0539  0.6388 -0.7961
  155SAPE  C31417330   3.318   4.007   9.402  0.0530  0.7347  0.4540
  155SAPE  H14X17331   3.343   3.950   9.309  0.3261  0.4549  0.6957
  155SAPE  H14Y17332   3.401   4.079   9.416 -0.3853  0.9089  2.4800
  155SAPE  C31517333   3.187   4.078   9.379  0.1893 -0.0558  0.1962
  155SAPE  H15X17334   3.168   4.148   9.464 -1.8051 -0.0762 -0.1772
  155SAPE  H15Y17335   3.101   4.007   9.380  0.0935  0.0623  1.1889
  155SAPE  C31617336   3.186   4.154   9.245  0.4745 -0.1919 -0.7548
  155SAPE  H16X17337   3.197   4.076   9.167 -0.8110  1.4290 -2.6768
  155SAPE  H16Y17338   3.276   4.219   9.246 -0.1048  0.6527 -1.2691
  155SAPE  C31717339   3.054   4.228   9.220  0.1648 -0.4449 -0.6821
  155SAPE  H17X17340   3.052   4.322   9.279  0.0582 -0.1338 -1.1759
  155SAPE  H17Y17341   2.963   4.169   9.241 -1.0972  0.8507 -2.2261
  155SAPE  C31817342   3.050   4.276   9.075 -0.4824 -0.2737 -0.4464
  155SAPE  H18X17343   2.966   4.348   9.063 -0.7651 -0.7001 -1.0540
  155SAPE  H18Y17344   3.038   4.192   9.003  0.2965  0.2830 -1.2455
  155SAPE  H18Z17345   3.140   4.336   9.051 -0.4214 -0.5459 -0.9001
  156SAPE     N17346   1.395   2.290  10.518  0.0219 -0.5085 -0.3845
  156SAPE   HN117347   1.383   2.385  10.479 -0.3706 -0.5670 -0.4157
  156SAPE   HN217348   1.313   2.287  10.583 -1.4732  2.2417 -1.9793
  156SAPE   HN317349   1.480   2.284  10.578 -1.8904  0.3607  2.6708
  156SAPE   C1217350   1.396   2.173  10.434  0.8488 -0.2585  0.0359
  156SAPE  H12A17351   1.487   2.169  10.371  2.3985 -0.1975  2.1666
  156SAPE  H12B17352   1.308   2.176  10.367  2.0430 -0.5126 -1.5782
  156SAPE   C1117353   1.387   2.051  10.526  0.1375 -0.5356  0.8429
  156SAPE  H11A17354   1.364   1.957  10.472 -2.3853  0.3077  0.3210
  156SAPE  H11B17355   1.302   2.060  10.597 -0.7951 -0.0876 -0.3069
  156SAPE     P17356   1.617   1.941  10.559  0.2557  0.1556  0.3292
  156SAPE   O1317357   1.681   2.000  10.440  0.0993  0.5814 -0.0785
  156SAPE   O1417358   1.698   1.929  10.681  0.4891 -0.1895 -0.6719
  156SAPE   O1217359   1.508   2.045  10.603  0.1317  0.1622  0.1128
  156SAPE   O1117360   1.539   1.804  10.525 -0.2269  0.1688  0.0811
  156SAPE    C117361   1.608   1.679  10.492 -0.6855 -0.8602  0.0224
  156SAPE    HA17362   1.718   1.694  10.497 -0.4897 -1.2560 -2.1219
  156SAPE    HB17363   1.569   1.587  10.542 -2.3031 -0.5757 -0.6674
  156SAPE    C217364   1.583   1.645  10.342  0.4877 -0.7934 -0.4108
  156SAPE    HS17365   1.648   1.565  10.299 -2.0314 -0.9508 -4.5709
  156SAPE   O2117366   1.600   1.758  10.249  0.6025 -0.2401 -0.0495
  156SAPE   C2117367   1.724   1.792  10.216  0.2817  1.0674  0.5329
  156SAPE   O2217368   1.825   1.736  10.259 -0.5633 -0.0377  0.2400
  156SAPE   C2217369   1.731   1.918  10.135 -1.2245 -0.1963  0.5689
  156SAPE   H2R17370   1.700   1.887  10.033  3.9683 -3.0139 -0.5152
  156SAPE   H2S17371   1.659   1.993  10.174  0.3471  1.3124  0.7098
  156SAPE    C317372   1.436   1.601  10.327 -0.4947 -0.4322 -0.2457
  156SAPE    HX17373   1.363   1.677  10.364 -0.8968 -0.7656 -0.3548
  156SAPE    HY17374   1.431   1.512  10.393  0.9283 -0.2773  0.1050
  156SAPE   O3117375   1.409   1.567  10.187  0.2328  0.6270  0.1283
  156SAPE   C3117376   1.454   1.448  10.152 -1.0352 -0.1598 -0.3826
  156SAPE   O3217377   1.498   1.359  10.221  0.4307  0.3439 -0.9461
  156SAPE   C3217378   1.463   1.433   9.999 -0.4204 -0.0905  0.1766
  156SAPE   H2X17379   1.360   1.431   9.959 -0.6236  2.1652  0.4361
  156SAPE   H2Y17380   1.508   1.335   9.975  3.0880  1.5083 -0.4177
  156SAPE   C2317381   1.876   1.974  10.127  0.0331 -0.8084 -0.1329
  156SAPE   H3R17382   1.953   1.902  10.091  1.4589  1.2254 -1.3276
  156SAPE   H3S17383   1.908   2.005  10.228 -0.4622 -2.1129  0.4588
  156SAPE   C2417384   1.891   2.103  10.042 -0.6580 -0.3040 -0.2177
  156SAPE   H4R17385   1.820   2.184  10.070 -0.7410 -0.0230 -1.1990
  156SAPE   H4S17386   1.871   2.087   9.934  2.3973 -0.6484 -0.8170
  156SAPE   C2517387   2.034   2.143  10.058 -0.1386  0.0567  0.7617
  156SAPE   H5R17388   2.070   2.182  10.154  1.2239  0.4315  0.1305
  156SAPE   C2617389   2.121   2.119   9.960  0.1069 -0.3841  0.2194
  156SAPE   H6R17390   2.225   2.155   9.966 -0.2403  0.6881  0.0842
  156SAPE   C2717391   2.105   2.050   9.828  0.0292 -1.2330  0.4574
  156SAPE   H7R17392   2.017   1.982   9.830 -1.5666  0.7013 -0.5000
  156SAPE   H7S17393   2.188   1.977   9.820  0.2744 -0.8071 -1.0748
  156SAPE   C2817394   2.088   2.138   9.705  0.1249  0.6565  0.2138
  156SAPE   H8R17395   2.040   2.235   9.722 -0.0649  1.0587 -2.2150
  156SAPE   C2917396   2.109   2.102   9.573 -0.0749 -0.8319 -0.1526
  156SAPE   H9R17397   2.113   2.185   9.501  1.6017 -0.7775 -0.0475
  156SAPE  C21017398   2.174   1.969   9.530 -0.4362 -0.3546 -0.4090
  156SAPE  H10R17399   2.220   1.915   9.616 -0.8764 -0.1518 -0.0408
  156SAPE  H10S17400   2.255   1.990   9.458  0.4945 -0.9681  0.4293
  156SAPE  C21117401   2.058   1.902   9.460  0.3469  0.1181  0.0995
  156SAPE  H11R17402   1.986   1.856   9.529  0.7916 -1.4741 -0.4413
  156SAPE  C21217403   2.046   1.868   9.327  0.0760 -0.1702  0.4768
  156SAPE  H12R17404   1.950   1.829   9.290  0.9335 -0.7709 -1.2234
  156SAPE  C21317405   2.141   1.903   9.221 -0.1128  0.1909 -0.0121
  156SAPE  H13R17406   2.161   1.811   9.163 -2.2839  0.5236 -1.4362
  156SAPE  H13S17407   2.237   1.944   9.259  0.4962  0.3855 -1.6468
  156SAPE  C21417408   2.090   2.012   9.130 -0.2633  0.3537 -0.3189
  156SAPE  H14R17409   2.053   2.104   9.177  0.1090  0.6132 -0.5274
  156SAPE  C21517410   2.107   2.015   8.997 -0.3999  0.2853 -0.1714
  156SAPE  H15R17411   2.066   2.096   8.934  1.1534  0.5569 -0.8805
  156SAPE  C21617412   2.167   1.900   8.915  0.7203 -0.1523  0.0784
  156SAPE  H16R17413   2.154   1.803   8.967 -0.3769 -0.2002 -0.2638
  156SAPE  H16S17414   2.277   1.916   8.903  1.2031 -2.8237  0.3568
  156SAPE  C21717415   2.104   1.883   8.776  0.5828  0.0526  0.6466
  156SAPE  H17R17416   2.111   1.976   8.715  1.8581  0.0122  0.6998
  156SAPE  H17S17417   1.997   1.858   8.792  0.8400 -3.4550 -1.8983
  156SAPE  C21817418   2.163   1.771   8.690  0.1564 -0.5599 -0.9535
  156SAPE  H18R17419   2.091   1.730   8.616  0.9171  0.1486 -2.1186
  156SAPE  H18S17420   2.191   1.701   8.772 -2.2901  0.1453  0.5822
  156SAPE  C21917421   2.285   1.826   8.622 -0.0534  1.1634  0.0743
  156SAPE  H19R17422   2.346   1.881   8.696  0.2920  0.0803  0.6096
  156SAPE  H19S17423   2.257   1.887   8.533  0.3282 -0.2809 -1.0609
  156SAPE  C22017424   2.371   1.721   8.559 -0.2716 -0.1509 -0.0987
  156SAPE  H20R17425   2.459   1.753   8.501 -0.9651 -0.2256 -1.2346
  156SAPE  H20S17426   2.303   1.672   8.485 -0.6428  1.6049 -0.9745
  156SAPE  H20T17427   2.409   1.648   8.633  1.8545  1.8956  0.9328
  156SAPE   C3317428   1.556   1.532   9.932 -1.2213 -0.1664 -0.0139
  156SAPE   H3X17429   1.648   1.542   9.994 -0.9192  0.6452 -0.5698
  156SAPE   H3Y17430   1.502   1.629   9.927 -2.1247 -0.6993 -0.9153
  156SAPE   C3417431   1.612   1.485   9.799 -0.2965  0.0258  0.1960
  156SAPE   H4X17432   1.648   1.380   9.809 -0.7932 -0.1274  0.4269
  156SAPE   H4Y17433   1.700   1.547   9.773 -2.5953  3.4033 -0.2006
  156SAPE   C3517434   1.517   1.502   9.684  0.7756  0.0928  0.6480
  156SAPE   H5X17435   1.496   1.612   9.682 -1.1073 -0.2322 -1.0130
  156SAPE   H5Y17436   1.419   1.459   9.715  0.4364 -0.3146 -0.9130
  156SAPE   C3617437   1.569   1.459   9.551  0.2141  0.9012 -1.0787
  156SAPE   H6X17438   1.617   1.363   9.576 -0.1147  1.2278  0.9096
  156SAPE   H6Y17439   1.646   1.533   9.521  2.5080 -0.0360  1.9824
  156SAPE   C3717440   1.454   1.442   9.450  0.5709 -0.4638  0.5492
  156SAPE   H7X17441   1.389   1.531   9.437  0.7831 -0.1238  1.6672
  156SAPE   H7Y17442   1.389   1.362   9.491 -0.1239 -0.3749 -0.3504
  156SAPE   C3817443   1.510   1.399   9.316 -0.1558  0.0146 -0.1358
  156SAPE   H8X17444   1.583   1.319   9.338  2.1879  2.0525 -0.1161
  156SAPE   H8Y17445   1.574   1.480   9.275  0.4062 -1.3905 -2.1361
  156SAPE   C3917446   1.398   1.362   9.226  0.5897  0.4107  0.5265
  156SAPE   H9X17447   1.323   1.443   9.239 -0.7747 -0.5795 -0.8463
  156SAPE   H9Y17448   1.336   1.273   9.248 -0.4453  0.8846 -0.3830
  156SAPE  C31017449   1.435   1.364   9.073  0.0802  0.8167  0.3246
  156SAPE  H10X17450   1.514   1.291   9.048  0.0012  0.9979 -0.4759
  156SAPE  H10Y17451   1.473   1.463   9.042 -1.2087  0.5444 -2.3996
  156SAPE  C31117452   1.316   1.320   8.989  0.8501  0.2767  0.2196
  156SAPE  H11X17453   1.285   1.217   9.016  1.9713 -0.1808 -0.1653
  156SAPE  H11Y17454   1.338   1.321   8.880 -1.3143 -1.6359 -0.3105
  156SAPE  C31217455   1.198   1.417   9.003 -0.2223  0.1863  0.4851
  156SAPE  H12X17456   1.239   1.519   9.021  1.1990 -0.3697  0.5902
  156SAPE  H12Y17457   1.149   1.387   9.098  0.5586 -0.8054  0.5964
  156SAPE  C31317458   1.092   1.406   8.891 -0.0601 -0.4493  0.1104
  156SAPE  H13X17459   1.000   1.440   8.943  0.7769 -0.3678  1.5860
  156SAPE  H13Y17460   1.083   1.300   8.859 -1.8120 -0.1620 -0.4614
  156SAPE  C31417461   1.126   1.491   8.763  0.2235 -0.1877  0.0877
  156SAPE  H14X17462   1.227   1.468   8.723  0.3327  1.3550 -0.6357
  156SAPE  H14Y17463   1.126   1.599   8.789  0.8192 -0.7911  2.8226
  156SAPE  C31517464   1.023   1.451   8.656  0.1147 -0.0973  0.6741
  156SAPE  H15X17465   1.024   1.341   8.637 -0.7146  0.4426 -3.2539
  156SAPE  H15Y17466   1.066   1.493   8.563  1.3319 -2.9029 -0.1336
  156SAPE  C31617467   0.884   1.505   8.674  0.5173  0.0388 -0.5254
  156SAPE  H16X17468   0.881   1.616   8.666 -0.5151 -0.0479 -1.5107
  156SAPE  H16Y17469   0.843   1.473   8.772  0.1096 -0.1400 -0.7532
  156SAPE  C31717470   0.787   1.441   8.571 -0.4728  0.3012  0.0368
  156SAPE  H17X17471   0.798   1.334   8.599  1.0516 -0.0168 -1.6282
  156SAPE  H17Y17472   0.837   1.446   8.472 -0.7403 -1.2906 -0.1915
  156SAPE  C31817473   0.644   1.495   8.565  0.6402 -0.0276 -0.2365
  156SAPE  H18X17474   0.632   1.599   8.529 -2.0243 -0.5596 -1.1071
  156SAPE  H18Y17475   0.595   1.497   8.665 -0.0763  0.6657 -0.5900
  156SAPE  H18Z17476   0.578   1.439   8.496  0.2641  0.1060  0.0093
  157SAPE     N17477   0.842   0.582  10.799  0.2541  0.4548  0.9146
  157SAPE   HN117478   0.810   0.513  10.870 -1.0012 -0.5371 -0.5534
  157SAPE   HN217479   0.946   0.572  10.809  0.7837  0.3906 -3.0222
  157SAPE   HN317480   0.833   0.682  10.823  2.0686  1.0300 -0.5577
  157SAPE   C1217481   0.794   0.553  10.664 -0.6136  0.2495  0.7336
  157SAPE  H12A17482   0.828   0.630  10.592 -0.2250  1.6864  2.3762
  157SAPE  H12B17483   0.683   0.552  10.668 -0.6240 -1.8747  0.6922
  157SAPE   C1117484   0.860   0.427  10.607  0.3567  0.2933 -0.6384
  157SAPE  H11A17485   0.833   0.410  10.501 -1.7823 -1.8486  0.1623
  157SAPE  H11B17486   0.827   0.337  10.664 -0.2524  0.6859 -0.3671
  157SAPE     P17487   1.111   0.499  10.543 -0.0938 -0.0390 -0.0385
  157SAPE   O1317488   1.112   0.640  10.593 -0.5085 -0.4849  0.1364
  157SAPE   O1417489   1.235   0.419  10.557  0.2899  0.0903  0.1320
  157SAPE   O1217490   0.999   0.424  10.631  0.0122  0.3281 -0.8348
  157SAPE   O1117491   1.055   0.499  10.394 -0.3019 -0.4957  0.0185
  157SAPE    C117492   1.110   0.430  10.287 -0.9613 -0.2045  0.1671
  157SAPE    HA17493   1.160   0.336  10.318  0.9996  1.0785  1.1245
  157SAPE    HB17494   1.033   0.404  10.212 -0.1859 -1.7372 -0.1299
  157SAPE    C217495   1.223   0.510  10.213 -0.1873  0.2071  0.0514
  157SAPE    HS17496   1.299   0.541  10.287 -0.3652  1.5275 -0.2895
  157SAPE   O2117497   1.168   0.624  10.156 -0.0846  0.6977 -0.0867
  157SAPE   C2117498   1.250   0.727  10.129 -0.2455  0.4060 -0.2305
  157SAPE   O2217499   1.367   0.739  10.167  0.3195  0.0325  0.1521
  157SAPE   C2217500   1.178   0.837  10.041  1.0649 -0.4476  0.1657
  157SAPE   H2R17501   1.191   0.811   9.934 -0.3197 -2.8708  0.5036
  157SAPE   H2S17502   1.068   0.827  10.059  0.5734  0.9562 -1.8176
  157SAPE    C317503   1.306   0.418  10.117 -0.3051 -0.2889 -0.5539
  157SAPE    HX17504   1.357   0.335  10.170 -3.6662 -1.5203  1.0083
  157SAPE    HY17505   1.379   0.483  10.064 -0.3160  0.8955  0.8262
  157SAPE   O3117506   1.216   0.346  10.024 -0.0367  0.1407 -0.1053
  157SAPE   C3117507   1.226   0.394   9.898  0.8744  0.2442 -0.1611
  157SAPE   O3217508   1.281   0.497   9.865  0.3668  0.3681  0.1561
  157SAPE   C3217509   1.164   0.301   9.790 -0.4953 -0.3285 -1.0711
  157SAPE   H2X17510   1.097   0.226   9.839 -1.6899 -0.4464 -2.8009
  157SAPE   H2Y17511   1.243   0.228   9.761  0.4990  0.5344 -0.5683
  157SAPE   C2317512   1.218   0.982  10.072  0.9251  0.2494  0.0280
  157SAPE   H3R17513   1.328   0.997  10.081  0.9106  0.7794 -0.6145
  157SAPE   H3S17514   1.161   1.022  10.158 -0.2076  0.3584 -0.7600
  157SAPE   C2417515   1.176   1.088   9.960  0.1658  0.8114  0.3951
  157SAPE   H4R17516   1.222   1.055   9.864 -1.1237  0.1404 -0.0168
  157SAPE   H4S17517   1.227   1.184   9.984 -1.0203  1.0411  2.1475
  157SAPE   C2517518   1.021   1.108   9.949 -0.1215  0.5559  0.5798
  157SAPE   H5R17519   0.972   1.144  10.041 -0.1773 -0.2854  0.8896
  157SAPE   C2617520   0.957   1.090   9.833  0.3855  0.5868  0.1956
  157SAPE   H6R17521   0.847   1.097   9.843  0.5426  0.8212  2.3162
  157SAPE   C2717522   0.996   1.051   9.694 -0.1866 -0.0663  0.2745
  157SAPE   H7R17523   0.910   1.019   9.632 -0.6204  3.0319 -0.9369
  157SAPE   H7S17524   1.075   0.973   9.693 -1.0134 -0.9240 -1.0726
  157SAPE   C2817525   1.044   1.175   9.615 -0.2468  0.1189 -0.0830
  157SAPE   H8R17526   1.048   1.273   9.665 -1.1285 -0.0106  0.2532
  157SAPE   C2917527   1.104   1.159   9.497  0.4808 -0.1980  0.3323
  157SAPE   H9R17528   1.141   1.252   9.452 -3.3395  2.0583  1.3506
  157SAPE  C21017529   1.109   1.031   9.419 -0.0428 -0.0508  0.1647
  157SAPE  H10R17530   1.001   1.005   9.409  0.1483 -1.2121  0.9362
  157SAPE  H10S17531   1.150   0.948   9.480  1.8531 -0.5232 -1.6539
  157SAPE  C21117532   1.179   1.025   9.285 -0.4648  0.0827 -0.7330
  157SAPE  H11R17533   1.194   1.123   9.237  1.9989 -0.0253 -0.3160
  157SAPE  C21217534   1.236   0.913   9.234 -0.1347  0.0018 -0.1418
  157SAPE  H12R17535   1.290   0.913   9.139  1.0086 -3.4411  0.3774
  157SAPE  C21317536   1.239   0.777   9.288  0.2468  0.4000  0.2933
  157SAPE  H13R17537   1.143   0.747   9.336  0.3281  2.4726  1.8889
  157SAPE  H13S17538   1.311   0.770   9.372  0.3075 -0.4733  0.1732
  157SAPE  C21417539   1.270   0.671   9.191 -0.3473  0.4727 -0.0514
  157SAPE  H14R17540   1.375   0.636   9.190 -0.5261 -0.0772 -0.0948
  157SAPE  C21517541   1.174   0.612   9.114  0.1534  0.0986  0.5720
  157SAPE  H15R17542   1.202   0.545   9.032  1.3372  0.2762  0.8119
  157SAPE  C21617543   1.035   0.653   9.117  0.0797  0.2152  0.7552
  157SAPE  H16R17544   1.024   0.763   9.115  0.9653  0.3016 -0.4283
  157SAPE  H16S17545   0.977   0.623   9.207 -1.6274  0.2160 -0.3113
  157SAPE  C21717546   0.959   0.609   8.989 -0.0762  0.3552  0.4881
  157SAPE  H17R17547   0.982   0.502   8.970 -1.5405  0.1942 -0.4738
  157SAPE  H17S17548   0.995   0.665   8.900 -1.2058  1.6625  0.8200
  157SAPE  C21817549   0.809   0.603   9.002 -0.5109  0.0478 -0.9905
  157SAPE  H18R17550   0.766   0.700   9.034 -0.3295  0.5201 -2.1150
  157SAPE  H18S17551   0.773   0.528   9.075  1.4830 -0.3901 -0.3840
  157SAPE  C21917552   0.744   0.583   8.864 -0.1150 -0.3878 -0.1705
  157SAPE  H19R17553   0.793   0.496   8.816 -0.5536 -2.2092  2.4583
  157SAPE  H19S17554   0.773   0.677   8.811  2.2853 -0.6701  0.5262
  157SAPE  C22017555   0.596   0.577   8.869 -0.0026 -0.6470  0.2499
  157SAPE  H20R17556   0.562   0.670   8.921 -0.3946  0.3100 -1.6415
  157SAPE  H20S17557   0.558   0.490   8.927 -0.3292 -1.1386 -0.6907
  157SAPE  H20T17558   0.537   0.581   8.775  0.1450  0.4279  0.1918
  157SAPE   C3317559   1.122   0.369   9.669 -0.4343  0.5738  0.4713
  157SAPE   H3X17560   1.210   0.428   9.635  1.6952 -0.8731  3.0757
  157SAPE   H3Y17561   1.041   0.439   9.696 -1.6675 -1.0356  1.0670
  157SAPE   C3417562   1.084   0.279   9.549  0.5657  0.6862 -0.1508
  157SAPE   H4X17563   0.980   0.239   9.553  1.0004 -0.4154  0.3704
  157SAPE   H4Y17564   1.156   0.196   9.535 -0.5293 -0.1029 -1.3385
  157SAPE   C3517565   1.083   0.357   9.417 -0.0217  0.6911  0.0689
  157SAPE   H5X17566   1.187   0.394   9.407  1.0092 -1.9622  0.1481
  157SAPE   H5Y17567   1.001   0.432   9.414  0.1596  0.8795 -1.3703
  157SAPE   C3617568   1.054   0.263   9.291  0.3599 -0.4357  0.4839
  157SAPE   H6X17569   1.141   0.211   9.247 -0.8251 -0.8594 -1.4848
  157SAPE   H6Y17570   1.037   0.341   9.214  1.4569 -0.0889  0.5657
  157SAPE   C3717571   0.923   0.180   9.295 -0.5257 -0.7157  0.9002
  157SAPE   H7X17572   0.844   0.257   9.305  1.2487  1.2693  0.3434
  157SAPE   H7Y17573   0.931   0.121   9.388  2.4598 -3.9960 -1.1588
  157SAPE   C3817574   0.899   0.086   9.180 -0.2709  0.1085 -0.1281
  157SAPE   H8X17575   0.832  -0.001   9.198  0.0393 -0.8124 -2.9396
  157SAPE   H8Y17576   0.992   0.036   9.146 -1.0813 -1.3446 -0.3125
  157SAPE   C3917577   0.844   0.164   9.058  0.0834 -0.0587  0.3547
  157SAPE   H9X17578   0.914   0.243   9.024 -0.2317 -0.6723 -1.8212
  157SAPE   H9Y17579   0.756   0.224   9.091  1.9151  3.0384 -0.0204
  157SAPE  C31017580   0.806   0.067   8.946 -0.0075 -0.2874  0.0350
  157SAPE  H10X17581   0.723  -0.001   8.977 -0.0339 -0.7497 -0.9968
  157SAPE  H10Y17582   0.894   0.006   8.916 -1.4839 -2.1481 -0.7018
  157SAPE  C31117583   0.760   0.141   8.815 -0.2881 -0.7409 -0.4958
  157SAPE  H11X17584   0.831   0.219   8.780 -3.6220  1.0247 -4.0852
  157SAPE  H11Y17585   0.672   0.202   8.842  0.6284  0.7872 -0.8519
  157SAPE  C31217586   0.746   0.055   8.693 -0.0004  1.1435 -0.1351
  157SAPE  H12X17587   0.680  -0.026   8.729  1.2780 -0.1651 -0.6070
  157SAPE  H12Y17588   0.844   0.007   8.669 -0.0682  0.1509  1.4514
  157SAPE  C31317589   0.685   0.119   8.571 -0.2782 -0.2649  0.9837
  157SAPE  H13X17590   0.765   0.170   8.514 -1.0874 -0.5255 -0.4554
  157SAPE  H13Y17591   0.605   0.184   8.614  0.4904  0.2945  1.5852
  157SAPE  C31417592   0.622   0.014   8.485  0.1057 -0.4391  0.6699
  157SAPE  H14X17593   0.534  -0.036   8.531  0.0884 -1.1663 -0.1322
  157SAPE  H14Y17594   0.685  -0.076   8.468  0.0417 -0.4163  0.2994
  157SAPE  C31517595   0.554   0.072   8.358  0.4770  0.0688  0.4096
  157SAPE  H15X17596   0.503   0.168   8.385  1.0261  0.8155 -1.1110
  157SAPE  H15Y17597   0.489  -0.009   8.318 -0.6447 -0.3175  2.8160
  157SAPE  C31617598   0.655   0.109   8.245 -0.1999 -0.2220 -0.1314
  157SAPE  H16X17599   0.728   0.029   8.222  1.7844  1.1495  1.1010
  157SAPE  H16Y17600   0.722   0.190   8.281 -1.3380  0.4894  0.4586
  157SAPE  C31717601   0.581   0.169   8.130  0.1926  0.2632 -0.0608
  157SAPE  H17X17602   0.522   0.254   8.171  2.0319  0.1535  3.0883
  157SAPE  H17Y17603   0.499   0.105   8.090  0.4681 -0.2435  0.1763
  157SAPE  C31817604   0.670   0.224   8.015 -1.0268 -0.2676 -0.7053
  157SAPE  H18X17605   0.695   0.328   8.044  2.1804 -0.7408 -1.3612
  157SAPE  H18Y17606   0.613   0.223   7.920 -0.5943  1.0133 -0.9873
  157SAPE  H18Z17607   0.764   0.165   8.006 -0.8096 -0.1765  0.6443
  158SAPE     N17608   1.111   1.905  11.021  0.0049 -0.3757  0.4147
  158SAPE   HN117609   1.036   1.834  11.008 -1.9140  1.8099 -1.4262
  158SAPE   HN217610   1.186   1.868  11.083  0.0713  0.1210  0.6436
  158SAPE   HN317611   1.066   1.982  11.075  1.1587 -1.2694  2.7936
  158SAPE   C1217612   1.184   1.967  10.891  0.2110  0.1113  0.3290
  158SAPE  H12A17613   1.223   1.878  10.838  1.7809  0.7617  0.3329
  158SAPE  H12B17614   1.268   2.030  10.925  1.6798 -0.8557 -1.3623
  158SAPE   C1117615   1.085   2.021  10.793  0.7011 -0.4568  0.0891
  158SAPE  H11A17616   1.003   1.947  10.786 -0.1781  0.4472  0.4417
  158SAPE  H11B17617   1.133   2.032  10.694  2.1616 -0.1088  0.8130
  158SAPE     P17618   1.067   2.289  10.778  0.0283  0.1840 -0.0018
  158SAPE   O1317619   1.074   2.389  10.888 -0.2087  0.2511  0.0961
  158SAPE   O1417620   1.195   2.275  10.700 -0.0405  0.2756  0.2376
  158SAPE   O1217621   1.029   2.147  10.842  0.0747  0.1130 -0.0900
  158SAPE   O1117622   0.941   2.325  10.692  0.0736  0.2098 -0.3126
  158SAPE    C117623   0.882   2.244  10.594  0.4248 -0.3115  0.3419
  158SAPE    HA17624   0.895   2.135  10.611 -0.5377 -0.7329 -1.4093
  158SAPE    HB17625   0.774   2.266  10.579  0.4287 -0.6789 -0.2397
  158SAPE    C217626   0.943   2.265  10.456 -0.2076 -0.6469 -0.3529
  158SAPE    HS17627   1.052   2.242  10.456 -0.3549 -1.3558 -0.4867
  158SAPE   O2117628   0.929   2.399  10.395 -0.1995 -0.0806 -1.0990
  158SAPE   C2117629   1.034   2.436  10.321 -0.3287 -0.2761  0.0181
  158SAPE   O2217630   1.128   2.365  10.299 -0.0452 -0.1119  0.0499
  158SAPE   C2217631   1.014   2.585  10.268  0.0229  0.3995 -0.3104
  158SAPE   H2R17632   0.906   2.603  10.255 -0.0336 -0.3526 -0.9972
  158SAPE   H2S17633   1.055   2.650  10.349 -2.2662 -0.0709  1.3099
  158SAPE    C317634   0.890   2.157  10.363  0.4108  0.7669  1.3157
  158SAPE    HX17635   0.784   2.181  10.338 -0.1064 -1.6244  0.9371
  158SAPE    HY17636   0.882   2.062  10.420 -0.1391 -2.0840 -3.0123
  158SAPE   O3117637   0.955   2.137  10.235 -0.4939  0.5600  0.1230
  158SAPE   C3117638   1.049   2.036  10.240 -0.1273 -0.1724 -0.0684
  158SAPE   O3217639   1.092   1.991  10.347 -0.2590 -0.4829 -0.1452
  158SAPE   C3217640   1.080   1.976  10.103 -0.0665 -0.2077 -0.6499
  158SAPE   H2X17641   1.059   2.067  10.042 -0.9359  0.5633  0.7487
  158SAPE   H2Y17642   1.008   1.892  10.093 -0.4258 -0.1773  1.3155
  158SAPE   C2317643   1.088   2.624  10.136 -0.8620  0.3091  0.6474
  158SAPE   H3R17644   1.046   2.553  10.062  0.0657 -0.3595  0.7540
  158SAPE   H3S17645   1.198   2.611  10.148 -0.5363  3.1410  1.7555
  158SAPE   C2417646   1.037   2.763  10.084 -0.1722 -0.2040  0.6221
  158SAPE   H4R17647   1.098   2.788   9.995  0.0850  3.5063  1.6606
  158SAPE   H4S17648   1.074   2.834  10.160 -0.6916  0.6725  0.0747
  158SAPE   C2517649   0.893   2.763  10.043  0.6129 -0.8933 -0.4731
  158SAPE   H5R17650   0.822   2.786  10.124  0.0072 -0.1556 -1.2038
  158SAPE   C2617651   0.846   2.749   9.916 -0.5555 -0.9232 -0.2946
  158SAPE   H6R17652   0.740   2.768   9.894 -0.8915 -0.3638  1.5782
  158SAPE   C2717653   0.925   2.715   9.789  0.1984 -0.0336  0.0186
  158SAPE   H7R17654   0.898   2.610   9.764  1.5475 -0.9317  2.0168
  158SAPE   H7S17655   1.034   2.713   9.812  0.0999 -1.3758  0.4509
  158SAPE   C2817656   0.909   2.801   9.670 -0.3499  0.5904  0.1280
  158SAPE   H8R17657   0.860   2.899   9.685 -0.3634  0.9001 -1.7327
  158SAPE   C2917658   0.948   2.765   9.545  0.7319 -0.9273  0.9072
  158SAPE   H9R17659   0.931   2.836   9.462  1.6022 -0.9643  0.6833
  158SAPE  C21017660   1.005   2.637   9.493 -0.2992 -0.3477  0.5961
  158SAPE  H10R17661   0.964   2.623   9.390 -1.0996 -2.7073  1.1632
  158SAPE  H10S17662   0.975   2.546   9.549  0.6605 -1.3854 -0.5240
  158SAPE  C21117663   1.159   2.643   9.499  0.8010  0.0227 -0.3153
  158SAPE  H11R17664   1.205   2.634   9.599 -2.1587 -0.5751  1.1145
  158SAPE  C21217665   1.226   2.643   9.380 -0.0605 -0.3147  0.0135
  158SAPE  H12R17666   1.335   2.648   9.378 -0.1148  1.3070 -1.2340
  158SAPE  C21317667   1.168   2.642   9.238 -0.1428  0.1453 -0.4659
  158SAPE  H13R17668   1.096   2.557   9.230  0.4617 -0.6245  1.4979
  158SAPE  H13S17669   1.258   2.640   9.174 -0.3004  2.1110 -0.8152
  158SAPE  C21417670   1.101   2.768   9.200 -0.4297 -0.2124 -0.1282
  158SAPE  H14R17671   1.100   2.855   9.267  0.8960  1.4591 -2.1626
  158SAPE  C21517672   1.060   2.791   9.074 -0.3363  0.0911  0.1633
  158SAPE  H15R17673   1.012   2.886   9.049  4.1401  2.8772  1.0150
  158SAPE  C21617674   1.077   2.693   8.953 -0.3346  0.1405 -0.7167
  158SAPE  H16R17675   0.975   2.662   8.923  0.1366 -0.4728 -1.7430
  158SAPE  H16S17676   1.132   2.604   8.990  1.0777  2.0534  2.1895
  158SAPE  C21717677   1.139   2.757   8.833  0.0003 -0.0308  0.5365
  158SAPE  H17R17678   1.236   2.804   8.860 -0.4012  0.7212  0.7032
  158SAPE  H17S17679   1.077   2.846   8.807  2.0571  1.8866  1.7523
  158SAPE  C21817680   1.166   2.669   8.712 -0.2119 -0.1435  0.5445
  158SAPE  H18R17681   1.084   2.602   8.677  0.8467 -1.2611  0.1682
  158SAPE  H18S17682   1.249   2.602   8.743  0.3656  0.7810  1.0370
  158SAPE  C21917683   1.222   2.760   8.601 -0.0691 -0.2227 -0.4714
  158SAPE  H19R17684   1.300   2.827   8.642 -0.5208  2.2509 -3.3387
  158SAPE  H19S17685   1.133   2.817   8.567 -1.9342 -2.3312  0.6561
  158SAPE  C22017686   1.297   2.684   8.486 -0.1025 -0.2837 -1.0768
  158SAPE  H20R17687   1.334   2.762   8.416  0.7538 -1.2403 -1.7259
  158SAPE  H20S17688   1.233   2.619   8.423 -0.5719 -0.2565 -0.6296
  158SAPE  H20T17689   1.376   2.618   8.527  0.1000  0.2502 -0.6063
  158SAPE   C3317690   1.223   1.930  10.095  0.2830 -0.3685  0.0539
  158SAPE   H3X17691   1.240   1.837  10.153 -1.0361 -0.7166 -0.0821
  158SAPE   H3Y17692   1.285   2.003  10.151  0.0305 -0.9816  1.1884
  158SAPE   C3417693   1.270   1.921   9.952 -0.5104  0.0902  0.1772
  158SAPE   H4X17694   1.216   1.994   9.889  0.2146  0.0714 -0.4789
  158SAPE   H4Y17695   1.254   1.819   9.911 -0.9599  0.2810 -0.1219
  158SAPE   C3517696   1.424   1.958   9.933 -0.3313  1.0292 -0.2346
  158SAPE   H5X17697   1.483   1.878   9.981 -1.6434  0.8312  1.0926
  158SAPE   H5Y17698   1.444   2.050   9.992  0.3755 -0.7914  2.5366
  158SAPE   C3617699   1.444   1.965   9.789 -0.0296  0.4772 -0.9460
  158SAPE   H6X17700   1.405   2.060   9.746 -2.5141 -0.8273 -1.7908
  158SAPE   H6Y17701   1.394   1.883   9.734  0.0963 -1.4103  1.5746
  158SAPE   C3717702   1.597   1.956   9.768 -1.0357 -0.6219  0.1040
  158SAPE   H7X17703   1.634   1.861   9.811 -1.5176  0.0249  2.0675
  158SAPE   H7Y17704   1.640   2.039   9.829 -4.1971  1.1089  0.2144
  158SAPE   C3817705   1.636   1.967   9.621  0.3877 -0.1667  0.6456
  158SAPE   H8X17706   1.747   1.954   9.620  0.1888 -2.2978  0.0798
  158SAPE   H8Y17707   1.615   2.070   9.586  1.7071  0.3794  1.3993
  158SAPE   C3917708   1.579   1.861   9.526 -0.1834 -0.1519  0.4600
  158SAPE   H9X17709   1.468   1.870   9.516 -0.0099  1.2220 -0.4806
  158SAPE   H9Y17710   1.608   1.758   9.555  1.5129 -0.2550 -1.3995
  158SAPE  C31017711   1.623   1.892   9.378  0.0424  0.3765  0.7278
  158SAPE  H10X17712   1.734   1.896   9.368  0.0015 -1.1313 -0.7244
  158SAPE  H10Y17713   1.580   1.994   9.364 -0.0708  0.1939 -0.3955
  158SAPE  C31117714   1.561   1.796   9.271 -0.6625 -0.0770 -0.6114
  158SAPE  H11X17715   1.451   1.791   9.281 -0.5285  0.4267  1.6152
  158SAPE  H11Y17716   1.614   1.700   9.285 -1.7593 -0.7770 -1.1916
  158SAPE  C31217717   1.583   1.858   9.131  0.1246  0.4236  0.1456
  158SAPE  H12X17718   1.683   1.905   9.134  1.1619 -1.6545 -0.0746
  158SAPE  H12Y17719   1.509   1.936   9.103 -0.1401  0.4612  0.9195
  158SAPE  C31317720   1.595   1.757   9.020 -0.6839 -0.6632 -0.3612
  158SAPE  H13X17721   1.497   1.704   9.011 -1.1111  0.0826 -0.1513
  158SAPE  H13Y17722   1.668   1.676   9.043 -1.7325 -1.4104  0.4829
  158SAPE  C31417723   1.626   1.816   8.880 -0.2112 -0.3687 -0.6882
  158SAPE  H14X17724   1.719   1.876   8.882 -0.4765  0.0345  1.3712
  158SAPE  H14Y17725   1.549   1.892   8.854  0.6173  1.3575  1.5741
  158SAPE  C31517726   1.644   1.709   8.765 -0.3986 -0.6891 -0.9755
  158SAPE  H15X17727   1.729   1.641   8.783 -0.2283 -0.2827 -0.2296
  158SAPE  H15Y17728   1.677   1.781   8.686  2.3969  0.5893  1.2123
  158SAPE  C31617729   1.512   1.641   8.727 -0.4418  0.8172  0.1850
  158SAPE  H16X17730   1.429   1.714   8.712 -1.3786 -0.1411  0.5815
  158SAPE  H16Y17731   1.479   1.574   8.809 -0.0304  0.7132  0.2666
  158SAPE  C31717732   1.533   1.554   8.600  0.3199  0.3945 -0.4189
  158SAPE  H17X17733   1.550   1.609   8.505  0.6101  0.3849 -0.3740
  158SAPE  H17Y17734   1.432   1.507   8.594  0.0746  0.8859 -0.1872
  158SAPE  C31817735   1.638   1.437   8.612  0.3188 -0.3381 -0.5267
  158SAPE  H18X17736   1.736   1.483   8.587  0.3222  0.5360  0.9304
  158SAPE  H18Y17737   1.622   1.360   8.534  0.1168 -1.6887  0.7942
  158SAPE  H18Z17738   1.633   1.381   8.707 -1.4769 -1.1538 -1.0669
  159SAPE     N17739   2.296   5.984   6.413  0.3671 -0.5283  0.2286
  159SAPE   HN117740   2.253   5.891   6.396 -0.2881  0.1538 -2.2617
  159SAPE   HN217741   2.386   5.976   6.465 -0.6652 -3.0791  1.8407
  159SAPE   HN317742   2.234   6.040   6.475  0.4183  0.2893 -0.4408
  159SAPE   C1217743   2.305   6.039   6.268  0.1707  0.9271  0.1223
  159SAPE  H12A17744   2.205   6.019   6.223  1.5954 -0.4476 -2.7419
  159SAPE  H12B17745   2.382   5.979   6.215  0.4354  0.5038  0.9788
  159SAPE   C1117746   2.344   6.184   6.273  0.4742  0.9661 -0.7067
  159SAPE  H11A17747   2.331   6.214   6.167 -1.2125 -0.0411 -0.8205
  159SAPE  H11B17748   2.446   6.202   6.311  2.1417 -0.5109 -4.0712
  159SAPE     P17749   2.269   6.403   6.373  0.3784  0.2884 -0.3382
  159SAPE   O1317750   2.376   6.450   6.287  0.0312  0.4514  0.0069
  159SAPE   O1417751   2.137   6.470   6.358 -0.2654 -0.0542 -0.0586
  159SAPE   O1217752   2.237   6.246   6.339  0.2519 -0.1610  0.3117
  159SAPE   O1117753   2.308   6.395   6.521 -0.4152  0.0312 -0.0382
  159SAPE    C117754   2.425   6.321   6.556  0.2941 -0.0530 -0.4302
  159SAPE    HA17755   2.396   6.214   6.561  1.2791 -0.2923  0.7860
  159SAPE    HB17756   2.516   6.332   6.493  0.6727 -2.0584 -0.2859
  159SAPE    C217757   2.467   6.355   6.699  0.3728  0.0554  0.3790
  159SAPE    HS17758   2.496   6.462   6.695  1.7075 -0.3338 -2.5845
  159SAPE   O2117759   2.571   6.266   6.735  0.0595 -0.3413 -0.2825
  159SAPE   C2117760   2.661   6.319   6.810 -0.0828  0.4241  0.2819
  159SAPE   O2217761   2.657   6.427   6.863  0.0682 -0.2117 -0.0790
  159SAPE   C2217762   2.783   6.221   6.824 -0.0572 -0.6816 -0.9470
  159SAPE   H2R17763   2.748   6.120   6.793  0.1198 -0.4389 -1.9424
  159SAPE   H2S17764   2.858   6.262   6.754 -0.5733 -0.0589 -1.1481
  159SAPE    C317765   2.344   6.330   6.797 -0.9970 -0.5604 -0.6460
  159SAPE    HX17766   2.327   6.220   6.795  0.3199 -0.9000  2.0555
  159SAPE    HY17767   2.251   6.378   6.760 -1.5646  0.0038  1.3573
  159SAPE   O3117768   2.376   6.361   6.935  0.0849  0.0314 -0.2865
  159SAPE   C3117769   2.347   6.494   6.978  0.2225  1.0407  0.1049
  159SAPE   O3217770   2.317   6.582   6.898 -0.6154 -0.1903 -0.7385
  159SAPE   C3217771   2.368   6.490   7.135 -0.2724 -0.4251 -0.0573
  159SAPE   H2X17772   2.430   6.578   7.163  1.0532 -1.5221  0.5536
  159SAPE   H2Y17773   2.418   6.396   7.167 -0.4798 -0.6006 -0.2500
  159SAPE   C2317774   2.863   6.219   6.961 -0.1531 -0.0291 -0.1409
  159SAPE   H3R17775   2.901   6.318   6.994  0.2224 -0.8516  2.0121
  159SAPE   H3S17776   2.947   6.150   6.943  0.7034  0.7710  0.6650
  159SAPE   C2417777   2.776   6.158   7.077  0.0924 -0.1855 -0.5532
  159SAPE   H4R17778   2.759   6.050   7.057  0.1532 -0.0537 -1.3270
  159SAPE   H4S17779   2.676   6.207   7.079 -0.1359 -0.6569  0.2170
  159SAPE   C2517780   2.836   6.160   7.215 -0.5400  0.2965 -1.1605
  159SAPE   H5R17781   2.944   6.180   7.215 -0.3139 -0.9051 -1.0250
  159SAPE   C2617782   2.784   6.128   7.335 -0.2535  0.0336 -0.4654
  159SAPE   H6R17783   2.851   6.146   7.420  0.0870  1.4973 -1.0119
  159SAPE   C2717784   2.638   6.092   7.366  0.0785  0.3373  0.2279
  159SAPE   H7R17785   2.634   5.981   7.368  0.7265  0.3195  0.8898
  159SAPE   H7S17786   2.570   6.116   7.282 -0.9806 -3.6890 -0.2663
  159SAPE   C2817787   2.584   6.146   7.496  1.0381 -0.2954 -0.5889
  159SAPE   H8R17788   2.546   6.249   7.487  1.1903 -0.3199 -1.6384
  159SAPE   C2917789   2.608   6.095   7.618  0.2509 -0.3793 -0.0026
  159SAPE   H9R17790   2.552   6.139   7.701 -2.7903  0.5757 -2.3800
  159SAPE  C21017791   2.694   5.975   7.643 -0.7377 -0.5917  0.4026
  159SAPE  H10R17792   2.765   5.953   7.561 -0.3461  0.1486  0.5309
  159SAPE  H10S17793   2.627   5.886   7.644 -2.1839  0.4604  0.0365
  159SAPE  C21117794   2.777   5.994   7.766 -0.4662  0.1614 -0.5963
  159SAPE  H11R17795   2.873   6.044   7.744 -1.4076  2.6343  0.6061
  159SAPE  C21217796   2.740   5.954   7.890  0.2010 -0.4092 -0.3164
  159SAPE  H12R17797   2.809   5.968   7.975  0.2350 -0.0934 -0.3950
  159SAPE  C21317798   2.605   5.884   7.921  0.1319  0.2001  0.0342
  159SAPE  H13R17799   2.548   5.858   7.830 -0.6707 -0.6436  0.7640
  159SAPE  H13S17800   2.550   5.970   7.966 -1.5746  0.1230 -1.7889
  159SAPE  C21417801   2.614   5.764   8.022 -0.3765 -0.1885 -0.1364
  159SAPE  H14R17802   2.682   5.687   7.981 -1.2907 -0.2853 -1.5167
  159SAPE  C21517803   2.538   5.735   8.128  0.0022  0.0085 -0.1040
  159SAPE  H15R17804   2.571   5.649   8.188  0.9561  1.0964  0.9878
  159SAPE  C21617805   2.430   5.819   8.182 -0.0395  0.4067 -0.2014
  159SAPE  H16R17806   2.399   5.896   8.107 -0.9844  4.3678  3.8106
  159SAPE  H16S17807   2.454   5.880   8.272 -0.4582  0.6820 -0.2745
  159SAPE  C21717808   2.307   5.726   8.215 -0.1397 -0.2709  0.0358
  159SAPE  H17R17809   2.346   5.654   8.291  0.1103  1.4564  1.6046
  159SAPE  H17S17810   2.267   5.676   8.124 -1.5386  1.6912 -0.4846
  159SAPE  C21817811   2.199   5.797   8.298 -0.3901 -0.3785  0.7781
  159SAPE  H18R17812   2.166   5.893   8.252  1.4932 -0.2845 -0.5225
  159SAPE  H18S17813   2.240   5.834   8.394 -0.0780  1.9992 -0.1821
  159SAPE  C21917814   2.071   5.716   8.336 -0.1328  0.3949  0.1334
  159SAPE  H19R17815   2.099   5.622   8.389 -0.3287 -0.5972 -1.4540
  159SAPE  H19S17816   2.020   5.685   8.243  0.3432 -2.0904  0.6357
  159SAPE  C22017817   1.972   5.795   8.421  0.6427 -0.1904 -0.0619
  159SAPE  H20R17818   1.921   5.864   8.350  3.9356  1.5288 -0.9218
  159SAPE  H20S17819   2.018   5.856   8.501  1.2565  0.2018 -0.7038
  159SAPE  H20T17820   1.890   5.729   8.457  0.4594 -0.3396 -0.7245
  159SAPE   C3317821   2.235   6.506   7.224  0.5782  0.3197  0.1001
  159SAPE   H3X17822   2.188   6.405   7.226  0.5439  0.3186  2.0931
  159SAPE   H3Y17823   2.158   6.577   7.188 -0.9942 -0.7507  1.2031
  159SAPE   C3417824   2.274   6.571   7.361 -0.4101  0.4789  0.2889
  159SAPE   H4X17825   2.177   6.578   7.416 -0.8822 -1.2352 -0.2749
  159SAPE   H4Y17826   2.304   6.675   7.335 -2.9062  0.6116 -2.5933
  159SAPE   C3517827   2.380   6.488   7.440  0.1030  0.1195 -0.6091
  159SAPE   H5X17828   2.481   6.488   7.393  0.8398  0.3326  0.9078
  159SAPE   H5Y17829   2.350   6.384   7.466  1.5491  0.5471  3.5792
  159SAPE   C3617830   2.416   6.558   7.579 -0.2561  0.4761  0.1379
  159SAPE   H6X17831   2.318   6.582   7.625 -2.0047  2.2787 -3.9873
  159SAPE   H6Y17832   2.490   6.640   7.570 -1.2713  1.6324  1.7103
  159SAPE   C3717833   2.485   6.446   7.663  0.0995 -1.0347  0.1135
  159SAPE   H7X17834   2.588   6.424   7.628 -0.1105 -0.0280 -1.2318
  159SAPE   H7Y17835   2.418   6.358   7.662 -2.1470  0.5758 -0.1092
  159SAPE   C3817836   2.486   6.489   7.809  0.6114 -0.4966 -0.3017
  159SAPE   H8X17837   2.381   6.514   7.835  0.8826 -0.0625  0.3873
  159SAPE   H8Y17838   2.558   6.573   7.815  0.5964 -0.4197 -1.1176
  159SAPE   C3917839   2.536   6.380   7.901 -0.2481  0.1627 -0.5762
  159SAPE   H9X17840   2.628   6.340   7.855  0.3945  0.2655  0.5899
  159SAPE   H9Y17841   2.461   6.299   7.907 -0.9889  0.8504 -0.2798
  159SAPE  C31017842   2.569   6.442   8.042  0.2015 -0.2264 -0.5682
  159SAPE  H10X17843   2.475   6.472   8.093 -0.4351 -2.7655 -0.1003
  159SAPE  H10Y17844   2.638   6.529   8.035  0.5406 -0.6109 -2.3021
  159SAPE  C31117845   2.640   6.331   8.130  0.9681 -0.4708  0.2641
  159SAPE  H11X17846   2.707   6.284   8.055 -0.8221 -2.9915  0.1210
  159SAPE  H11Y17847   2.560   6.257   8.152 -1.7428  0.9536 -3.5111
  159SAPE  C31217848   2.705   6.403   8.245 -0.0297  0.0262  0.0995
  159SAPE  H12X17849   2.630   6.481   8.272  1.2424  1.6624 -0.9371
  159SAPE  H12Y17850   2.797   6.455   8.212 -2.2101  4.4175  0.1539
  159SAPE  C31317851   2.724   6.309   8.365  0.3650  0.2297  1.1983
  159SAPE  H13X17852   2.770   6.218   8.320 -0.1907  1.4940 -2.2180
  159SAPE  H13Y17853   2.619   6.288   8.395 -0.4467  1.5469 -0.5081
  159SAPE  C31417854   2.818   6.352   8.472  0.4794 -0.2942 -0.0388
  159SAPE  H14X17855   2.768   6.332   8.569 -1.5134  1.2434 -0.6775
  159SAPE  H14Y17856   2.829   6.462   8.476  5.9631 -0.6034  0.8676
  159SAPE  C31517857   2.952   6.284   8.468  0.1503 -0.4660  0.4295
  159SAPE  H15X17858   2.987   6.298   8.363 -1.8693 -0.0130 -0.2115
  159SAPE  H15Y17859   2.938   6.175   8.483 -2.2580 -0.1917  0.4630
  159SAPE  C31617860   3.056   6.351   8.561 -0.4710 -0.1506 -1.1642
  159SAPE  H16X17861   3.050   6.320   8.668  0.8122  3.4973  0.1015
  159SAPE  H16Y17862   3.051   6.461   8.554  1.0787  0.0419  0.1872
  159SAPE  C31717863   3.207   6.319   8.522 -0.1831  0.5369 -0.0184
  159SAPE  H17X17864   3.232   6.370   8.427 -1.8805  0.3696 -0.5949
  159SAPE  H17Y17865   3.219   6.210   8.502 -0.9035  0.5178 -0.3890
  159SAPE  C31817866   3.301   6.363   8.638 -0.6308 -0.0480 -0.3972
  159SAPE  H18X17867   3.264   6.325   8.736 -2.6445 -1.9997 -1.8239
  159SAPE  H18Y17868   3.308   6.473   8.647 -1.3182  0.1151 -1.6068
  159SAPE  H18Z17869   3.403   6.329   8.611 -1.1048  0.8515 -3.7459
  160SAPE     N17870   1.484   6.739   6.267  0.2224  1.1161  0.3653
  160SAPE   HN117871   1.497   6.838   6.298  1.3436  1.3054 -0.6434
  160SAPE   HN217872   1.388   6.720   6.234  0.4450 -1.8806  1.1586
  160SAPE   HN317873   1.495   6.666   6.340 -1.2999  0.8681  0.3664
  160SAPE   C1217874   1.586   6.720   6.155  0.0826  0.3578 -0.2817
  160SAPE  H12A17875   1.559   6.785   6.069  1.7188 -0.8384 -1.7698
  160SAPE  H12B17876   1.575   6.615   6.122 -0.0247  1.2980 -3.6459
  160SAPE   C1117877   1.729   6.750   6.194  0.3243 -0.2711 -0.3404
  160SAPE  H11A17878   1.782   6.758   6.097  2.5142  1.7695  0.9124
  160SAPE  H11B17879   1.773   6.661   6.243  3.4444  1.1920 -0.2314
  160SAPE     P17880   1.845   6.873   6.394 -0.7613 -0.0434 -0.1297
  160SAPE   O1317881   1.960   6.783   6.364 -0.3335 -0.2198 -0.0419
  160SAPE   O1417882   1.863   7.015   6.432  0.1294  0.4203 -0.6011
  160SAPE   O1217883   1.749   6.876   6.264 -0.4184  0.1608  0.2435
  160SAPE   O1117884   1.750   6.793   6.486  0.1733 -0.3023 -0.0296
  160SAPE    C117885   1.661   6.850   6.577 -0.4809 -0.7886  0.0958
  160SAPE    HA17886   1.592   6.915   6.519  2.3662  1.6863 -0.8116
  160SAPE    HB17887   1.592   6.776   6.622 -0.6839 -1.5432 -1.4173
  160SAPE    C217888   1.732   6.932   6.691  0.9595 -0.3955 -0.1709
  160SAPE    HS17889   1.757   7.031   6.650  0.5649 -0.3737 -0.3669
  160SAPE   O2117890   1.848   6.861   6.744 -0.0698 -0.3201  0.0602
  160SAPE   C2117891   1.916   6.922   6.831  0.1046  0.2876  0.0862
  160SAPE   O2217892   1.911   7.042   6.865  0.3016  0.1503 -0.1874
  160SAPE   C2217893   2.014   6.822   6.889 -0.1749 -0.4261 -0.5149
  160SAPE   H2R17894   1.964   6.727   6.919 -0.7763  0.3066  0.8941
  160SAPE   H2S17895   2.093   6.801   6.814 -0.0149 -0.9036 -0.2146
  160SAPE    C317896   1.626   6.951   6.808 -0.1639  0.0566  0.3187
  160SAPE    HX17897   1.637   6.855   6.862  1.0213 -0.7346 -1.2162
  160SAPE    HY17898   1.526   6.953   6.760 -0.0429 -1.7634 -0.0820
  160SAPE   O3117899   1.646   7.067   6.892  0.7029 -0.0999  0.2420
  160SAPE   C3117900   1.612   7.060   7.022  0.0444 -0.3912  0.0900
  160SAPE   O3217901   1.564   6.966   7.081  0.3285  0.1758 -0.2464
  160SAPE   C3217902   1.674   7.178   7.098  0.4841 -0.1369  0.5307
  160SAPE   H2X17903   1.625   7.274   7.072  0.6590  0.2652  1.6280
  160SAPE   H2Y17904   1.782   7.186   7.075  0.2562  1.7871 -0.0419
  160SAPE   C2317905   2.085   6.878   7.018  0.9502 -0.3016 -0.3532
  160SAPE   H3R17906   2.130   6.976   6.992 -0.2511  0.4085  0.1819
  160SAPE   H3S17907   2.164   6.811   7.057  1.3525  0.3422 -0.0523
  160SAPE   C2417908   1.987   6.907   7.140 -0.8496  0.6092 -0.6295
  160SAPE   H4R17909   1.890   6.951   7.108 -1.5855  0.3643  1.0932
  160SAPE   H4S17910   2.036   6.981   7.207  1.2807 -2.4521  1.4740
  160SAPE   C2517911   1.968   6.791   7.226 -0.8877  0.3425  0.0898
  160SAPE   H5R17912   1.921   6.706   7.174 -1.2468  0.8749 -0.4812
  160SAPE   C2617913   1.991   6.783   7.357  0.0966 -0.1101  0.2454
  160SAPE   H6R17914   1.980   6.680   7.396 -0.0935 -0.4425 -0.6656
  160SAPE   C2717915   2.049   6.882   7.448 -0.0693 -0.5350 -1.1513
  160SAPE   H7R17916   2.111   6.956   7.393  0.7445 -1.5527 -1.6169
  160SAPE   H7S17917   2.110   6.819   7.516 -1.3468 -1.2568 -0.6343
  160SAPE   C2817918   1.939   6.953   7.526 -0.4445  0.0561  0.4805
  160SAPE   H8R17919   1.883   7.029   7.469 -0.6241 -1.8930 -2.1643
  160SAPE   C2917920   1.922   6.940   7.664  0.2954  0.4937 -0.2108
  160SAPE   H9R17921   1.834   6.992   7.704  0.5278 -0.5245  1.7069
  160SAPE  C21017922   1.995   6.856   7.762  1.3567  0.3758  0.5908
  160SAPE  H10R17923   2.062   6.914   7.829 -0.2751  1.4883  1.3415
  160SAPE  H10S17924   2.056   6.776   7.716 -1.3347 -1.7290  0.3926
  160SAPE  C21117925   1.887   6.794   7.847 -0.4992 -0.3081 -0.0737
  160SAPE  H11R17926   1.807   6.742   7.792 -2.4236 -1.1080  3.2084
  160SAPE  C21217927   1.887   6.791   7.983  1.0998 -0.1933  0.3445
  160SAPE  H12R17928   1.797   6.755   8.035  0.8128  1.3399  0.9792
  160SAPE  C21317929   1.983   6.859   8.078 -0.6486  0.4927  0.6998
  160SAPE  H13R17930   1.940   6.951   8.122  0.7223 -0.1283  3.5596
  160SAPE  H13S17931   2.074   6.895   8.025 -2.4380 -0.6142 -3.5889
  160SAPE  C21417932   2.012   6.755   8.186 -0.6078  0.4614 -0.3209
  160SAPE  H14R17933   2.046   6.659   8.144 -1.6983  0.4359 -1.1796
  160SAPE  C21517934   1.983   6.763   8.318  0.3061  0.9611  0.0632
  160SAPE  H15R17935   2.034   6.686   8.377  1.3959  0.8637 -0.9671
  160SAPE  C21617936   1.928   6.880   8.381  1.0756 -0.0515  0.5832
  160SAPE  H16R17937   1.881   6.858   8.479  1.1236 -1.0891  0.3784
  160SAPE  H16S17938   1.837   6.916   8.327 -1.7376 -3.7129  2.4632
  160SAPE  C21717939   2.027   6.996   8.391 -0.1150 -1.1211  0.7065
  160SAPE  H17R17940   2.066   7.028   8.292 -1.0216 -1.9195  0.0668
  160SAPE  H17S17941   2.110   6.984   8.464 -0.9490  3.8914  2.8919
  160SAPE  C21817942   1.961   7.132   8.437  0.4684  0.3421  0.0123
  160SAPE  H18R17943   1.903   7.110   8.529 -2.6581  1.0597 -1.6113
  160SAPE  H18S17944   1.893   7.180   8.363  0.1500  0.4524  0.3740
  160SAPE  C21917945   2.073   7.229   8.470  0.1693 -0.0697  0.6649
  160SAPE  H19R17946   2.130   7.240   8.375 -0.7851 -1.9978 -0.1849
  160SAPE  H19S17947   2.151   7.188   8.537  0.8223 -0.0873 -0.0850
  160SAPE  C22017948   2.033   7.367   8.515 -0.4511 -0.2541 -0.6230
  160SAPE  H20R17949   2.026   7.437   8.429 -1.0161  3.0275  1.9045
  160SAPE  H20S17950   2.112   7.395   8.588 -2.9611 -1.1514  2.6479
  160SAPE  H20T17951   1.935   7.365   8.567 -1.9367 -0.2775 -3.2335
  160SAPE   C3317952   1.665   7.164   7.249 -0.0666  0.3178 -0.1865
  160SAPE   H3X17953   1.716   7.071   7.283 -0.3289  0.9387  2.1174
  160SAPE   H3Y17954   1.562   7.138   7.281  0.0315  0.5545  0.3422
  160SAPE   C3417955   1.711   7.282   7.344  0.8226  0.2514  0.2931
  160SAPE   H4X17956   1.820   7.302   7.330  0.7466  0.1131 -0.5949
  160SAPE   H4Y17957   1.692   7.234   7.442  0.2582 -0.2321 -0.0456
  160SAPE   C3517958   1.639   7.414   7.322  0.5054 -0.1059  0.1932
  160SAPE   H5X17959   1.530   7.388   7.324  0.0130  1.7488  3.1998
  160SAPE   H5Y17960   1.656   7.461   7.223  1.1107  2.2449  1.3540
  160SAPE   C3617961   1.674   7.517   7.431 -0.3414  0.7660 -0.4775
  160SAPE   H6X17962   1.781   7.549   7.427 -0.3888  0.9232 -0.5013
  160SAPE   H6Y17963   1.663   7.463   7.528 -0.3435 -0.7037 -1.2809
  160SAPE   C3717964   1.596   7.645   7.428  0.1433  0.5283 -0.4870
  160SAPE   H7X17965   1.498   7.628   7.477  0.6705  1.1951  0.8450
  160SAPE   H7Y17966   1.583   7.676   7.322  0.2694 -1.8653 -1.2587
  160SAPE   C3817967   1.665   7.750   7.514  0.1173  0.2791 -0.0677
  160SAPE   H8X17968   1.612   7.846   7.498 -2.2255 -0.8127  0.7347
  160SAPE   H8Y17969   1.768   7.756   7.474 -0.0497  1.4310 -0.3592
  160SAPE   C3917970   1.654   7.716   7.664 -0.2963 -0.1283 -0.0182
  160SAPE   H9X17971   1.705   7.619   7.682 -0.0913  0.3164  2.1898
  160SAPE   H9Y17972   1.547   7.687   7.676 -0.1471 -1.5610 -1.7376
  160SAPE  C31017973   1.708   7.819   7.757 -0.5460 -0.6003  0.4829
  160SAPE  H10X17974   1.691   7.917   7.706 -0.2468 -0.8584 -0.1200
  160SAPE  H10Y17975   1.818   7.813   7.765 -0.0039  0.9182 -3.5420
  160SAPE  C31117976   1.644   7.822   7.898 -0.8195  0.1920  0.3006
  160SAPE  H11X17977   1.675   7.728   7.948 -1.3557  0.5370  1.3123
  160SAPE  H11Y17978   1.534   7.813   7.889 -0.5929 -2.3860 -0.4702
  160SAPE  C31217979   1.663   7.955   7.972 -0.2697 -0.9920  0.2077
  160SAPE  H12X17980   1.621   8.037   7.911  0.8958  1.2740  2.3041
  160SAPE  H12Y17981   1.770   7.980   7.982 -0.7567  2.1798 -1.4276
  160SAPE  C31317982   1.596   7.955   8.109  0.4676  0.1441 -0.8713
  160SAPE  H13X17983   1.645   7.874   8.167 -1.7479 -0.5289  0.1953
  160SAPE  H13Y17984   1.493   7.915   8.098  0.0041  0.5414  1.4893
  160SAPE  C31417985   1.601   8.098   8.156  0.4885 -0.0308 -1.3911
  160SAPE  H14X17986   1.560   8.159   8.073 -2.1630 -2.1590 -1.8253
  160SAPE  H14Y17987   1.707   8.122   8.178 -0.2589  2.1520  0.1506
  160SAPE  C31517988   1.504   8.121   8.283  0.5901 -0.1449 -0.6593
  160SAPE  H15X17989   1.504   8.231   8.300  1.2533  0.0776 -1.9426
  160SAPE  H15Y17990   1.547   8.061   8.366  0.4767  1.8017  0.8866
  160SAPE  C31617991   1.358   8.089   8.266  0.7792 -0.0758 -0.3406
  160SAPE  H16X17992   1.339   7.999   8.203  0.2123 -1.0711  1.1871
  160SAPE  H16Y17993   1.311   8.178   8.219 -0.8966 -0.4720  0.4873
  160SAPE  C31717994   1.282   8.077   8.402 -0.3348  0.0583  0.0937
  160SAPE  H17X17995   1.294   8.178   8.446  1.0718 -0.6437  1.4431
  160SAPE  H17Y17996   1.344   8.007   8.463 -2.0946 -1.8732 -0.1861
  160SAPE  C31817997   1.139   8.028   8.385 -0.4949  0.5468 -1.0987
  160SAPE  H18X17998   1.095   8.004   8.484 -1.5736  0.4050 -1.6052
  160SAPE  H18Y17999   1.129   7.931   8.332 -0.8603  0.9878 -1.8382
  160SAPE  H18Z18000   1.075   8.106   8.340 -3.8265  0.0711  2.3190
  161SAPE     N18001   4.867   5.157   6.163 -1.0256 -0.1556  0.5719
  161SAPE   HN118002   4.825   5.068   6.198  0.2709 -1.9351 -2.0866
  161SAPE   HN218003   4.895   5.223   6.239 -1.2120  1.4437 -0.7068
  161SAPE   HN318004   4.797   5.209   6.105  0.2138  1.7721  0.7084
  161SAPE   C1218005   4.971   5.103   6.068 -0.3546  0.1806 -0.0622
  161SAPE  H12A18006   5.032   5.191   6.039 -2.4303  2.2093  1.3794
  161SAPE  H12B18007   4.925   5.058   5.977  2.3996 -0.4311 -1.2698
  161SAPE   C1118008   5.065   5.015   6.151 -0.4539 -0.8676  0.0844
  161SAPE  H11A18009   5.138   4.970   6.080  0.6296  2.6693 -1.2867
  161SAPE  H11B18010   5.003   4.940   6.205 -2.9603  1.3213  0.4555
  161SAPE     P18011   5.260   5.082   6.307 -0.1243 -0.2601 -0.3439
  161SAPE   O1318012   5.328   4.960   6.262 -0.1293 -0.1935  0.7546
  161SAPE   O1418013   5.334   5.208   6.286  0.5984  0.3727  0.2029
  161SAPE   O1218014   5.122   5.096   6.251 -0.5049 -0.0462 -0.3612
  161SAPE   O1118015   5.229   5.064   6.458 -0.8790 -0.0058  0.1578
  161SAPE    C118016   5.117   5.139   6.516 -0.5883  0.0586 -0.2802
  161SAPE    HA18017   5.124   5.248   6.498 -1.0110  0.1525  0.0991
  161SAPE    HB18018   5.021   5.099   6.476 -0.4949 -2.9307  2.0925
  161SAPE    C218019   5.126   5.131   6.673  0.0979  0.3813  0.0694
  161SAPE    HS18020   5.222   5.173   6.711 -0.1727 -0.4418  1.7620
  161SAPE   O2118021   5.105   4.989   6.697 -0.4413 -0.2717 -0.4788
  161SAPE   C2118022   5.117   4.960   6.826 -0.3025  0.1340 -0.2019
  161SAPE   O2218023   5.192   5.020   6.903 -0.2846  0.3529 -0.4205
  161SAPE   C2218024   5.034   4.838   6.860  0.2499  0.0678 -0.1022
  161SAPE   H2R18025   5.034   4.820   6.969 -1.5771  1.3848  0.1518
  161SAPE   H2S18026   4.930   4.851   6.824  0.9324 -0.9030 -2.6674
  161SAPE    C318027   5.009   5.217   6.728  0.2255 -0.5141 -0.5758
  161SAPE    HX18028   4.918   5.168   6.686  0.5468  0.0951 -2.0137
  161SAPE    HY18029   5.026   5.321   6.692  0.5213 -0.0225  0.9032
  161SAPE   O3118030   5.002   5.208   6.879 -0.3442  0.3144 -0.2047
  161SAPE   C3118031   5.087   5.283   6.942  0.4443  0.5204 -1.4584
  161SAPE   O3218032   5.176   5.351   6.888  0.1866  0.3189 -0.0068
  161SAPE   C3218033   5.043   5.301   7.088 -0.4153 -0.1181  0.1697
  161SAPE   H2X18034   4.932   5.296   7.095 -0.4653  1.9732  2.2148
  161SAPE   H2Y18035   5.063   5.403   7.125 -1.8728  0.4301 -0.4777
  161SAPE   C2318036   5.095   4.708   6.792  0.4769 -0.2836 -0.5988
  161SAPE   H3R18037   5.203   4.704   6.816  0.1313  0.0670  1.1932
  161SAPE   H3S18038   5.081   4.710   6.682 -1.4712 -4.3075 -0.6220
  161SAPE   C2418039   5.021   4.581   6.854  0.3354  0.0856 -0.3519
  161SAPE   H4R18040   5.039   4.563   6.962 -1.1577  0.3413 -0.0336
  161SAPE   H4S18041   5.059   4.491   6.801  2.7056 -0.0990  1.5153
  161SAPE   C2518042   4.868   4.596   6.844 -0.3161  0.6050  0.5982
  161SAPE   H5R18043   4.829   4.601   6.741 -0.5889  0.1602  0.6788
  161SAPE   C2618044   4.771   4.618   6.936 -0.6281 -0.4130 -0.5446
  161SAPE   H6R18045   4.666   4.610   6.905 -1.2445 -2.1844  1.7057
  161SAPE   C2718046   4.797   4.640   7.084 -0.7723 -0.7168  0.4064
  161SAPE   H7R18047   4.901   4.614   7.113 -0.1852  2.0018  1.0232
  161SAPE   H7S18048   4.729   4.573   7.140 -2.3902  1.1477  0.8090
  161SAPE   C2818049   4.775   4.784   7.140  0.6354  0.4027  0.5854
  161SAPE   H8R18050   4.803   4.858   7.064  0.8426 -0.5321 -0.2657
  161SAPE   C2918051   4.718   4.814   7.254  0.1421  0.1328 -0.4917
  161SAPE   H9R18052   4.692   4.919   7.275 -0.5988 -0.0115 -0.6583
  161SAPE  C21018053   4.666   4.727   7.366  0.4669  0.0917  0.0104
  161SAPE  H10R18054   4.711   4.626   7.354 -0.3296 -0.0120 -2.8802
  161SAPE  H10S18055   4.556   4.713   7.364  0.0308  2.8759  1.1732
  161SAPE  C21118056   4.705   4.795   7.496 -0.0521  0.2295 -0.1390
  161SAPE  H11R18057   4.715   4.905   7.498 -1.8664  0.4325 -0.4503
  161SAPE  C21218058   4.732   4.740   7.615 -0.6601 -0.5262 -0.4585
  161SAPE  H12R18059   4.763   4.804   7.698  1.8055 -0.1973 -1.5348
  161SAPE  C21318060   4.727   4.592   7.645  0.3301  0.6022  0.1695
  161SAPE  H13R18061   4.827   4.547   7.663 -0.2447 -0.1481  1.6849
  161SAPE  H13S18062   4.684   4.541   7.556  1.2901 -0.5878  0.3575
  161SAPE  C21418063   4.623   4.579   7.757 -0.0998 -0.8298 -0.2718
  161SAPE  H14R18064   4.528   4.633   7.745 -0.3613 -1.4005 -0.8236
  161SAPE  C21518065   4.639   4.511   7.863 -0.3381 -0.4000  0.1008
  161SAPE  H15R18066   4.563   4.513   7.943  0.6001  1.6592  1.0259
  161SAPE  C21618067   4.762   4.438   7.901  0.4171  0.5459  0.1769
  161SAPE  H16R18068   4.809   4.371   7.825  0.9537  0.9295  0.1688
  161SAPE  H16S18069   4.742   4.361   7.979  0.8424  0.2288 -0.0232
  161SAPE  C21718070   4.873   4.536   7.953 -0.5880 -0.0896 -0.2711
  161SAPE  H17R18071   4.909   4.594   7.865 -1.6771 -0.4091 -0.9470
  161SAPE  H17S18072   4.957   4.477   7.998 -0.9442  1.3974  2.5490
  161SAPE  C21818073   4.827   4.647   8.049  1.1847 -0.1291 -0.8016
  161SAPE  H18R18074   4.754   4.706   7.989 -0.7901 -1.9242 -0.2719
  161SAPE  H18S18075   4.924   4.697   8.071  1.4461 -1.5269  1.4457
  161SAPE  C21918076   4.765   4.603   8.182  1.0066  0.2818  0.7550
  161SAPE  H19R18077   4.824   4.534   8.248  0.9576 -0.0756  0.4303
  161SAPE  H19S18078   4.668   4.552   8.160  1.1679  1.3808 -3.2258
  161SAPE  C22018079   4.748   4.728   8.275 -0.6864  0.2908  0.1823
  161SAPE  H20R18080   4.838   4.790   8.287  1.9209 -3.3349  1.1103
  161SAPE  H20S18081   4.732   4.696   8.380 -0.1966  0.1413  0.2128
  161SAPE  H20T18082   4.666   4.793   8.238 -1.4849 -0.2684  0.9270
  161SAPE   C3318083   5.101   5.199   7.183 -1.1261  0.0355  0.1996
  161SAPE   H3X18084   5.135   5.247   7.278  1.5771 -1.0743 -0.1122
  161SAPE   H3Y18085   5.199   5.177   7.136 -1.4975 -0.3370 -0.4217
  161SAPE   C3418086   5.012   5.083   7.215  0.3933  0.2762 -0.6046
  161SAPE   H4X18087   5.001   5.025   7.121 -1.5085  0.0439 -0.2840
  161SAPE   H4Y18088   4.912   5.116   7.250  0.7703 -0.8015  1.7071
  161SAPE   C3518089   5.078   4.988   7.317  0.1250 -0.3843  0.0411
  161SAPE   H5X18090   5.188   4.997   7.306  0.1307  1.0227  1.0370
  161SAPE   H5Y18091   5.042   4.884   7.297 -0.2870 -0.3508  0.5732
  161SAPE   C3618092   5.039   5.029   7.459 -0.2638  0.3300 -0.1289
  161SAPE   H6X18093   4.929   5.011   7.459 -0.5520  1.9355  0.6155
  161SAPE   H6Y18094   5.067   5.136   7.469 -1.8643  0.7937 -0.2533
  161SAPE   C3718095   5.081   4.942   7.579  0.1104  0.3489 -0.3887
  161SAPE   H7X18096   5.192   4.938   7.579  0.0592 -2.3778 -0.0815
  161SAPE   H7Y18097   5.056   4.834   7.572 -2.2192  0.9382 -3.5964
  161SAPE   C3818098   5.022   4.999   7.710 -1.0620  0.0633 -0.4029
  161SAPE   H8X18099   4.914   4.974   7.706 -0.7318 -1.4598 -0.2360
  161SAPE   H8Y18100   5.047   5.106   7.726  1.7531 -0.3135 -1.5879
  161SAPE   C3918101   5.087   4.928   7.833  0.1970  0.0169  0.4098
  161SAPE   H9X18102   5.196   4.947   7.830  0.3186 -0.6083  0.6840
  161SAPE   H9Y18103   5.066   4.822   7.806 -2.7089  0.9393 -1.4077
  161SAPE  C31018104   5.027   4.964   7.976 -1.0670  0.2852 -0.3687
  161SAPE  H10X18105   4.926   4.918   7.976 -1.1440  0.4172  0.7673
  161SAPE  H10Y18106   5.024   5.074   7.982  1.4212  0.4013  0.1141
  161SAPE  C31118107   5.117   4.910   8.088 -0.1133  0.8533 -0.0820
  161SAPE  H11X18108   5.159   4.809   8.066  0.9271  1.1237  0.6008
  161SAPE  H11Y18109   5.058   4.895   8.181 -0.7370 -0.6956 -0.6844
  161SAPE  C31218110   5.231   5.011   8.100  0.4095 -0.0211  0.1927
  161SAPE  H12X18111   5.201   5.103   8.155  0.9826  0.6555 -0.5968
  161SAPE  H12Y18112   5.274   5.053   8.007 -0.9081  0.0904 -0.3890
  161SAPE  C31318113   5.353   4.954   8.170 -0.0700 -0.2619  0.5433
  161SAPE  H13X18114   5.439   5.024   8.172 -0.9114  0.9233 -1.4223
  161SAPE  H13Y18115   5.389   4.863   8.117 -0.0473 -2.1634  3.6166
  161SAPE  C31418116   5.319   4.896   8.306 -0.1696  0.1472 -0.7271
  161SAPE  H14X18117   5.404   4.836   8.344  2.0302  2.5227 -1.5980
  161SAPE  H14Y18118   5.239   4.821   8.288 -0.1638 -0.3725  1.2271
  161SAPE  C31518119   5.267   4.996   8.411  0.1307  0.6891 -0.2948
  161SAPE  H15X18120   5.156   4.996   8.418 -0.1676  0.7185 -3.5831
  161SAPE  H15Y18121   5.289   5.099   8.374  2.7354  0.7787  1.2210
  161SAPE  C31618122   5.337   4.989   8.545  0.1022  0.9500  0.2591
  161SAPE  H16X18123   5.444   4.962   8.531 -0.8762 -3.2323 -0.6476
  161SAPE  H16Y18124   5.300   4.908   8.612 -0.6206  0.5141 -0.6386
  161SAPE  C31718125   5.312   5.118   8.624 -0.2121  0.0109  0.2457
  161SAPE  H17X18126   5.203   5.125   8.642  0.0176  0.9148  1.3886
  161SAPE  H17Y18127   5.340   5.208   8.566 -0.7768  0.3460  0.4864
  161SAPE  C31818128   5.372   5.123   8.770 -0.6985 -0.0412 -0.2633
  161SAPE  H18X18129   5.367   5.019   8.808 -1.3308 -0.5719 -1.7492
  161SAPE  H18Y18130   5.319   5.197   8.833  0.0003 -1.4647  2.1398
  161SAPE  H18Z18131   5.480   5.150   8.771 -0.4654 -0.4925  3.8119
  162SAPE     N18132   2.478   6.724   6.271 -0.1317 -0.2560  0.0790
  162SAPE   HN118133   2.485   6.626   6.238  0.3483  0.6661 -2.8209
  162SAPE   HN218134   2.553   6.745   6.339 -1.3482 -3.0849  2.5129
  162SAPE   HN318135   2.384   6.742   6.312  0.8405  2.5554  1.3521
  162SAPE   C1218136   2.495   6.827   6.157 -0.7350  0.6846 -0.5816
  162SAPE  H12A18137   2.487   6.929   6.200 -1.9866  0.3456  0.0384
  162SAPE  H12B18138   2.407   6.815   6.090 -1.5589  2.5104  0.1167
  162SAPE   C1118139   2.624   6.803   6.078  0.2210  0.4126  0.1211
  162SAPE  H11A18140   2.638   6.886   6.006 -0.9199 -0.8912 -1.6913
  162SAPE  H11B18141   2.609   6.708   6.022 -1.8370  0.1284  1.0714
  162SAPE     P18142   2.883   6.818   6.132  0.2017  0.0858  0.0160
  162SAPE   O1318143   2.981   6.747   6.220  0.0076 -0.7648 -0.5142
  162SAPE   O1418144   2.910   6.823   5.989  0.2535  0.0380  0.0788
  162SAPE   O1218145   2.742   6.774   6.166  0.4553 -0.0685 -0.2202
  162SAPE   O1118146   2.880   6.969   6.175  0.3483  0.2047  0.1909
  162SAPE    C118147   3.003   7.042   6.161 -0.2377 -0.5925  0.2355
  162SAPE    HA18148   3.089   6.975   6.139 -0.5774 -0.4365 -1.7174
  162SAPE    HB18149   2.996   7.110   6.074  3.5132  0.5740  0.6838
  162SAPE    C218150   3.037   7.124   6.286 -0.6891  0.0038 -0.6586
  162SAPE    HS18151   3.063   7.060   6.374 -1.0276 -0.4223 -0.8654
  162SAPE   O2118152   2.926   7.216   6.316  0.1997  0.1212  0.4266
  162SAPE   C2118153   2.841   7.175   6.407 -0.0087 -0.5961  0.5000
  162SAPE   O2218154   2.838   7.067   6.459  0.7740 -0.3585  0.0710
  162SAPE   C2218155   2.737   7.285   6.443 -0.6882  0.3865 -0.6999
  162SAPE   H2R18156   2.691   7.247   6.536 -0.5196  2.8067  0.4568
  162SAPE   H2S18157   2.792   7.380   6.465  0.9045  0.0302 -2.7613
  162SAPE    C318158   3.163   7.212   6.273 -0.5627 -0.1719  0.2570
  162SAPE    HX18159   3.127   7.304   6.222 -0.8647  1.3062  2.9877
  162SAPE    HY18160   3.240   7.164   6.210 -0.0755 -1.6851  1.9291
  162SAPE   O3118161   3.228   7.248   6.398 -0.7811  0.0643 -0.8542
  162SAPE   C3118162   3.171   7.352   6.459  0.3864 -0.8439 -0.0132
  162SAPE   O3218163   3.078   7.411   6.416  0.3926 -0.2467  0.1548
  162SAPE   C3218164   3.246   7.377   6.593  0.4414  0.7995  0.1220
  162SAPE   H2X18165   3.348   7.418   6.575  0.7483  0.1881  0.4073
  162SAPE   H2Y18166   3.269   7.279   6.640  0.6784  0.5759 -0.4537
  162SAPE   C2318167   2.630   7.313   6.344  0.4827 -0.0866  0.5630
  162SAPE   H3R18168   2.682   7.309   6.246 -1.2637  1.9362 -0.5452
  162SAPE   H3S18169   2.603   7.421   6.350 -2.2600 -0.7029  0.2682
  162SAPE   C2418170   2.504   7.224   6.347  0.9567 -0.5759  0.7196
  162SAPE   H4R18171   2.527   7.115   6.337  1.9739 -0.3862  0.9040
  162SAPE   H4S18172   2.455   7.245   6.250  2.5226  1.7149  0.3571
  162SAPE   C2518173   2.406   7.261   6.454 -0.2555  0.3152 -0.1956
  162SAPE   H5R18174   2.332   7.341   6.437 -0.3109  0.6913  1.5859
  162SAPE   C2618175   2.400   7.204   6.579 -0.1903  0.0777  0.7226
  162SAPE   H6R18176   2.314   7.240   6.637  0.1936  2.2534  0.0388
  162SAPE   C2718177   2.485   7.089   6.628 -0.5852  0.4975  0.0675
  162SAPE   H7R18178   2.555   7.135   6.702  1.5971 -1.4353 -0.6537
  162SAPE   H7S18179   2.548   7.032   6.556 -0.0285  0.9146  0.2114
  162SAPE   C2818180   2.403   6.986   6.700 -0.6796  0.1088 -0.3040
  162SAPE   H8R18181   2.314   6.948   6.647 -0.4619  2.5805 -2.6871
  162SAPE   C2918182   2.439   6.931   6.819  0.2267  0.1942  0.1596
  162SAPE   H9R18183   2.364   6.868   6.870 -0.6756 -0.0800 -1.4202
  162SAPE  C21018184   2.557   6.962   6.904  0.4405 -0.5046 -0.0358
  162SAPE  H10R18185   2.522   7.052   6.959  2.4513  0.9964 -1.0939
  162SAPE  H10S18186   2.646   6.990   6.844 -0.1727 -0.4487 -0.9444
  162SAPE  C21118187   2.604   6.848   6.988 -0.1851 -0.0542  0.3750
  162SAPE  H11R18188   2.628   6.753   6.937  0.2724  1.9647 -3.5213
  162SAPE  C21218189   2.619   6.853   7.125 -0.3511 -0.2774  0.5095
  162SAPE  H12R18190   2.666   6.770   7.181  1.1951  0.8108  0.8806
  162SAPE  C21318191   2.588   6.972   7.210 -0.0660 -0.3719  0.6311
  162SAPE  H13R18192   2.579   7.066   7.152 -0.5167 -0.7757  0.0401
  162SAPE  H13S18193   2.677   6.982   7.277  1.0146  0.6600 -0.8776
  162SAPE  C21418194   2.470   6.968   7.304  0.4087 -0.2707 -0.2472
  162SAPE  H14R18195   2.372   6.962   7.255  0.7865  4.3031 -2.0080
  162SAPE  C21518196   2.459   6.991   7.436 -0.6323 -0.9073 -0.0830
  162SAPE  H15R18197   2.359   6.998   7.481 -0.7774  0.2943 -0.5447
  162SAPE  C21618198   2.562   7.020   7.539 -0.2453  0.4610  0.0542
  162SAPE  H16R18199   2.548   7.125   7.573  0.0661  0.1617  1.1314
  162SAPE  H16S18200   2.667   7.014   7.503 -0.5974  0.5152 -1.0388
  162SAPE  C21718201   2.540   6.946   7.674 -0.2869  0.2453  0.1730
  162SAPE  H17R18202   2.549   6.836   7.664  0.7609  0.3233  0.1816
  162SAPE  H17S18203   2.439   6.972   7.715 -0.3384  0.1233  0.1223
  162SAPE  C21818204   2.633   7.007   7.780 -0.3091 -0.2811  0.6625
  162SAPE  H18R18205   2.590   6.979   7.879 -1.0269 -1.5919  0.0034
  162SAPE  H18S18206   2.630   7.118   7.776 -3.2718 -0.2266  1.7607
  162SAPE  C21918207   2.775   6.960   7.772  0.4794  0.6148  0.0363
  162SAPE  H19R18208   2.841   6.999   7.853  0.6433 -0.5395  0.4787
  162SAPE  H19S18209   2.817   7.009   7.681 -1.6207  3.3184  0.3771
  162SAPE  C22018210   2.780   6.805   7.789  0.1768 -0.1426 -0.2202
  162SAPE  H20R18211   2.721   6.775   7.878  0.5171  2.9710  1.1896
  162SAPE  H20S18212   2.885   6.772   7.801 -0.6827 -2.3401  2.1035
  162SAPE  H20T18213   2.731   6.760   7.701 -2.6395 -1.1859  1.7383
  162SAPE   C3318214   3.170   7.467   6.694 -0.6648 -0.6000  0.1203
  162SAPE   H3X18215   3.149   7.567   6.651  2.8877 -0.0541 -0.6623
  162SAPE   H3Y18216   3.243   7.474   6.777 -1.6016  0.1259  0.9103
  162SAPE   C3418217   3.040   7.404   6.741 -0.0078  0.1335 -1.1427
  162SAPE   H4X18218   3.052   7.309   6.796 -1.3402  0.5055 -0.1381
  162SAPE   H4Y18219   2.977   7.383   6.652 -0.2235 -0.6775 -0.8022
  162SAPE   C3518220   2.960   7.501   6.835 -0.4417 -0.0593 -0.8556
  162SAPE   H5X18221   2.857   7.461   6.824 -0.2759 -1.3773  1.5769
  162SAPE   H5Y18222   2.974   7.601   6.790 -1.4690  0.0576 -0.9276
  162SAPE   C3618223   2.994   7.505   6.984 -0.6359  0.3352 -0.8959
  162SAPE   H6X18224   3.086   7.564   7.003 -1.8614  1.8296  0.8574
  162SAPE   H6Y18225   2.998   7.398   7.012  0.8088  0.5522 -0.2361
  162SAPE   C3718226   2.895   7.572   7.075 -0.4316 -0.1835 -0.1772
  162SAPE   H7X18227   2.934   7.561   7.179 -0.8386 -2.1243 -0.1896
  162SAPE   H7Y18228   2.797   7.520   7.067 -0.3617 -0.9250  2.6164
  162SAPE   C3818229   2.883   7.722   7.043  0.6149  0.5536  0.5421
  162SAPE   H8X18230   2.852   7.730   6.936  0.1856  0.6033  0.6648
  162SAPE   H8Y18231   2.969   7.788   7.066  1.4905 -0.4614  0.2729
  162SAPE   C3918232   2.760   7.790   7.110  0.3995 -0.4272 -0.6530
  162SAPE   H9X18233   2.661   7.743   7.092 -0.7311  1.5297  0.0986
  162SAPE   H9Y18234   2.756   7.895   7.074  3.1309  1.1682  3.1100
  162SAPE  C31018235   2.786   7.807   7.268  0.6897 -0.0866  0.8080
  162SAPE  H10X18236   2.862   7.884   7.296  0.8697  0.8583 -1.9381
  162SAPE  H10Y18237   2.804   7.709   7.315 -2.1391 -0.5895  0.9973
  162SAPE  C31118238   2.654   7.859   7.332  0.6379 -0.0865  0.7114
  162SAPE  H11X18239   2.566   7.792   7.317  0.5525  0.2050 -0.1002
  162SAPE  H11Y18240   2.616   7.945   7.273 -0.6964 -0.2980  1.2029
  162SAPE  C31218241   2.668   7.896   7.480 -0.1702  0.1432  0.1292
  162SAPE  H12X18242   2.585   7.964   7.508 -1.1285 -0.7708 -0.4258
  162SAPE  H12Y18243   2.751   7.970   7.485  0.7841 -0.9121  0.4775
  162SAPE  C31318244   2.688   7.774   7.575  0.0504  0.4556  0.4538
  162SAPE  H13X18245   2.781   7.721   7.544 -0.2284 -1.1660  2.2006
  162SAPE  H13Y18246   2.597   7.711   7.571  0.0239  0.4453  1.1626
  162SAPE  C31418247   2.698   7.809   7.725 -0.0930  0.1010 -0.1474
  162SAPE  H14X18248   2.606   7.852   7.770 -1.1452 -0.0189 -2.1025
  162SAPE  H14Y18249   2.773   7.890   7.733  1.6785 -1.2673 -1.7812
  162SAPE  C31518250   2.738   7.692   7.825 -0.0393 -0.3791  0.2069
  162SAPE  H15X18251   2.847   7.673   7.826  0.4950  2.2646 -0.2939
  162SAPE  H15Y18252   2.684   7.601   7.790  0.0859 -1.0127  1.6078
  162SAPE  C31618253   2.708   7.719   7.969 -0.1396  0.5290 -0.0376
  162SAPE  H16X18254   2.695   7.628   8.033  3.0855  0.8146  1.2044
  162SAPE  H16Y18255   2.610   7.768   7.986 -1.0492 -1.5663  1.1665
  162SAPE  C31718256   2.827   7.793   8.044  0.7932  0.1382  0.2177
  162SAPE  H17X18257   2.857   7.893   8.007  1.9834  0.2336  1.3339
  162SAPE  H17Y18258   2.914   7.726   8.025 -0.4565 -0.8897 -2.4126
  162SAPE  C31818259   2.797   7.823   8.195 -0.1954  0.2811  0.4392
  162SAPE  H18X18260   2.789   7.724   8.245 -0.4472 -0.4672 -1.0257
  162SAPE  H18Y18261   2.712   7.894   8.209 -0.8456 -0.4296  0.1953
  162SAPE  H18Z18262   2.883   7.884   8.231  1.0853 -0.8378 -0.6383
  163SAPE     N18263   1.933   6.552   6.495  0.3842 -0.0652  0.8269
  163SAPE   HN118264   1.839   6.523   6.461  0.2385  0.5199  0.7177
  163SAPE   HN218265   1.951   6.648   6.461 -0.6814  0.8697  2.7399
  163SAPE   HN318266   2.014   6.501   6.455 -0.3494  1.2265 -2.6347
  163SAPE   C1218267   1.955   6.549   6.639 -0.1034  0.2369  0.1694
  163SAPE  H12A18268   1.884   6.628   6.671  0.1211  1.1457 -1.4554
  163SAPE  H12B18269   2.060   6.579   6.660  0.2161 -1.0500  0.4907
  163SAPE   C1118270   1.939   6.413   6.701 -0.3460  0.3810 -0.2904
  163SAPE  H11A18271   1.833   6.379   6.690 -0.1260 -0.0332 -1.1396
  163SAPE  H11B18272   1.945   6.437   6.810 -1.4388 -0.7825  0.0682
  163SAPE     P18273   2.010   6.178   6.607 -0.0018 -0.1772  0.4823
  163SAPE   O1318274   1.948   6.194   6.474 -0.0409 -0.1237 -0.3955
  163SAPE   O1418275   2.137   6.096   6.611  0.3397  0.1969 -0.6066
  163SAPE   O1218276   2.035   6.314   6.666  0.3106  0.3734  0.3095
  163SAPE   O1118277   1.901   6.119   6.707 -0.1215  0.4911  0.3928
  163SAPE    C118278   1.947   6.100   6.841 -0.2422 -0.0706 -0.9510
  163SAPE    HA18279   2.024   6.020   6.849  0.4842  0.7052 -0.1261
  163SAPE    HB18280   1.985   6.193   6.888  1.7117 -0.1455 -2.2544
  163SAPE    C218281   1.824   6.074   6.935 -0.9968  0.3243  0.0493
  163SAPE    HS18282   1.864   6.047   7.036  1.5874  2.9242 -0.1560
  163SAPE   O2118283   1.750   5.971   6.868  0.2934  0.0125 -0.0455
  163SAPE   C2118284   1.799   5.846   6.895 -0.0490 -0.1710  0.0431
  163SAPE   O2218285   1.885   5.825   6.979  0.6139 -0.1204 -0.0163
  163SAPE   C2218286   1.743   5.744   6.805  0.1124 -0.1150  0.5431
  163SAPE   H2R18287   1.635   5.761   6.785 -0.5033 -1.0131  2.7953
  163SAPE   H2S18288   1.788   5.768   6.707  2.0635 -2.9192  0.6285
  163SAPE    C318289   1.733   6.199   6.950 -0.5315 -0.1706 -0.1085
  163SAPE    HX18290   1.730   6.254   6.854  0.8451  1.2822  0.6217
  163SAPE    HY18291   1.797   6.265   7.013  0.7968 -0.6397 -0.9349
  163SAPE   O3118292   1.612   6.177   7.009 -0.1261  0.5816  0.2189
  163SAPE   C3118293   1.595   6.155   7.137 -0.4231  0.2006  0.2591
  163SAPE   O3218294   1.691   6.133   7.209  0.1178  0.4136 -0.0065
  163SAPE   C3218295   1.448   6.149   7.172  1.3938  0.6697  0.6327
  163SAPE   H2X18296   1.421   6.042   7.184 -0.8387  1.4766  4.5281
  163SAPE   H2Y18297   1.399   6.204   7.088  3.1612 -0.2206 -1.0840
  163SAPE   C2318298   1.776   5.601   6.845  0.6798 -0.6029 -0.6023
  163SAPE   H3R18299   1.885   5.593   6.868  0.3454 -0.6951  1.0565
  163SAPE   H3S18300   1.763   5.538   6.755 -0.6356  0.0527 -0.8898
  163SAPE   C2418301   1.692   5.550   6.967  0.8850 -0.1393 -0.2731
  163SAPE   H4R18302   1.733   5.581   7.065 -1.3163  3.0004 -0.1941
  163SAPE   H4S18303   1.712   5.442   6.947  0.8782 -0.3465  0.8105
  163SAPE   C2518304   1.547   5.589   6.975 -0.0664  0.0125  0.3182
  163SAPE   H5R18305   1.479   5.541   6.902  0.5752  0.1274 -0.3764
  163SAPE   C2618306   1.491   5.668   7.071  0.9078  0.2058 -0.6978
  163SAPE   H6R18307   1.383   5.687   7.073  0.4559 -1.8623  2.3230
  163SAPE   C2718308   1.556   5.738   7.185 -0.1168  0.7247 -0.3499
  163SAPE   H7R18309   1.555   5.848   7.170  1.8099  0.7800 -0.3056
  163SAPE   H7S18310   1.667   5.726   7.187  0.1482  2.9610  1.1317
  163SAPE   C2818311   1.501   5.707   7.319  0.3910  1.0795 -0.5403
  163SAPE   H8R18312   1.405   5.652   7.322  0.6631  0.5557 -1.1406
  163SAPE   C2918313   1.567   5.724   7.434  0.0124 -1.0585 -0.4392
  163SAPE   H9R18314   1.513   5.714   7.530  2.0805  3.4493  1.5118
  163SAPE  C21018315   1.697   5.805   7.449  0.7360  0.4411 -0.2386
  163SAPE  H10R18316   1.689   5.902   7.396 -0.0669  0.1979 -0.5778
  163SAPE  H10S18317   1.781   5.743   7.410  0.7899 -0.2264  0.9085
  163SAPE  C21118318   1.734   5.845   7.590 -0.0432 -0.3166 -1.5187
  163SAPE  H11R18319   1.706   5.943   7.631 -0.4192 -0.3087 -1.7960
  163SAPE  C21218320   1.807   5.778   7.679  0.5253  0.3865 -0.0115
  163SAPE  H12R18321   1.827   5.817   7.780  0.6470 -0.7292  0.4152
  163SAPE  C21318322   1.863   5.641   7.661  0.5313 -0.0851  0.1173
  163SAPE  H13R18323   1.826   5.593   7.568  0.4348 -2.4924  1.3374
  163SAPE  H13S18324   1.828   5.564   7.733  0.2329 -0.7205 -0.6874
  163SAPE  C21418325   2.017   5.640   7.670  0.8922  0.4222  0.2368
  163SAPE  H14R18326   2.068   5.693   7.588 -2.9193 -0.6146 -3.0976
  163SAPE  C21518327   2.090   5.579   7.770 -0.4706 -0.1035  0.3323
  163SAPE  H15R18328   2.200   5.581   7.765 -0.3933  0.4900  1.7542
  163SAPE  C21618329   2.038   5.504   7.885  0.2993 -0.5687 -0.0554
  163SAPE  H16R18330   1.939   5.535   7.926 -0.2929 -0.9503 -1.1440
  163SAPE  H16S18331   2.111   5.511   7.968  0.5185 -1.8610 -0.1213
  163SAPE  C21718332   2.019   5.361   7.842  0.1765  0.6435  0.0326
  163SAPE  H17R18333   1.944   5.352   7.760 -0.6345 -0.9880  0.9068
  163SAPE  H17S18334   1.979   5.307   7.930 -0.4181  0.6528 -0.2317
  163SAPE  C21818335   2.148   5.294   7.790 -0.7042  1.0428  0.5205
  163SAPE  H18R18336   2.227   5.329   7.859 -0.2467  0.2464  0.4187
  163SAPE  H18S18337   2.175   5.328   7.687 -3.5197  3.6487  0.5235
  163SAPE  C21918338   2.143   5.140   7.791  0.6909 -0.0779 -0.2927
  163SAPE  H19R18339   2.135   5.109   7.897 -0.7399  0.7274 -0.1400
  163SAPE  H19S18340   2.236   5.092   7.754  0.9034 -1.0507  1.4301
  163SAPE  C22018341   2.022   5.071   7.716  0.0293 -0.0649 -0.3340
  163SAPE  H20R18342   1.924   5.117   7.738  0.1636 -0.0404  0.2188
  163SAPE  H20S18343   2.025   4.961   7.735  0.2084  0.0998  0.6249
  163SAPE  H20T18344   2.035   5.076   7.606 -1.3270 -1.4573 -0.5930
  163SAPE   C3318345   1.423   6.193   7.318 -0.3095  0.1061 -0.0774
  163SAPE   H3X18346   1.435   6.303   7.330  1.9700  0.0870 -1.5215
  163SAPE   H3Y18347   1.486   6.134   7.388  1.8568  1.4927 -0.7406
  163SAPE   C3418348   1.280   6.148   7.360 -0.6607 -0.2186 -0.7738
  163SAPE   H4X18349   1.269   6.043   7.326  0.6765 -1.1723  1.4985
  163SAPE   H4Y18350   1.211   6.206   7.295 -1.6312  1.4205  1.5845
  163SAPE   C3518351   1.254   6.172   7.505  0.1439 -0.0785  0.1703
  163SAPE   H5X18352   1.248   6.278   7.538  2.0714 -0.6134  2.5605
  163SAPE   H5Y18353   1.330   6.113   7.561 -1.7164 -1.3711  1.4382
  163SAPE   C3618354   1.110   6.112   7.531 -0.2935  0.0027  0.5522
  163SAPE   H6X18355   1.096   6.014   7.481  0.3581  0.4028 -0.4661
  163SAPE   H6Y18356   1.036   6.164   7.466 -1.3151 -0.8857  0.9806
  163SAPE   C3718357   1.070   6.129   7.676  0.4415 -1.0232 -0.8630
  163SAPE   H7X18358   1.069   6.235   7.709 -0.3980 -1.4153  0.4405
  163SAPE   H7Y18359   1.125   6.072   7.754 -1.3832 -0.7025  0.7480
  163SAPE   C3818360   0.923   6.088   7.695  1.2181 -0.2364  0.4246
  163SAPE   H8X18361   0.927   5.983   7.659 -0.4123  0.4819 -2.2208
  163SAPE   H8Y18362   0.849   6.144   7.633  0.7990 -1.7214 -0.4717
  163SAPE   C3918363   0.869   6.102   7.840  0.2540  0.0969  0.0408
  163SAPE   H9X18364   0.761   6.079   7.831  0.2124  0.8557 -2.0043
  163SAPE   H9Y18365   0.857   6.204   7.882 -1.2784 -0.1990  0.3856
  163SAPE  C31018366   0.944   6.006   7.932  0.0041  0.3540 -0.0794
  163SAPE  H10X18367   1.052   6.031   7.936  0.1213 -0.2265  0.7736
  163SAPE  H10Y18368   0.931   5.913   7.872 -0.9653  2.6264 -3.7039
  163SAPE  C31118369   0.879   6.000   8.074 -0.4558 -0.4330  0.0922
  163SAPE  H11X18370   0.772   5.973   8.066 -0.5381 -0.6459  1.5165
  163SAPE  H11Y18371   0.883   6.105   8.108  1.5046 -0.8071  1.1852
  163SAPE  C31218372   0.961   5.917   8.171  0.5834 -0.2582 -0.1651
  163SAPE  H12X18373   1.060   5.967   8.178  0.0562  1.2479 -2.6226
  163SAPE  H12Y18374   0.957   5.820   8.116 -1.5359  0.1048 -0.7460
  163SAPE  C31318375   0.901   5.909   8.312  0.2490 -0.2503  0.4486
  163SAPE  H13X18376   0.792   5.898   8.298  0.2749 -0.6870  0.5760
  163SAPE  H13Y18377   0.920   6.008   8.359  0.6033 -0.8101  1.5173
  163SAPE  C31418378   0.962   5.801   8.391 -0.1793  0.1092  0.4501
  163SAPE  H14X18379   1.062   5.843   8.414  0.7436 -2.3551  1.2748
  163SAPE  H14Y18380   0.956   5.706   8.333 -2.8790  0.6947 -0.3811
  163SAPE  C31518381   0.877   5.774   8.512  0.6986 -0.0497  0.5439
  163SAPE  H15X18382   0.776   5.741   8.478  0.9963  0.5345 -0.9683
  163SAPE  H15Y18383   0.863   5.871   8.564  0.8732  1.3772 -1.9135
  163SAPE  C31618384   0.935   5.676   8.615 -0.1027 -0.8109 -0.2806
  163SAPE  H16X18385   1.026   5.724   8.657 -2.4737  0.9637  3.2666
  163SAPE  H16Y18386   0.958   5.582   8.561  0.3244 -0.6824 -0.3231
  163SAPE  C31718387   0.845   5.653   8.740  0.2763 -0.5774 -0.3943
  163SAPE  H17X18388   0.740   5.668   8.705 -0.1798  0.2321  1.1939
  163SAPE  H17Y18389   0.862   5.736   8.811 -2.1102 -0.2398 -0.1329
  163SAPE  C31818390   0.873   5.526   8.810 -0.3448  0.3406 -0.1980
  163SAPE  H18X18391   0.954   5.537   8.885  1.0232 -0.6384 -1.4750
  163SAPE  H18Y18392   0.898   5.452   8.731 -2.0875  1.0589 -1.4821
  163SAPE  H18Z18393   0.788   5.480   8.865 -2.1797  1.8612 -1.6260
  164SAPE     N18394   5.142   2.824   5.778 -0.1241  0.2039 -0.3027
  164SAPE   HN118395   5.210   2.812   5.700  0.8750 -1.1882  0.7333
  164SAPE   HN218396   5.204   2.842   5.860 -0.1757 -1.8550  0.2471
  164SAPE   HN318397   5.097   2.732   5.795  0.1315  0.3167  1.1118
  164SAPE   C1218398   5.028   2.918   5.755  0.8320 -0.4427  0.5951
  164SAPE  H12A18399   4.962   2.875   5.676 -0.6733  1.9384  0.4396
  164SAPE  H12B18400   5.069   3.012   5.711 -0.9673 -0.6357 -1.7546
  164SAPE   C1118401   4.929   2.941   5.874  0.4466 -0.5619 -0.4488
  164SAPE  H11A18402   4.863   3.023   5.840  1.2641  0.3306  0.0473
  164SAPE  H11B18403   4.983   2.979   5.964  0.8248 -0.9206 -0.5243
  164SAPE     P18404   4.755   2.811   6.020  0.2441  0.5151 -0.0720
  164SAPE   O1318405   4.656   2.719   5.967 -0.1734  0.3973  0.3331
  164SAPE   O1418406   4.807   2.779   6.153 -0.2444 -0.0238 -0.4977
  164SAPE   O1218407   4.869   2.824   5.914 -0.5060 -0.0394 -0.0055
  164SAPE   O1118408   4.693   2.957   6.024 -0.3669 -0.3588  0.3157
  164SAPE    C118409   4.738   3.055   6.113 -0.2739  0.6241  1.0359
  164SAPE    HA18410   4.813   3.022   6.189  2.1212  1.9903 -0.5881
  164SAPE    HB18411   4.790   3.133   6.053 -4.0152  2.9175  0.4605
  164SAPE    C218412   4.618   3.098   6.189 -0.6003  0.5803  0.2193
  164SAPE    HS18413   4.651   3.187   6.246 -1.6145  1.8253 -1.0713
  164SAPE   O2118414   4.570   2.989   6.266  0.0382  0.0878  0.0600
  164SAPE   C2118415   4.633   2.975   6.378  0.0355  0.0842 -0.2398
  164SAPE   O2218416   4.713   3.057   6.422 -0.2961  0.0987 -0.5321
  164SAPE   C2218417   4.583   2.843   6.445 -0.3009 -0.3753  0.0083
  164SAPE   H2R18418   4.485   2.885   6.475 -1.1139 -2.2014  0.0726
  164SAPE   H2S18419   4.573   2.771   6.361 -0.8695 -1.9191  1.3556
  164SAPE    C318420   4.508   3.155   6.099  1.0842  0.4008  0.0622
  164SAPE    HX18421   4.494   3.084   6.014  1.7130  0.4730 -0.1088
  164SAPE    HY18422   4.541   3.245   6.043 -0.2769  0.2397 -1.0482
  164SAPE   O3118423   4.377   3.174   6.161 -0.2807 -0.3194  0.0138
  164SAPE   C3118424   4.375   3.265   6.259  0.9694 -0.5131  0.6108
  164SAPE   O3218425   4.471   3.310   6.307 -0.6223 -0.1913 -0.5533
  164SAPE   C3218426   4.228   3.299   6.291 -0.2485 -0.5432 -0.0736
  164SAPE   H2X18427   4.169   3.208   6.269  2.4613 -2.2645 -0.6095
  164SAPE   H2Y18428   4.191   3.372   6.215 -1.8232 -0.7416  0.4726
  164SAPE   C2318429   4.646   2.790   6.573  0.1170 -0.1505  0.1883
  164SAPE   H3R18430   4.754   2.814   6.567 -0.1392  1.1610  0.4454
  164SAPE   H3S18431   4.628   2.680   6.576 -0.7567 -0.1240 -2.0452
  164SAPE   C2418432   4.580   2.861   6.694  0.3433  0.3862 -0.5940
  164SAPE   H4R18433   4.606   2.802   6.784 -0.5562  1.1008  0.1530
  164SAPE   H4S18434   4.472   2.837   6.678 -0.1596  1.0397  1.4549
  164SAPE   C2518435   4.618   3.007   6.728  0.0652  0.1959 -0.6234
  164SAPE   H5R18436   4.556   3.085   6.682 -1.4224 -1.2851 -1.2335
  164SAPE   C2618437   4.722   3.055   6.799 -0.6480  0.4088  0.1840
  164SAPE   H6R18438   4.736   3.164   6.809 -1.5597  0.3628  2.5017
  164SAPE   C2718439   4.825   2.968   6.857  0.0020  0.7926  0.2050
  164SAPE   H7R18440   4.922   3.023   6.864  0.4905  0.1068 -0.8832
  164SAPE   H7S18441   4.856   2.886   6.789 -1.1668  0.9527 -0.5398
  164SAPE   C2818442   4.790   2.895   6.987 -0.9147  0.1402 -0.4302
  164SAPE   H8R18443   4.692   2.845   6.980 -0.8456  0.1185 -1.3614
  164SAPE   C2918444   4.859   2.887   7.101 -0.3031 -0.5308  0.6073
  164SAPE   H9R18445   4.821   2.837   7.192 -0.2719 -1.1455  0.2889
  164SAPE  C21018446   4.997   2.953   7.119  0.3389 -0.3703  0.5944
  164SAPE  H10R18447   4.997   3.047   7.179  0.0343 -0.4445  0.7118
  164SAPE  H10S18448   5.029   2.992   7.019 -0.5964 -0.0403  0.4129
  164SAPE  C21118449   5.106   2.854   7.163 -0.1983 -0.1098 -0.7050
  164SAPE  H11R18450   5.136   2.780   7.087  0.7365  0.2879 -0.7287
  164SAPE  C21218451   5.159   2.860   7.284 -0.0770  0.8275 -0.1041
  164SAPE  H12R18452   5.250   2.803   7.310 -0.5686  1.3233  3.2218
  164SAPE  C21318453   5.131   2.955   7.398 -0.5797 -0.4833  0.9432
  164SAPE  H13R18454   5.154   2.912   7.498  4.9849  2.1355  1.1216
  164SAPE  H13S18455   5.024   2.986   7.389  0.0925  2.0828  1.1367
  164SAPE  C21418456   5.216   3.080   7.391  0.5333  0.0216  0.0280
  164SAPE  H14R18457   5.267   3.101   7.296 -1.1857 -0.9618 -1.1427
  164SAPE  C21518458   5.224   3.164   7.499  0.0139 -0.2471 -0.1259
  164SAPE  H15R18459   5.289   3.252   7.488 -0.3079 -0.2768 -2.9339
  164SAPE  C21618460   5.152   3.154   7.628  0.1876  0.2494 -0.6973
  164SAPE  H16R18461   5.223   3.154   7.713  0.3405  2.5195 -0.7547
  164SAPE  H16S18462   5.087   3.064   7.624  2.2315 -1.2668 -1.7087
  164SAPE  C21718463   5.046   3.267   7.659 -0.1689 -0.1458  0.5010
  164SAPE  H17R18464   4.983   3.277   7.568 -0.1893  1.1064  0.6365
  164SAPE  H17S18465   5.104   3.362   7.664 -0.9065  0.2852  0.9469
  164SAPE  C21818466   4.959   3.243   7.784 -0.1085 -0.3530  0.6191
  164SAPE  H18R18467   4.911   3.145   7.763  1.6481 -1.1165 -0.0455
  164SAPE  H18S18468   4.891   3.329   7.791  0.0638 -0.0064 -1.2373
  164SAPE  C21918469   5.026   3.235   7.916 -0.7733  0.0990 -0.0175
  164SAPE  H19R18470   5.072   3.334   7.938 -0.5817  0.1511 -0.6328
  164SAPE  H19S18471   5.117   3.172   7.907  0.6632  2.2245 -1.1184
  164SAPE  C22018472   4.930   3.199   8.038 -0.7060 -0.0719  0.8266
  164SAPE  H20R18473   4.986   3.211   8.133 -2.1734 -0.1624  1.7253
  164SAPE  H20S18474   4.889   3.097   8.029  1.5889 -1.2899  3.1041
  164SAPE  H20T18475   4.846   3.272   8.031 -0.3884  0.3011  0.8633
  164SAPE   C3318476   4.203   3.326   6.442 -0.0488 -0.1425 -0.3292
  164SAPE   H3X18477   4.110   3.385   6.451 -0.2729 -0.5122 -0.2176
  164SAPE   H3Y18478   4.289   3.385   6.481 -1.3988  0.6461  1.6283
  164SAPE   C3418479   4.189   3.190   6.516  0.9630 -0.3106  1.1765
  164SAPE   H4X18480   4.287   3.141   6.533  0.0007 -2.4769  0.8311
  164SAPE   H4Y18481   4.134   3.120   6.449 -0.1425 -0.3775  2.1210
  164SAPE   C3518482   4.119   3.185   6.653 -0.4543  0.6152  0.5406
  164SAPE   H5X18483   4.089   3.079   6.668  0.5710  0.4634  1.6742
  164SAPE   H5Y18484   4.031   3.252   6.663  0.0888  1.4780 -0.3356
  164SAPE   C3618485   4.222   3.209   6.765  0.5105  0.5795 -0.1997
  164SAPE   H6X18486   4.262   3.309   6.740 -0.0222  0.6962 -0.5891
  164SAPE   H6Y18487   4.300   3.129   6.764  0.2406  0.3206 -0.7434
  164SAPE   C3718488   4.160   3.192   6.908  0.1843 -0.3522  0.4461
  164SAPE   H7X18489   4.104   3.097   6.911  0.3773 -0.7628 -3.4229
  164SAPE   H7Y18490   4.078   3.264   6.928  0.2868 -0.6635  2.1448
  164SAPE   C3818491   4.262   3.190   7.030 -0.0492  0.1277 -0.2895
  164SAPE   H8X18492   4.314   3.288   7.015 -1.8780  1.3973  1.2179
  164SAPE   H8Y18493   4.344   3.115   7.026 -0.5458 -0.4624  0.4341
  164SAPE   C3918494   4.204   3.170   7.170 -0.0964  0.3696  0.3956
  164SAPE   H9X18495   4.136   3.084   7.149 -0.4156  1.1014 -1.8215
  164SAPE   H9Y18496   4.138   3.254   7.202 -0.6025  0.5392 -1.0508
  164SAPE  C31018497   4.309   3.136   7.279 -0.0009 -0.1997  0.6724
  164SAPE  H10X18498   4.348   3.238   7.299 -0.3766  0.3302 -1.1982
  164SAPE  H10Y18499   4.402   3.086   7.242 -0.4513 -0.1911 -0.4756
  164SAPE  C31118500   4.260   3.072   7.412  0.4603  0.0723 -0.0742
  164SAPE  H11X18501   4.175   3.138   7.441  0.9653  0.1437  1.3034
  164SAPE  H11Y18502   4.323   3.080   7.504  0.6379  2.6615 -0.3707
  164SAPE  C31218503   4.202   2.933   7.397 -0.3628 -0.1681 -0.4093
  164SAPE  H12X18504   4.279   2.854   7.403 -0.3766 -0.1734 -0.2874
  164SAPE  H12Y18505   4.165   2.915   7.294  0.3241 -1.2119 -0.4806
  164SAPE  C31318506   4.098   2.909   7.507  0.0380 -0.0351  0.5168
  164SAPE  H13X18507   4.057   2.807   7.486  1.9161 -1.1783  2.0817
  164SAPE  H13Y18508   4.022   2.988   7.490 -0.8685 -1.3058 -1.9239
  164SAPE  C31418509   4.150   2.901   7.650 -0.2222  0.1171 -0.1006
  164SAPE  H14X18510   4.206   2.992   7.681  1.0389 -0.1419 -1.4705
  164SAPE  H14Y18511   4.226   2.820   7.657  0.9318  0.7808 -3.2549
  164SAPE  C31518512   4.051   2.881   7.762 -0.2931 -0.5547  0.2624
  164SAPE  H15X18513   4.021   2.775   7.754  1.7647 -1.1172 -0.6143
  164SAPE  H15Y18514   3.959   2.943   7.754 -0.3768 -0.2867  2.4808
  164SAPE  C31618515   4.113   2.900   7.894  0.9220  0.9959 -0.2599
  164SAPE  H16X18516   4.203   2.835   7.909  0.9309  1.2643  0.8775
  164SAPE  H16Y18517   4.034   2.871   7.966  0.6195  2.8501  0.1957
  164SAPE  C31718518   4.133   3.047   7.933  0.6591  0.2415 -0.2122
  164SAPE  H17X18519   4.036   3.086   7.896  0.1652  0.5848  1.3683
  164SAPE  H17Y18520   4.208   3.081   7.859 -1.3690 -0.9161 -2.9558
  164SAPE  C31818521   4.162   3.080   8.080  0.1611 -0.7483  0.1217
  164SAPE  H18X18522   4.200   3.184   8.084 -0.5630 -0.3282 -2.3185
  164SAPE  H18Y18523   4.234   3.012   8.130  1.6710 -0.3368 -1.3867
  164SAPE  H18Z18524   4.066   3.087   8.136  0.3936 -0.3049  0.4654
  165SAPE     N18525   5.428   5.440   6.432  0.2631 -0.6205 -0.0634
  165SAPE   HN118526   5.357   5.392   6.374 -0.4197 -0.8564  0.9434
  165SAPE   HN218527   5.522   5.437   6.388  1.1390  1.2561  1.4566
  165SAPE   HN318528   5.424   5.398   6.527  2.4067 -0.3391  0.2067
  165SAPE   C1218529   5.370   5.578   6.441  0.5899  0.0125 -0.1433
  165SAPE  H12A18530   5.383   5.631   6.344 -0.0436  0.7996  0.1907
  165SAPE  H12B18531   5.418   5.622   6.531 -2.6295 -1.4373  2.5270
  165SAPE   C1118532   5.217   5.561   6.462  0.1355 -0.6815 -0.3766
  165SAPE  H11A18533   5.171   5.662   6.470  1.5280  0.3509 -3.6363
  165SAPE  H11B18534   5.199   5.517   6.563  0.7911 -0.8213 -0.3133
  165SAPE     P18535   5.013   5.477   6.315  0.1197 -0.6321 -0.1931
  165SAPE   O1318536   5.015   5.526   6.175 -0.0714  0.5709 -0.3657
  165SAPE   O1418537   4.947   5.349   6.344  0.3432  0.5772  0.0718
  165SAPE   O1218538   5.159   5.478   6.361 -0.3221 -0.2846 -0.1141
  165SAPE   O1118539   4.952   5.592   6.410 -0.0217 -0.3716  0.1843
  165SAPE    C118540   4.888   5.709   6.360  0.3546 -0.7884 -0.2899
  165SAPE    HA18541   4.944   5.763   6.281 -2.8167  0.7935 -1.6393
  165SAPE    HB18542   4.787   5.684   6.323 -0.2385  0.8806  0.0858
  165SAPE    C218543   4.878   5.817   6.471  0.1269  0.1447 -0.1048
  165SAPE    HS18544   4.981   5.828   6.511  0.0854 -3.0940  1.1658
  165SAPE   O2118545   4.791   5.762   6.575  0.4754 -0.0953  0.2615
  165SAPE   C2118546   4.852   5.714   6.677  0.3888  0.6824  0.1924
  165SAPE   O2218547   4.973   5.731   6.701 -0.6751  0.1604 -0.1845
  165SAPE   C2218548   4.751   5.648   6.778  0.5925 -0.9271  0.3189
  165SAPE   H2R18549   4.672   5.725   6.795  1.5577  0.5686 -1.6354
  165SAPE   H2S18550   4.706   5.567   6.717  0.3738 -1.6271  1.3872
  165SAPE    C318551   4.819   5.956   6.428 -0.3731 -0.1276  0.0172
  165SAPE    HX18552   4.718   5.931   6.388 -1.7801 -0.5610  3.4798
  165SAPE    HY18553   4.893   5.994   6.356  1.8567 -0.1632  2.1490
  165SAPE   O3118554   4.822   6.046   6.544 -0.6384 -0.4364  0.1507
  165SAPE   C3118555   4.698   6.075   6.591 -0.0440  0.0924 -0.6517
  165SAPE   O3218556   4.594   6.024   6.555 -0.1159  0.0750  0.0664
  165SAPE   C3218557   4.720   6.178   6.706 -0.1877 -0.2304 -0.2588
  165SAPE   H2X18558   4.750   6.274   6.659 -0.7072  0.3337  0.5395
  165SAPE   H2Y18559   4.805   6.147   6.771  0.5308  0.3165 -0.9237
  165SAPE   C2318560   4.809   5.596   6.906 -0.4427 -0.4951 -0.3195
  165SAPE   H3R18561   4.865   5.673   6.964  1.2190 -2.5345  0.9491
  165SAPE   H3S18562   4.870   5.504   6.895 -0.2269 -0.6550  1.7419
  165SAPE   C2418563   4.697   5.550   7.009  1.0450  0.2289  0.4076
  165SAPE   H4R18564   4.659   5.653   7.026  1.9415  0.3935  1.5341
  165SAPE   H4S18565   4.755   5.507   7.093 -0.6037  1.7583  2.4204
  165SAPE   C2518566   4.593   5.460   6.947  0.0205 -0.3286 -0.9137
  165SAPE   H5R18567   4.547   5.489   6.852  1.8972  0.0831 -1.7410
  165SAPE   C2618568   4.547   5.342   6.994 -0.2258 -0.4762 -0.0332
  165SAPE   H6R18569   4.457   5.298   6.948 -2.7675  0.9654  3.1240
  165SAPE   C2718570   4.584   5.275   7.120 -0.4312  0.2331 -0.3611
  165SAPE   H7R18571   4.692   5.250   7.127 -0.5752 -0.3175 -0.0485
  165SAPE   H7S18572   4.532   5.177   7.120  1.6703 -0.9387  0.0377
  165SAPE   C2818573   4.529   5.345   7.246 -0.0052 -0.1493 -0.7336
  165SAPE   H8R18574   4.477   5.441   7.233  0.8503  0.4599  0.1940
  165SAPE   C2918575   4.563   5.304   7.370  0.2149  1.1977 -0.0221
  165SAPE   H9R18576   4.500   5.330   7.456  0.5290 -0.2428  0.6703
  165SAPE  C21018577   4.651   5.188   7.405  0.2030  0.4119  0.5247
  165SAPE  H10R18578   4.703   5.135   7.323 -0.7498 -1.2683  0.9440
  165SAPE  H10S18579   4.588   5.107   7.448 -3.3774  2.7616  0.1827
  165SAPE  C21118580   4.747   5.221   7.513  0.4874 -0.3576  0.2852
  165SAPE  H11R18581   4.840   5.271   7.483 -0.6314  0.8909 -1.2822
  165SAPE  C21218582   4.733   5.202   7.642  0.2224 -0.7417  0.3878
  165SAPE  H12R18583   4.815   5.237   7.706  1.0958 -0.4527 -0.8436
  165SAPE  C21318584   4.614   5.148   7.717 -0.3637  0.4480 -0.7263
  165SAPE  H13R18585   4.655   5.053   7.756  2.1673  0.9001 -2.0589
  165SAPE  H13S18586   4.526   5.127   7.652  0.9677 -1.8317 -1.9108
  165SAPE  C21418587   4.581   5.255   7.824  0.6073  0.1036  0.2969
  165SAPE  H14R18588   4.589   5.362   7.803 -1.3517  0.4474  1.0444
  165SAPE  C21518589   4.556   5.217   7.956 -0.5778 -0.8658 -0.4223
  165SAPE  H15R18590   4.502   5.285   8.024  0.1038  0.1144 -0.8398
  165SAPE  C21618591   4.557   5.081   8.019  1.0282 -0.5352  0.2373
  165SAPE  H16R18592   4.578   4.997   7.950 -0.3116 -0.0483 -0.8132
  165SAPE  H16S18593   4.455   5.061   8.060 -0.2945  0.5852 -2.2751
  165SAPE  C21718594   4.671   5.077   8.115 -0.5161  0.6083  0.1960
  165SAPE  H17R18595   4.768   5.094   8.063 -0.2589 -0.1763  0.4136
  165SAPE  H17S18596   4.678   4.975   8.157  2.6635  0.8777  0.5697
  165SAPE  C21818597   4.674   5.174   8.238  0.7171 -0.0226  1.1136
  165SAPE  H18R18598   4.568   5.186   8.272  0.3922 -0.0412  0.1339
  165SAPE  H18S18599   4.710   5.270   8.197 -1.6602 -0.2976 -2.0084
  165SAPE  C21918600   4.765   5.133   8.355 -0.6016  0.2489  0.8506
  165SAPE  H19R18601   4.708   5.046   8.393 -1.3767  0.4342  0.1487
  165SAPE  H19S18602   4.753   5.215   8.430  0.0664  2.5495 -1.4083
  165SAPE  C22018603   4.912   5.117   8.339 -0.0592  0.2788 -0.2661
  165SAPE  H20R18604   4.948   5.096   8.442 -2.6307 -1.3616  0.3821
  165SAPE  H20S18605   4.963   5.215   8.325  0.2606  0.3533  1.2265
  165SAPE  H20T18606   4.937   5.040   8.263  1.4661  2.7539 -2.4570
  165SAPE   C3318607   4.597   6.210   6.784  0.2878  0.7663 -0.2815
  165SAPE   H3X18608   4.569   6.118   6.840 -2.9001 -0.8707 -4.1389
  165SAPE   H3Y18609   4.514   6.227   6.713  0.0993  2.2966  0.2623
  165SAPE   C3418610   4.616   6.310   6.897  0.2097 -0.2745  0.8125
  165SAPE   H4X18611   4.617   6.413   6.856 -2.5909 -0.7260 -0.6588
  165SAPE   H4Y18612   4.718   6.285   6.932  0.2990 -0.5060  0.3922
  165SAPE   C3518613   4.507   6.311   6.996 -0.0090  0.8174  0.8918
  165SAPE   H5X18614   4.480   6.210   7.034  0.8686 -0.2577 -1.1491
  165SAPE   H5Y18615   4.412   6.351   6.955 -0.2640 -0.4738  0.1714
  165SAPE   C3618616   4.548   6.398   7.119 -0.9176  0.7240  0.2127
  165SAPE   H6X18617   4.538   6.503   7.085  0.0759  0.4224 -1.0854
  165SAPE   H6Y18618   4.651   6.363   7.140 -1.4384 -1.5634 -0.7236
  165SAPE   C3718619   4.478   6.365   7.248  0.1024 -0.4934 -0.8459
  165SAPE   H7X18620   4.484   6.259   7.282  2.0276 -0.4211 -0.8705
  165SAPE   H7Y18621   4.373   6.397   7.234 -0.9597 -2.7645  1.0924
  165SAPE   C3818622   4.541   6.453   7.358 -0.5718  0.3009  0.2558
  165SAPE   H8X18623   4.557   6.558   7.324 -1.9669 -0.0973 -1.7616
  165SAPE   H8Y18624   4.632   6.391   7.374 -1.0415 -0.4703 -0.0390
  165SAPE   C3918625   4.457   6.440   7.482 -0.1775  0.4937  0.5547
  165SAPE   H9X18626   4.454   6.332   7.510 -1.4208  0.4219  0.2074
  165SAPE   H9Y18627   4.351   6.472   7.479 -0.3185  0.0888  1.0368
  165SAPE  C31018628   4.524   6.517   7.596  0.6401 -0.1481  0.8257
  165SAPE  H10X18629   4.554   6.618   7.560  2.5475 -0.8974  0.1639
  165SAPE  H10Y18630   4.609   6.464   7.642 -0.3924 -1.2159  1.5276
  165SAPE  C31118631   4.429   6.530   7.718 -0.0253 -0.1070  0.2725
  165SAPE  H11X18632   4.381   6.630   7.714  0.5486  0.2287  1.3431
  165SAPE  H11Y18633   4.479   6.532   7.817 -2.2155  1.8510  1.4489
  165SAPE  C31218634   4.302   6.433   7.734  0.0172  0.0207 -0.2874
  165SAPE  H12X18635   4.343   6.330   7.726 -0.0924  0.0049 -0.6621
  165SAPE  H12Y18636   4.229   6.450   7.652  0.2353 -0.1931 -0.5271
  165SAPE  C31318637   4.242   6.448   7.876  1.0457  0.4279  0.9156
  165SAPE  H13X18638   4.173   6.536   7.873  2.4269  1.5236 -0.6551
  165SAPE  H13Y18639   4.324   6.485   7.942  1.1113  0.8482  0.6068
  165SAPE  C31418640   4.178   6.319   7.933  0.3881 -0.3972 -0.1143
  165SAPE  H14X18641   4.112   6.276   7.855 -0.4693 -0.1405  0.4605
  165SAPE  H14Y18642   4.110   6.355   8.013  0.6016 -1.3529  0.5145
  165SAPE  C31518643   4.273   6.232   8.005 -0.2135 -0.0102 -0.3890
  165SAPE  H15X18644   4.319   6.281   8.094 -2.4249 -1.1709  1.5185
  165SAPE  H15Y18645   4.348   6.189   7.936  0.1679  0.1565 -0.0800
  165SAPE  C31618646   4.205   6.106   8.069  0.0018  0.4295  0.4088
  165SAPE  H16X18647   4.172   6.037   7.988  0.8117  2.3559 -1.6600
  165SAPE  H16Y18648   4.112   6.132   8.124  0.8396  1.3894  1.4020
  165SAPE  C31718649   4.290   6.028   8.175  0.2807 -0.3903  0.5078
  165SAPE  H17X18650   4.295   6.077   8.275  1.0368  0.3972  0.0990
  165SAPE  H17Y18651   4.388   6.019   8.124  0.1156  2.7010 -0.5620
  165SAPE  C31818652   4.236   5.886   8.200  0.8171 -0.4003  0.1200
  165SAPE  H18X18653   4.147   5.889   8.266 -0.6987 -2.1735 -1.6831
  165SAPE  H18Y18654   4.321   5.826   8.238  0.3375 -0.7086  0.7203
  165SAPE  H18Z18655   4.199   5.843   8.105  2.5518  0.1085 -0.8319
  166SAPE     N18656   3.087   2.881   6.193  0.1210  0.1157  0.0625
  166SAPE   HN118657   3.119   2.975   6.224  0.2845  1.1082 -2.8192
  166SAPE   HN218658   2.989   2.904   6.167 -0.7787  0.7439  3.5170
  166SAPE   HN318659   3.092   2.806   6.265 -0.5556  0.2073  0.2121
  166SAPE   C1218660   3.178   2.855   6.071 -0.0490  0.2630  0.2591
  166SAPE  H12A18661   3.161   2.752   6.035  1.9204 -0.0120 -0.0373
  166SAPE  H12B18662   3.281   2.861   6.115  0.3575 -2.3970 -0.1949
  166SAPE   C1118663   3.152   2.960   5.963 -0.6259  0.0302 -0.1156
  166SAPE  H11A18664   3.050   2.943   5.923 -0.6681 -0.4371  0.1822
  166SAPE  H11B18665   3.228   2.942   5.884 -2.4622 -0.3790 -1.8755
  166SAPE     P18666   3.165   3.217   5.932  0.1511 -0.0947  0.1453
  166SAPE   O1318667   3.240   3.177   5.810 -0.1560 -0.6156  0.8275
  166SAPE   O1418668   3.028   3.258   5.910  0.4353  0.3391  0.5192
  166SAPE   O1218669   3.166   3.088   6.024 -0.3552  0.3772 -0.4368
  166SAPE   O1118670   3.240   3.332   6.005 -0.1794 -0.3047  0.1224
  166SAPE    C118671   3.363   3.305   6.064  0.2270  0.6209 -0.3700
  166SAPE    HA18672   3.433   3.247   6.000 -0.1142  0.2213 -0.3873
  166SAPE    HB18673   3.408   3.404   6.086 -1.2494  1.1204  0.5866
  166SAPE    C218674   3.351   3.227   6.196  0.6675  0.1269  0.1549
  166SAPE    HS18675   3.316   3.124   6.173  2.1294  0.0293 -2.0370
  166SAPE   O2118676   3.257   3.308   6.271 -0.1147 -0.3026  0.2105
  166SAPE   C2118677   3.178   3.244   6.352 -0.0255 -0.2121 -0.4316
  166SAPE   O2218678   3.166   3.119   6.363 -0.1360 -0.1994 -0.0103
  166SAPE   C2218679   3.106   3.350   6.445 -0.1434  0.6025  0.1501
  166SAPE   H2R18680   3.107   3.447   6.391  0.3427  1.3661  1.4595
  166SAPE   H2S18681   3.000   3.324   6.465 -1.0404  2.6659 -1.5723
  166SAPE    C318682   3.485   3.216   6.263 -0.4168 -0.2820  0.0294
  166SAPE    HX18683   3.520   3.321   6.275  1.6985 -0.9946  0.6300
  166SAPE    HY18684   3.568   3.185   6.196 -0.6591  3.1576 -2.0888
  166SAPE   O3118685   3.477   3.150   6.394 -0.1214 -0.0634  0.4860
  166SAPE   C3118686   3.451   3.023   6.400 -0.2717  0.1712 -0.0327
  166SAPE   O3218687   3.428   2.949   6.303 -0.2505 -0.6431 -0.2882
  166SAPE   C3218688   3.456   2.972   6.546  0.4078 -0.3153 -0.4266
  166SAPE   H2X18689   3.559   2.932   6.561  0.5237  0.2382  0.3265
  166SAPE   H2Y18690   3.399   2.877   6.552 -0.8510  0.3520 -1.5020
  166SAPE   C2318691   3.178   3.364   6.586 -0.4786 -0.0779 -0.5705
  166SAPE   H3R18692   3.288   3.375   6.570 -0.4698  2.5045  0.6809
  166SAPE   H3S18693   3.158   3.277   6.651  1.7659 -0.9919 -1.0183
  166SAPE   C2418694   3.137   3.491   6.658  0.1136 -0.0339  0.1621
  166SAPE   H4R18695   3.186   3.581   6.615 -0.9870  0.2693 -0.4746
  166SAPE   H4S18696   3.187   3.484   6.757 -3.5264  2.1765  2.3689
  166SAPE   C2518697   2.992   3.510   6.683  0.1374 -0.4111 -0.2955
  166SAPE   H5R18698   2.937   3.543   6.594 -0.4017 -0.8439 -0.1275
  166SAPE   C2618699   2.932   3.472   6.798  0.1057 -0.2989  0.4095
  166SAPE   H6R18700   2.825   3.499   6.799  0.7182  2.4995 -0.2965
  166SAPE   C2718701   2.980   3.394   6.916 -0.1911  1.1270 -0.1857
  166SAPE   H7R18702   3.009   3.462   7.000  1.8738  0.3534 -0.2237
  166SAPE   H7S18703   3.074   3.338   6.899 -0.4880  0.0301  1.4887
  166SAPE   C2818704   2.878   3.299   6.978 -0.5315  0.2493  0.0470
  166SAPE   H8R18705   2.800   3.255   6.914  1.5491 -1.1371 -1.6456
  166SAPE   C2918706   2.870   3.263   7.106 -0.4111 -0.3348 -0.4858
  166SAPE   H9R18707   2.793   3.194   7.145 -0.7236  0.1464 -0.2519
  166SAPE  C21018708   2.974   3.303   7.215 -0.2983  0.0866 -0.6188
  166SAPE  H10R18709   3.080   3.307   7.182  0.6217  0.1718  2.1083
  166SAPE  H10S18710   2.992   3.220   7.287 -0.9605 -0.9655 -1.6389
  166SAPE  C21118711   2.941   3.434   7.277  0.4628 -0.0506 -0.2924
  166SAPE  H11R18712   2.946   3.509   7.197 -0.0130  0.0598 -0.2215
  166SAPE  C21218713   2.905   3.469   7.396  0.4938 -0.6639 -0.0614
  166SAPE  H12R18714   2.866   3.572   7.400  0.0345 -0.8697  1.8699
  166SAPE  C21318715   2.888   3.392   7.527 -0.1610 -0.3023  0.2234
  166SAPE  H13R18716   2.886   3.284   7.503  0.4212 -0.7680  2.1531
  166SAPE  H13S18717   2.799   3.420   7.586 -0.6863  1.4619 -1.2947
  166SAPE  C21418718   3.011   3.413   7.613  0.9386  0.4606 -0.1939
  166SAPE  H14R18719   3.109   3.424   7.564  1.1393 -1.1139 -0.1853
  166SAPE  C21518720   3.007   3.399   7.752 -0.8686 -0.2758 -0.4782
  166SAPE  H15R18721   3.096   3.411   7.815  0.9275 -1.2987 -2.6728
  166SAPE  C21618722   2.887   3.373   7.838  0.1183  0.5316  0.0069
  166SAPE  H16R18723   2.817   3.322   7.769  1.6677 -1.0388 -0.4728
  166SAPE  H16S18724   2.837   3.468   7.864  0.3700  0.7466 -0.2821
  166SAPE  C21718725   2.905   3.287   7.971  0.2652  0.2828  0.9826
  166SAPE  H17R18726   2.943   3.186   7.944 -1.3891  0.1616 -1.2032
  166SAPE  H17S18727   2.807   3.270   8.020 -0.7712  0.3688 -0.9481
  166SAPE  C21818728   3.015   3.350   8.067 -1.0924  0.3873 -0.3131
  166SAPE  H18R18729   2.982   3.456   8.074 -2.4003 -0.0193  0.0669
  166SAPE  H18S18730   3.122   3.350   8.038 -0.9052 -0.5023  0.3413
  166SAPE  C21918731   3.004   3.285   8.204  0.1251  0.6484 -0.0904
  166SAPE  H19R18732   3.011   3.175   8.188  1.9938  0.8093 -0.6449
  166SAPE  H19S18733   2.914   3.321   8.258  0.7329  1.3764  0.4563
  166SAPE  C22018734   3.115   3.323   8.301  0.1666 -0.2353 -0.4047
  166SAPE  H20R18735   3.121   3.432   8.321 -2.0513 -0.3739  1.4184
  166SAPE  H20S18736   3.214   3.286   8.268 -0.1034  0.1558 -1.7085
  166SAPE  H20T18737   3.088   3.280   8.399 -1.1865 -0.6296 -0.9291
  166SAPE   C3318738   3.400   3.081   6.650  0.0493  0.1710  0.3988
  166SAPE   H3X18739   3.294   3.098   6.624  0.5916  1.7843 -1.0159
  166SAPE   H3Y18740   3.460   3.175   6.643  0.0785  0.1563  0.4502
  166SAPE   C3418741   3.405   3.039   6.799  0.2142  0.0400  0.4806
  166SAPE   H4X18742   3.515   3.040   6.819 -0.0363  0.0076  1.9926
  166SAPE   H4Y18743   3.379   2.932   6.817 -0.0053  0.1701  0.9697
  166SAPE   C3518744   3.324   3.135   6.888 -0.5503  0.1365  0.1098
  166SAPE   H5X18745   3.252   3.198   6.831 -1.1586  0.2199  0.9517
  166SAPE   H5Y18746   3.389   3.203   6.948 -0.9935 -0.5716  1.4386
  166SAPE   C3618747   3.258   3.059   7.004 -0.1795  0.2444 -0.2285
  166SAPE   H6X18748   3.182   2.992   6.959  0.5799 -0.3845 -0.5906
  166SAPE   H6Y18749   3.201   3.134   7.062  0.4862  0.3747  0.2644
  166SAPE   C3718750   3.360   2.982   7.087  0.3114 -0.2294  0.4932
  166SAPE   H7X18751   3.406   3.064   7.146 -1.7428  0.0559  1.7767
  166SAPE   H7Y18752   3.422   2.922   7.017 -0.9759 -2.4254  1.1403
  166SAPE   C3818753   3.301   2.890   7.200  0.1957 -0.2228  0.5262
  166SAPE   H8X18754   3.373   2.813   7.234  1.1558  0.2437 -0.3926
  166SAPE   H8Y18755   3.210   2.835   7.168  0.5965 -1.1042  0.8615
  166SAPE   C3918756   3.282   2.978   7.325  0.5927 -0.1854  0.0163
  166SAPE   H9X18757   3.218   3.066   7.304  1.6491  0.5622 -0.1336
  166SAPE   H9Y18758   3.375   3.020   7.370 -0.7172  0.2825  2.4886
  166SAPE  C31018759   3.223   2.904   7.446  0.7492  0.4572  0.1406
  166SAPE  H10X18760   3.307   2.839   7.481  1.6600  1.8977  0.7571
  166SAPE  H10Y18761   3.143   2.834   7.416  0.3206 -0.4468  3.0522
  166SAPE  C31118762   3.175   3.000   7.555  0.8071 -0.0943 -0.5975
  166SAPE  H11X18763   3.075   3.040   7.528 -0.0695 -1.6340  0.2345
  166SAPE  H11Y18764   3.251   3.080   7.568  0.4473 -0.1487  2.8393
  166SAPE  C31218765   3.168   2.933   7.701 -0.2066 -0.1654  0.2884
  166SAPE  H12X18766   3.273   2.905   7.725  0.1691  1.0746  0.1910
  166SAPE  H12Y18767   3.103   2.843   7.711 -0.1092 -0.1847  0.7946
  166SAPE  C31318768   3.125   3.042   7.796  0.1444  0.0721 -0.3309
  166SAPE  H13X18769   3.014   3.043   7.793  0.0044 -0.0090  2.5669
  166SAPE  H13Y18770   3.174   3.135   7.760 -2.6967  1.6460 -0.4982
  166SAPE  C31418771   3.162   3.009   7.941  0.9198  0.4927  0.1656
  166SAPE  H14X18772   3.113   3.085   8.006 -2.2702 -1.0607 -0.2153
  166SAPE  H14Y18773   3.272   2.996   7.943  0.6487 -2.2947  1.1283
  166SAPE  C31518774   3.118   2.868   7.983  0.1047 -0.0174  0.4709
  166SAPE  H15X18775   3.196   2.797   7.948 -0.4399 -1.2963  1.7772
  166SAPE  H15Y18776   3.032   2.847   7.916 -0.4795 -1.8365  1.7301
  166SAPE  C31618777   3.075   2.843   8.122  0.0842 -0.1954  0.4496
  166SAPE  H16X18778   3.044   2.737   8.138 -0.7496  0.0902  0.7450
  166SAPE  H16Y18779   2.988   2.911   8.130  1.9612  2.4015 -0.0800
  166SAPE  C31718780   3.175   2.873   8.232 -0.3657 -0.0942 -0.2367
  166SAPE  H17X18781   3.135   2.859   8.335  0.6828  1.5109  0.4386
  166SAPE  H17Y18782   3.200   2.981   8.219  0.8708 -0.3490 -0.1289
  166SAPE  C31818783   3.317   2.800   8.221 -0.0782 -0.6286  0.2261
  166SAPE  H18X18784   3.314   2.689   8.226 -2.9301 -0.6325 -0.2463
  166SAPE  H18Y18785   3.377   2.846   8.303  0.5986  1.4940 -1.3664
  166SAPE  H18Z18786   3.368   2.829   8.127 -1.1480  2.5110  0.5141
  167SAPE     N18787   4.705   2.334   5.864  0.6449 -0.0237  0.1122
  167SAPE   HN118788   4.640   2.349   5.944 -1.0941 -1.0294 -1.0331
  167SAPE   HN218789   4.753   2.422   5.840  1.0726 -0.1332  0.5383
  167SAPE   HN318790   4.638   2.298   5.793 -0.6701  1.3570  0.5971
  167SAPE   C1218791   4.819   2.236   5.886  0.0311 -0.1404  0.1820
  167SAPE  H12A18792   4.900   2.271   5.819 -1.4237  1.3502 -0.8880
  167SAPE  H12B18793   4.786   2.132   5.861 -2.2054  0.5093  0.1969
  167SAPE   C1118794   4.857   2.250   6.040 -0.0574 -0.2359  0.4237
  167SAPE  H11A18795   4.772   2.236   6.110 -0.0914  1.9750  0.8953
  167SAPE  H11B18796   4.873   2.359   6.054 -2.4733  0.7089 -2.7801
  167SAPE     P18797   5.094   2.206   6.156  0.0171  0.3630 -0.5736
  167SAPE   O1318798   5.161   2.096   6.231  0.9907 -0.3414 -0.0815
  167SAPE   O1418799   5.186   2.267   6.059  0.1101  0.7808  0.2570
  167SAPE   O1218800   4.961   2.164   6.082 -0.2463 -0.2354  0.2788
  167SAPE   O1118801   5.043   2.326   6.253  0.3801 -0.2321 -0.3271
  167SAPE    C118802   5.090   2.337   6.388  0.3310  0.2906 -0.2016
  167SAPE    HA18803   5.196   2.309   6.404 -0.1031 -1.4363 -0.1226
  167SAPE    HB18804   5.097   2.445   6.412 -2.0513  0.2788  0.9269
  167SAPE    C218805   5.005   2.259   6.493 -0.2431 -0.0291  0.1395
  167SAPE    HS18806   5.012   2.153   6.459  1.4411  0.3907 -0.9261
  167SAPE   O2118807   4.874   2.312   6.494 -0.6525 -0.0895 -0.3953
  167SAPE   C2118808   4.773   2.236   6.460 -0.6602 -0.3717 -0.2316
  167SAPE   O2218809   4.780   2.126   6.412 -0.1502  0.5492  0.0412
  167SAPE   C2218810   4.641   2.295   6.504 -0.4164 -0.6800  0.5991
  167SAPE   H2R18811   4.641   2.280   6.614 -0.6111 -0.1522  0.6747
  167SAPE   H2S18812   4.634   2.405   6.494  1.4523 -0.6002 -0.1202
  167SAPE    C318813   5.058   2.266   6.641  0.0802  0.2330  0.5059
  167SAPE    HX18814   4.974   2.242   6.710 -0.4536 -1.3354 -0.6291
  167SAPE    HY18815   5.079   2.370   6.674 -3.8663  0.5909  2.5583
  167SAPE   O3118816   5.167   2.174   6.659  0.2255  0.6868 -0.1434
  167SAPE   C3118817   5.213   2.168   6.785 -0.2323  0.2352  0.0212
  167SAPE   O3218818   5.152   2.214   6.880 -0.4336 -0.4660  0.0710
  167SAPE   C3218819   5.342   2.087   6.787 -0.0186 -0.1991  0.8009
  167SAPE   H2X18820   5.405   2.114   6.699 -1.7352  2.6338  0.3178
  167SAPE   H2Y18821   5.319   1.978   6.792  0.2661 -0.2060  2.4108
  167SAPE   C2318822   4.518   2.217   6.441  0.3957 -1.1971  0.3195
  167SAPE   H3R18823   4.528   2.107   6.449  0.3198 -1.5942 -3.3301
  167SAPE   H3S18824   4.535   2.238   6.333 -0.4944  1.0246  0.5538
  167SAPE   C2418825   4.390   2.272   6.506 -0.4631 -0.0958  0.4146
  167SAPE   H4R18826   4.396   2.255   6.615 -0.5956 -0.2346  0.4006
  167SAPE   H4S18827   4.304   2.213   6.466 -1.9913  1.7829  0.7603
  167SAPE   C2518828   4.370   2.420   6.466 -0.9906  0.5251 -1.0557
  167SAPE   H5R18829   4.388   2.436   6.359 -1.3864  0.4076 -1.1416
  167SAPE   C2618830   4.357   2.531   6.538  0.1853 -0.3135  0.5304
  167SAPE   H6R18831   4.354   2.625   6.482  3.3631  0.8412  2.0497
  167SAPE   C2718832   4.344   2.541   6.690 -0.7619  0.2590 -0.0784
  167SAPE   H7R18833   4.440   2.582   6.726 -0.4590 -0.8952  0.4699
  167SAPE   H7S18834   4.337   2.442   6.740  1.3285  0.4684  0.7015
  167SAPE   C2818835   4.219   2.624   6.716  0.2552 -1.1984 -0.1443
  167SAPE   H8R18836   4.144   2.614   6.637 -0.2174  0.1049  0.1231
  167SAPE   C2918837   4.197   2.718   6.810 -0.1614  0.1633 -0.0830
  167SAPE   H9R18838   4.095   2.759   6.809 -0.9109 -1.5781  0.4767
  167SAPE  C21018839   4.306   2.762   6.909  0.4647  0.0246 -0.4178
  167SAPE  H10R18840   4.321   2.871   6.895 -1.7980  0.7463  1.9629
  167SAPE  H10S18841   4.410   2.726   6.892  1.0332  1.0297  0.7591
  167SAPE  C21118842   4.261   2.733   7.052  0.3260 -0.9192  0.3620
  167SAPE  H11R18843   4.156   2.710   7.076  0.3818 -0.0054  1.5189
  167SAPE  C21218844   4.346   2.716   7.152  0.8294 -0.2111  0.4963
  167SAPE  H12R18845   4.312   2.707   7.256  2.1650  0.7610  1.0472
  167SAPE  C21318846   4.497   2.731   7.149  0.1000  0.6231  0.3368
  167SAPE  H13R18847   4.530   2.837   7.147  1.3108  0.3526 -3.6879
  167SAPE  H13S18848   4.546   2.682   7.062  1.8706  3.0755 -0.1810
  167SAPE  C21418849   4.564   2.690   7.279  0.3261 -0.1130 -0.3554
  167SAPE  H14R18850   4.536   2.750   7.368  3.0677  1.8877 -0.7318
  167SAPE  C21518851   4.654   2.596   7.294 -0.2381  0.6707 -0.4730
  167SAPE  H15R18852   4.680   2.581   7.400 -0.5065  2.7077 -0.0859
  167SAPE  C21618853   4.721   2.500   7.192 -0.2632  0.4004 -0.3215
  167SAPE  H16R18854   4.824   2.479   7.226 -1.3840  0.3179  3.5258
  167SAPE  H16S18855   4.747   2.551   7.097  1.6662  0.6845  0.3159
  167SAPE  C21718856   4.653   2.373   7.133  0.7731  0.9992 -0.1207
  167SAPE  H17R18857   4.552   2.404   7.099 -0.0956 -0.1583  1.2915
  167SAPE  H17S18858   4.625   2.294   7.206  0.9701  1.8609  0.9167
  167SAPE  C21818859   4.739   2.307   7.025  0.0155 -0.0659  0.4206
  167SAPE  H18R18860   4.741   2.196   7.039  0.3869 -0.3177 -1.3923
  167SAPE  H18S18861   4.844   2.344   7.029 -0.8850  3.0684 -1.3789
  167SAPE  C21918862   4.693   2.336   6.878  0.2941  0.1675  0.3842
  167SAPE  H19R18863   4.582   2.330   6.878  0.1912  1.5992  0.1930
  167SAPE  H19S18864   4.744   2.263   6.812  1.2460 -1.0930  2.4357
  167SAPE  C22018865   4.737   2.476   6.828 -0.3326 -0.2821 -0.1437
  167SAPE  H20R18866   4.848   2.484   6.827 -0.3407  0.0465  0.6077
  167SAPE  H20S18867   4.709   2.558   6.897  1.5513 -0.4542  0.9185
  167SAPE  H20T18868   4.704   2.500   6.725  1.5426 -0.6980 -0.8911
  167SAPE   C3318869   5.428   2.115   6.911  0.6597  0.3713  0.3314
  167SAPE   H3X18870   5.412   2.220   6.942 -1.4749  1.2804 -3.2243
  167SAPE   H3Y18871   5.534   2.105   6.878  0.6835 -0.0690  0.5236
  167SAPE   C3418872   5.387   2.019   7.025  0.6659 -0.5188 -0.1580
  167SAPE   H4X18873   5.397   1.912   6.996 -0.5624 -0.2991 -1.5095
  167SAPE   H4Y18874   5.283   2.036   7.059  1.1911  0.0573  1.2514
  167SAPE   C3518875   5.472   2.053   7.151  0.2276  0.8551  0.0568
  167SAPE   H5X18876   5.455   2.162   7.171  1.0918  0.8431  0.9698
  167SAPE   H5Y18877   5.580   2.038   7.129 -0.0489  0.0610 -0.8010
  167SAPE   C3618878   5.427   1.980   7.283 -0.5852 -0.2155 -0.9192
  167SAPE   H6X18879   5.373   1.886   7.261 -1.7519 -0.2717  1.8192
  167SAPE   H6Y18880   5.354   2.042   7.340  2.5940  2.2057  0.8659
  167SAPE   C3718881   5.543   1.950   7.376  0.9802 -0.2194  0.1719
  167SAPE   H7X18882   5.617   2.030   7.355  0.9473 -0.1304  0.3840
  167SAPE   H7Y18883   5.587   1.856   7.339  2.1193  1.7361 -3.9449
  167SAPE   C3818884   5.518   1.952   7.527  0.3798  0.5538  0.2889
  167SAPE   H8X18885   5.471   2.045   7.565 -0.9632  0.9670 -2.1097
  167SAPE   H8Y18886   5.613   1.946   7.584  0.7173  3.1409  0.1000
  167SAPE   C3918887   5.431   1.830   7.562 -0.7698  0.1221 -0.3635
  167SAPE   H9X18888   5.500   1.744   7.548  0.8889  1.7185 -2.9597
  167SAPE   H9Y18889   5.343   1.825   7.494  0.1237 -0.1478 -1.5240
  167SAPE  C31018890   5.374   1.821   7.708  0.3340 -0.3133 -0.0885
  167SAPE  H10X18891   5.301   1.738   7.711 -0.5634  0.3975 -1.4327
  167SAPE  H10Y18892   5.309   1.910   7.724  2.1456  1.1740 -0.5850
  167SAPE  C31118893   5.485   1.803   7.821 -0.0450 -0.7053  0.8006
  167SAPE  H11X18894   5.551   1.893   7.828 -2.1766  1.0960 -0.6457
  167SAPE  H11Y18895   5.551   1.723   7.782  0.5565  0.8821 -1.6643
  167SAPE  C31218896   5.440   1.760   7.956 -0.2617 -0.0871 -0.1309
  167SAPE  H12X18897   5.521   1.710   8.014 -0.4586  1.0416  1.1582
  167SAPE  H12Y18898   5.362   1.681   7.946 -0.8408  0.5887 -1.1367
  167SAPE  C31318899   5.371   1.868   8.038  0.9971 -0.1974  0.1979
  167SAPE  H13X18900   5.300   1.918   7.968  1.3092  1.0632  0.7589
  167SAPE  H13Y18901   5.440   1.953   8.059 -0.9280  2.0209 -1.7692
  167SAPE  C31418902   5.301   1.833   8.168 -0.6704 -0.4667 -0.1841
  167SAPE  H14X18903   5.230   1.749   8.154  1.2546 -2.2617  0.3574
  167SAPE  H14Y18904   5.255   1.927   8.204  0.9545  0.7305 -1.0723
  167SAPE  C31518905   5.399   1.776   8.282  0.3977 -0.6437 -0.9494
  167SAPE  H15X18906   5.459   1.689   8.248  0.2471 -0.1638 -2.5385
  167SAPE  H15Y18907   5.330   1.735   8.359 -0.2497 -1.4372 -1.9341
  167SAPE  C31618908   5.496   1.873   8.344 -0.1732  0.1158  1.1225
  167SAPE  H16X18909   5.554   1.915   8.259 -1.8670  0.6255  0.1606
  167SAPE  H16Y18910   5.554   1.823   8.424 -0.3836  1.2211  1.9963
  167SAPE  C31718911   5.419   1.986   8.405  0.6453 -0.2718 -0.1187
  167SAPE  H17X18912   5.379   1.950   8.502 -0.7538 -2.5662 -1.4583
  167SAPE  H17Y18913   5.330   2.022   8.349  1.8424  1.3537 -1.0765
  167SAPE  C31818914   5.495   2.125   8.422  0.6553  0.0601  0.3710
  167SAPE  H18X18915   5.424   2.195   8.471 -1.5361 -3.4031  2.5660
  167SAPE  H18Y18916   5.515   2.159   8.318 -1.0255 -0.1460 -0.0337
  167SAPE  H18Z18917   5.589   2.101   8.477  0.7488  0.0937  0.2294
  168SAPE     N18918   0.456   4.502   6.317 -0.2259 -0.7470  0.0422
  168SAPE   HN118919   0.453   4.604   6.293  2.5884 -0.7259 -0.4912
  168SAPE   HN218920   0.553   4.476   6.345 -0.4346 -1.6901 -0.0956
  168SAPE   HN318921   0.433   4.457   6.226 -3.8423  1.2856 -0.2647
  168SAPE   C1218922   0.355   4.464   6.414 -0.2561  0.0899  0.5717
  168SAPE  H12A18923   0.371   4.357   6.441  0.2022 -0.5939 -2.0860
  168SAPE  H12B18924   0.260   4.465   6.355  0.5547 -1.1410 -0.8585
  168SAPE   C1118925   0.347   4.545   6.542  0.2484 -0.1662 -0.0306
  168SAPE  H11A18926   0.430   4.525   6.612  0.5406  0.0571 -0.3127
  168SAPE  H11B18927   0.250   4.524   6.594  0.2657 -1.3308 -0.4472
  168SAPE     P18928   0.428   4.799   6.562  0.0858 -0.0814 -0.0482
  168SAPE   O1318929   0.563   4.801   6.504  0.2649 -0.1643 -0.2809
  168SAPE   O1418930   0.356   4.926   6.527 -0.2564 -0.3854 -0.0407
  168SAPE   O1218931   0.345   4.683   6.507  0.3678 -0.0162  0.0368
  168SAPE   O1118932   0.429   4.766   6.716  0.4801 -0.7319 -0.1797
  168SAPE    C118933   0.312   4.738   6.796 -1.1052  0.2065  0.4554
  168SAPE    HA18934   0.223   4.758   6.732  0.9239  1.1226 -2.2879
  168SAPE    HB18935   0.315   4.630   6.819  1.7097  0.0296 -0.4111
  168SAPE    C218936   0.321   4.827   6.920  0.6620 -0.0185 -0.2661
  168SAPE    HS18937   0.301   4.933   6.897  0.4115  0.2307  1.0398
  168SAPE   O2118938   0.433   4.797   7.002 -0.1740 -0.1473  0.2730
  168SAPE   C2118939   0.534   4.872   6.975 -0.3884 -0.2016  1.0398
  168SAPE   O2218940   0.533   4.968   6.901  0.0259 -0.2208  0.2932
  168SAPE   C2218941   0.647   4.833   7.070  0.2592 -0.5328 -0.6327
  168SAPE   H2R18942   0.657   4.726   7.041 -2.0510 -0.3822 -2.2249
  168SAPE   H2S18943   0.736   4.894   7.042  0.7883 -0.5573  0.8643
  168SAPE    C318944   0.187   4.794   6.999  0.4887  0.2503 -0.1908
  168SAPE    HX18945   0.189   4.685   7.019 -2.5296  0.0385 -0.6131
  168SAPE    HY18946   0.108   4.817   6.925  1.4098  1.6188 -0.7948
  168SAPE   O3118947   0.179   4.874   7.117 -0.4366  0.3695  0.0819
  168SAPE   C3118948   0.141   5.002   7.112  0.4621 -0.0107 -0.1554
  168SAPE   O3218949   0.111   5.060   7.009 -0.9134 -0.0696  0.1497
  168SAPE   C3218950   0.140   5.067   7.251  0.1293  0.3142 -0.8686
  168SAPE   H2X18951   0.049   5.129   7.258 -0.1706 -0.2497  0.8415
  168SAPE   H2Y18952   0.221   5.143   7.245 -1.8133  2.4821 -0.9694
  168SAPE   C2318953   0.607   4.832   7.228 -0.2999 -0.6313 -0.4581
  168SAPE   H3R18954   0.671   4.759   7.282  0.6448  0.0234 -0.6713
  168SAPE   H3S18955   0.502   4.798   7.245 -0.5346 -0.3311 -1.2816
  168SAPE   C2418956   0.607   4.973   7.298  0.3467 -1.1506 -0.4732
  168SAPE   H4R18957   0.562   4.957   7.399 -0.1003  1.9347 -0.0853
  168SAPE   H4S18958   0.550   5.046   7.238  2.9029  0.7365 -0.7606
  168SAPE   C2518959   0.747   5.022   7.315  0.0033 -0.3723  0.0084
  168SAPE   H5R18960   0.791   5.051   7.218 -1.1327  1.4257 -0.0234
  168SAPE   C2618961   0.805   5.053   7.428  0.2262  0.5584  0.8317
  168SAPE   H6R18962   0.912   5.078   7.420 -0.1814  1.6605 -3.3155
  168SAPE   C2718963   0.755   5.029   7.565  0.0501 -0.3800  0.1526
  168SAPE   H7R18964   0.837   4.964   7.604  0.0448 -0.3313  0.2476
  168SAPE   H7S18965   0.661   4.972   7.580 -0.8028  1.5630  3.1498
  168SAPE   C2818966   0.725   5.154   7.637  0.1778 -0.5710  0.1693
  168SAPE   H8R18967   0.627   5.196   7.611  0.0623 -1.0006 -0.1020
  168SAPE   C2918968   0.798   5.215   7.734  0.7106 -0.0300  0.0425
  168SAPE   H9R18969   0.754   5.303   7.782  1.4145  0.4466 -0.1711
  168SAPE  C21018970   0.925   5.160   7.797  0.6591 -0.8830 -0.3330
  168SAPE  H10R18971   0.930   5.049   7.797  1.6356 -0.8656 -1.5267
  168SAPE  H10S18972   0.920   5.184   7.905 -0.4191 -0.1942 -0.5219
  168SAPE  C21118973   1.047   5.213   7.736 -0.6852  0.0637 -0.7509
  168SAPE  H11R18974   1.075   5.175   7.636 -0.9328  0.1175 -0.8421
  168SAPE  C21218975   1.121   5.295   7.806  0.8889 -0.2223  0.1240
  168SAPE  H12R18976   1.210   5.341   7.760  1.4315 -1.0866  0.2905
  168SAPE  C21318977   1.096   5.348   7.948  0.0007 -0.0363 -0.0627
  168SAPE  H13R18978   0.989   5.374   7.955 -0.0826  0.1722 -1.7524
  168SAPE  H13S18979   1.136   5.451   7.961  0.7813 -0.4101  0.6123
  168SAPE  C21418980   1.132   5.253   8.055  0.6364  0.1232  0.7848
  168SAPE  H14R18981   1.155   5.150   8.022 -0.5252 -0.3706  1.4363
  168SAPE  C21518982   1.125   5.272   8.184  0.7322  0.2382 -0.2885
  168SAPE  H15R18983   1.150   5.183   8.244  1.7229  1.2667  0.8850
  168SAPE  C21618984   1.086   5.401   8.256  0.0611 -0.1005 -0.2803
  168SAPE  H16R18985   1.044   5.378   8.356  0.5470 -0.5560 -0.1799
  168SAPE  H16S18986   1.011   5.441   8.184 -0.0120 -3.3405 -2.2098
  168SAPE  C21718987   1.202   5.506   8.275  0.1952  0.7519  0.0898
  168SAPE  H17R18988   1.160   5.602   8.312  1.0406  1.5939 -1.0792
  168SAPE  H17S18989   1.264   5.529   8.186  0.6671  1.0113  0.4713
  168SAPE  C21818990   1.297   5.462   8.388 -0.2024  0.4756 -0.4286
  168SAPE  H18R18991   1.351   5.370   8.356  0.8904 -0.3708  3.4072
  168SAPE  H18S18992   1.253   5.444   8.488 -0.5045  2.2624 -0.2029
  168SAPE  C21918993   1.409   5.566   8.419  1.1379 -0.8965  1.0671
  168SAPE  H19R18994   1.459   5.583   8.321 -0.5560 -0.5907  0.2033
  168SAPE  H19S18995   1.479   5.516   8.488  2.6215 -1.1454 -0.5543
  168SAPE  C22018996   1.359   5.701   8.462  0.1790 -0.2665  0.2228
  168SAPE  H20R18997   1.449   5.755   8.500 -0.8407  2.3129 -0.8155
  168SAPE  H20S18998   1.284   5.692   8.544  0.2466 -0.6525  0.2479
  168SAPE  H20T18999   1.308   5.774   8.396 -0.5646  2.1399  3.2579
  168SAPE   C3319000   0.149   4.972   7.374  0.7268 -0.3765  0.3920
  168SAPE   H3X19001   0.111   4.870   7.352  0.8053 -0.4835  0.7516
  168SAPE   H3Y19002   0.085   5.016   7.454 -0.2082  1.6951 -1.3772
  168SAPE   C3419003   0.286   4.957   7.436 -0.1524 -0.2968 -0.0248
  168SAPE   H4X19004   0.339   5.055   7.433 -0.5349 -0.0875 -3.0118
  168SAPE   H4Y19005   0.351   4.885   7.382 -0.6111  0.1034 -1.1260
  168SAPE   C3519006   0.274   4.923   7.589  0.4531 -0.3096  0.0101
  168SAPE   H5X19007   0.200   4.842   7.602  0.0414 -0.4455 -2.7089
  168SAPE   H5Y19008   0.238   5.012   7.645 -0.6105  0.1338 -1.3352
  168SAPE   C3619009   0.406   4.881   7.648 -0.2839 -0.0085  0.0141
  168SAPE   H6X19010   0.471   4.971   7.640  0.6444 -0.6227  0.4869
  168SAPE   H6Y19011   0.448   4.804   7.580  2.4766  1.4737 -0.1114
  168SAPE   C3719012   0.404   4.839   7.789 -0.1646 -0.4665  0.0194
  168SAPE   H7X19013   0.366   4.735   7.795  3.4712 -1.9276 -0.3725
  168SAPE   H7Y19014   0.335   4.908   7.843 -0.3123 -0.4587 -0.1766
  168SAPE   C3819015   0.546   4.846   7.855 -0.2692  0.2968 -0.1668
  168SAPE   H8X19016   0.596   4.943   7.833  1.0743 -0.7037 -1.7872
  168SAPE   H8Y19017   0.619   4.770   7.820 -1.9125 -1.1640 -0.5592
  168SAPE   C3919018   0.545   4.837   8.012  0.1910  0.2206 -0.8888
  168SAPE   H9X19019   0.517   4.733   8.040 -1.3558  1.0593  1.0059
  168SAPE   H9Y19020   0.460   4.899   8.049  0.0654 -2.4486  4.3014
  168SAPE  C31019021   0.675   4.884   8.068 -0.8266 -0.8859  0.2153
  168SAPE  H10X19022   0.682   4.986   8.023 -1.4966 -1.2528 -0.7477
  168SAPE  H10Y19023   0.763   4.824   8.037 -0.6506 -0.9073  0.7527
  168SAPE  C31119024   0.673   4.882   8.215 -0.1947 -0.1320  0.1369
  168SAPE  H11X19025   0.580   4.922   8.260  0.8459 -0.4107  2.6720
  168SAPE  H11Y19026   0.759   4.943   8.248  1.1472 -1.8268 -0.0998
  168SAPE  C31219027   0.698   4.746   8.275  0.0378  0.8089 -0.3026
  168SAPE  H12X19028   0.773   4.690   8.215  0.2741 -2.2634  2.6114
  168SAPE  H12Y19029   0.610   4.681   8.258  1.0594 -1.2573  1.7545
  168SAPE  C31319030   0.732   4.754   8.425  0.3948  0.6585  0.1506
  168SAPE  H13X19031   0.666   4.823   8.482  1.0927  1.8545 -0.4516
  168SAPE  H13Y19032   0.833   4.799   8.435  0.4583  0.4386  0.5031
  168SAPE  C31419033   0.724   4.615   8.504 -0.0887  0.3435 -0.2993
  168SAPE  H14X19034   0.620   4.580   8.485 -0.7967  2.8493 -1.4093
  168SAPE  H14Y19035   0.748   4.645   8.608  1.5634  1.3633 -0.9313
  168SAPE  C31519036   0.823   4.511   8.445  1.0289  0.4245 -0.0334
  168SAPE  H15X19037   0.927   4.551   8.443  1.6733 -1.1359 -2.9905
  168SAPE  H15Y19038   0.798   4.509   8.337 -2.2979  1.6311  0.5747
  168SAPE  C31619039   0.819   4.374   8.502  0.4099  0.1066 -0.2993
  168SAPE  H16X19040   0.711   4.347   8.506  0.7413 -1.3281 -0.6356
  168SAPE  H16Y19041   0.842   4.385   8.610 -0.8657 -0.6660  0.0845
  168SAPE  C31719042   0.904   4.274   8.421 -0.2023 -1.0425  0.2499
  168SAPE  H17X19043   1.007   4.314   8.413 -1.5034  2.4407 -1.1277
  168SAPE  H17Y19044   0.866   4.273   8.317  0.4415  0.4637 -0.0199
  168SAPE  C31819045   0.894   4.133   8.479 -0.4152  0.1147 -0.2812
  168SAPE  H18X19046   0.961   4.071   8.415 -0.5943  0.2846 -0.6375
  168SAPE  H18Y19047   0.790   4.094   8.480 -0.8835  1.2961  1.8885
  168SAPE  H18Z19048   0.931   4.138   8.584 -1.6728  2.8539  0.1385
  169SAPE     N19049   0.033   5.379   6.237  0.5251 -0.1187  0.1417
  169SAPE   HN119050   0.023   5.477   6.270  0.2851  0.1058 -0.5731
  169SAPE   HN219051  -0.008   5.327   6.317 -1.6906 -0.2981 -1.0377
  169SAPE   HN319052   0.130   5.360   6.205  0.6590 -1.2158  1.1363
  169SAPE   C1219053  -0.066   5.382   6.131  0.9579 -0.1157  0.3128
  169SAPE  H12A19054  -0.095   5.280   6.098  0.1700  0.2774 -0.2538
  169SAPE  H12B19055  -0.021   5.426   6.040 -0.5174 -1.2320 -1.0282
  169SAPE   C1119056  -0.197   5.458   6.162  0.0767  0.9640 -0.1670
  169SAPE  H11A19057  -0.266   5.404   6.231  1.3606  0.3975  0.7007
  169SAPE  H11B19058  -0.248   5.469   6.064  1.6971  0.8400 -1.0575
  169SAPE     P19059  -0.264   5.707   6.245 -0.4124  0.2878  0.0395
  169SAPE   O1319060  -0.192   5.807   6.327  0.0529  0.2450 -1.0795
  169SAPE   O1419061  -0.308   5.761   6.112 -0.2907 -0.2186 -0.1426
  169SAPE   O1219062  -0.164   5.582   6.215  0.6471 -0.5213  0.0983
  169SAPE   O1119063  -0.381   5.644   6.326  0.0263  0.1918  0.0829
  169SAPE    C119064  -0.353   5.586   6.456 -0.0886  0.4603 -0.2672
  169SAPE    HA19065  -0.280   5.503   6.447  0.6412  0.7185  2.3693
  169SAPE    HB19066  -0.307   5.670   6.513 -1.0668  1.8224 -1.3965
  169SAPE    C219067  -0.477   5.519   6.518 -0.6637  0.0636  0.0575
  169SAPE    HS19068  -0.546   5.488   6.437 -0.1335  0.8779 -0.7246
  169SAPE   O2119069  -0.542   5.615   6.602 -0.6255 -0.0644  0.6707
  169SAPE   C2119070  -0.672   5.595   6.632  0.2997  0.5794  0.4175
  169SAPE   O2219071  -0.735   5.492   6.596  0.0434 -0.3774  0.0378
  169SAPE   C2219072  -0.728   5.694   6.730 -0.1640  0.6548  0.2193
  169SAPE   H2R19073  -0.665   5.707   6.820 -0.6953  0.6856  0.5893
  169SAPE   H2S19074  -0.738   5.792   6.679  2.6487  0.7776 -0.2443
  169SAPE    C319075  -0.444   5.392   6.590  1.0180  0.6035  0.0659
  169SAPE    HX19076  -0.390   5.318   6.528 -2.4200 -2.0928 -0.0398
  169SAPE    HY19077  -0.531   5.335   6.628  0.3915  0.1038 -1.9966
  169SAPE   O3119078  -0.351   5.425   6.690 -0.8486 -0.0595 -0.2862
  169SAPE   C3119079  -0.388   5.409   6.815  1.2102  0.6512  0.7791
  169SAPE   O3219080  -0.492   5.349   6.850 -0.5165 -0.1446 -0.5336
  169SAPE   C3219081  -0.283   5.467   6.899 -0.0934 -0.0616 -1.0827
  169SAPE   H2X19082  -0.287   5.577   6.886  1.8324  0.2898  0.7519
  169SAPE   H2Y19083  -0.185   5.429   6.863 -0.0911 -0.2266 -0.9013
  169SAPE   C2319084  -0.869   5.639   6.780  0.1119 -0.7982  0.0909
  169SAPE   H3R19085  -0.846   5.535   6.811  1.7541 -1.1680 -2.0802
  169SAPE   H3S19086  -0.944   5.635   6.699  0.1683  3.2907 -0.3546
  169SAPE   C2419087  -0.918   5.718   6.897 -0.6872  0.3771 -0.2053
  169SAPE   H4R19088  -0.947   5.823   6.873 -0.9889  1.3336  3.6486
  169SAPE   H4S19089  -0.837   5.729   6.972 -2.5464  0.2156  1.9580
  169SAPE   C2519090  -1.029   5.649   6.971 -0.2119  0.2295  0.5656
  169SAPE   H5R19091  -1.126   5.662   6.919 -0.0786 -0.1895  0.1994
  169SAPE   C2619092  -1.037   5.583   7.089  0.2674 -0.5569  0.0359
  169SAPE   H6R19093  -1.140   5.554   7.116  0.4860  0.0332  1.5898
  169SAPE   C2719094  -0.923   5.552   7.192  0.1837  0.4301  0.6980
  169SAPE   H7R19095  -0.924   5.626   7.275 -2.9293 -0.6394  1.7289
  169SAPE   H7S19096  -0.826   5.559   7.137  0.7157 -0.7128  1.4635
  169SAPE   C2819097  -0.938   5.409   7.245 -0.3515 -0.3377 -0.4693
  169SAPE   H8R19098  -0.926   5.332   7.167 -0.1466 -2.1236  1.2505
  169SAPE   C2919099  -0.957   5.353   7.365 -0.3308  0.2564 -0.7736
  169SAPE   H9R19100  -0.960   5.245   7.382 -0.1716  0.5165  1.0780
  169SAPE  C21019101  -0.967   5.428   7.496  0.2058 -0.0861 -0.1803
  169SAPE  H10R19102  -1.074   5.433   7.527  0.3673 -1.0135  0.5667
  169SAPE  H10S19103  -0.931   5.533   7.490 -2.4279  0.8696 -0.8551
  169SAPE  C21119104  -0.880   5.356   7.598 -0.2380  0.7923 -0.1701
  169SAPE  H11R19105  -0.772   5.368   7.582 -0.3684  2.9668  0.2230
  169SAPE  C21219106  -0.928   5.292   7.705  0.2549  0.1878  0.1125
  169SAPE  H12R19107  -0.865   5.237   7.777 -1.2877 -3.9531 -1.4006
  169SAPE  C21319108  -1.077   5.283   7.732  0.6693  0.0372 -0.9491
  169SAPE  H13R19109  -1.083   5.204   7.809  1.9636  0.7610 -0.0580
  169SAPE  H13S19110  -1.128   5.258   7.637  1.0679 -0.8688 -0.9301
  169SAPE  C21419111  -1.136   5.404   7.792  0.1907 -0.3039 -0.2449
  169SAPE  H14R19112  -1.194   5.479   7.736 -0.8276 -0.3891  0.6667
  169SAPE  C21519113  -1.105   5.443   7.916 -0.1769  0.6091  0.2788
  169SAPE  H15R19114  -1.142   5.543   7.943 -1.2147  1.1573 -2.7729
  169SAPE  C21619115  -1.021   5.367   8.010 -0.3428 -0.0921  0.2143
  169SAPE  H16R19116  -0.920   5.415   8.003 -0.8979  0.8699 -1.7470
  169SAPE  H16S19117  -1.008   5.259   7.988 -2.8352 -0.2959 -0.5602
  169SAPE  C21719118  -1.065   5.381   8.160 -0.0157 -0.5374 -0.1390
  169SAPE  H17R19119  -1.059   5.486   8.196 -0.1927  0.2373 -2.2304
  169SAPE  H17S19120  -0.993   5.328   8.226 -0.5794 -2.0888 -0.7166
  169SAPE  C21819121  -1.199   5.304   8.179  0.3347 -0.0746  0.0332
  169SAPE  H18R19122  -1.182   5.201   8.141 -0.5440 -0.2032 -0.0450
  169SAPE  H18S19123  -1.268   5.360   8.113  0.4599 -0.4165 -0.3915
  169SAPE  C21919124  -1.256   5.287   8.323  0.4571 -0.1757 -0.1324
  169SAPE  H19R19125  -1.181   5.225   8.378  2.0588  2.2461  0.5680
  169SAPE  H19S19126  -1.351   5.230   8.315 -0.1619  0.6730  0.9406
  169SAPE  C22019127  -1.267   5.411   8.412 -0.1753 -0.1068 -0.3205
  169SAPE  H20R19128  -1.168   5.450   8.444  0.0978  0.9850 -2.2991
  169SAPE  H20S19129  -1.339   5.396   8.494  0.8766 -1.2526  0.4226
  169SAPE  H20T19130  -1.315   5.496   8.359 -0.9412 -0.4183 -0.1285
  169SAPE   C3319131  -0.307   5.442   7.048  0.6395 -0.0565 -0.2018
  169SAPE   H3X19132  -0.406   5.487   7.069  0.1062  1.7349 -5.2193
  169SAPE   H3Y19133  -0.234   5.502   7.105 -0.6891  0.1800  1.3161
  169SAPE   C3419134  -0.297   5.295   7.092 -0.7390 -0.2244  0.4912
  169SAPE   H4X19135  -0.208   5.248   7.045 -1.8728 -0.4080 -1.5980
  169SAPE   H4Y19136  -0.386   5.243   7.051  0.8292 -2.4829 -0.1835
  169SAPE   C3519137  -0.309   5.273   7.244 -0.9877  0.5617 -0.8135
  169SAPE   H5X19138  -0.300   5.165   7.268 -0.7293  0.5817 -0.8193
  169SAPE   H5Y19139  -0.408   5.299   7.286 -0.4186  1.1966  0.1787
  169SAPE   C3619140  -0.210   5.360   7.326 -0.1950  0.5603  0.0879
  169SAPE   H6X19141  -0.225   5.465   7.292 -0.0488  0.6760  0.3743
  169SAPE   H6Y19142  -0.105   5.321   7.325 -1.4770 -3.3531 -1.7851
  169SAPE   C3719143  -0.241   5.347   7.469 -0.0846 -0.2866 -0.0490
  169SAPE   H7X19144  -0.224   5.243   7.505 -0.0346  0.3469  1.8644
  169SAPE   H7Y19145  -0.346   5.372   7.497 -0.6835 -2.2506 -0.3830
  169SAPE   C3819146  -0.155   5.450   7.546 -0.3734  0.5830  0.5747
  169SAPE   H8X19147  -0.199   5.551   7.530 -0.1649  0.5886  0.0477
  169SAPE   H8Y19148  -0.051   5.457   7.510 -0.7193 -0.4587 -0.6932
  169SAPE   C3919149  -0.171   5.429   7.698  0.3927  0.4985  0.9447
  169SAPE   H9X19150  -0.121   5.335   7.729  3.0000  2.2018  2.2954
  169SAPE   H9Y19151  -0.279   5.413   7.719  0.6619 -0.4965  1.6223
  169SAPE  C31019152  -0.106   5.542   7.787 -0.1950 -0.5658 -0.5532
  169SAPE  H10X19153  -0.133   5.640   7.744  1.5174 -0.8145 -2.3523
  169SAPE  H10Y19154   0.004   5.525   7.788  0.0151  0.6954  0.2305
  169SAPE  C31119155  -0.158   5.525   7.929 -0.7370 -0.0529 -0.2340
  169SAPE  H11X19156  -0.132   5.428   7.977  0.2191  0.3025 -0.0064
  169SAPE  H11Y19157  -0.269   5.537   7.929 -0.5718  1.9333 -1.8348
  169SAPE  C31219158  -0.123   5.638   8.025  0.0541 -0.1697 -0.5009
  169SAPE  H12X19159  -0.178   5.628   8.121  0.1685 -0.7720 -0.4963
  169SAPE  H12Y19160  -0.159   5.735   7.984  0.1790  1.0785  2.1373
  169SAPE  C31319161   0.025   5.640   8.059  0.2659  0.1116  0.2647
  169SAPE  H13X19162   0.068   5.652   7.957  0.6583  2.5282  0.6615
  169SAPE  H13Y19163   0.064   5.545   8.102 -0.9159 -1.0782 -1.1864
  169SAPE  C31419164   0.067   5.765   8.138 -0.1735 -0.0698 -0.0750
  169SAPE  H14X19165   0.040   5.862   8.093 -1.4351 -0.4678 -0.2277
  169SAPE  H14Y19166   0.175   5.748   8.158 -0.5039 -1.3856  0.8043
  169SAPE  C31519167   0.001   5.772   8.280 -0.1257 -0.0623  0.2251
  169SAPE  H15X19168  -0.102   5.807   8.261 -0.2221  0.0489  0.9473
  169SAPE  H15Y19169   0.055   5.847   8.342 -0.5006 -1.0320  1.7766
  169SAPE  C31619170  -0.009   5.652   8.373 -0.5512  0.2037  0.4485
  169SAPE  H16X19171   0.093   5.615   8.394 -0.4452 -1.5187 -2.5634
  169SAPE  H16Y19172  -0.051   5.561   8.324  0.5936 -0.7400  1.1757
  169SAPE  C31719173  -0.084   5.668   8.511 -0.6322  0.3783 -0.1331
  169SAPE  H17X19174  -0.061   5.569   8.555  1.1024 -0.0724 -1.8758
  169SAPE  H17Y19175  -0.192   5.683   8.486 -0.8946  2.4867  1.9426
  169SAPE  C31819176  -0.026   5.786   8.583 -0.3964  0.0909  0.3781
  169SAPE  H18X19177  -0.021   5.764   8.692  1.0874 -0.2039  0.2746
  169SAPE  H18Y19178  -0.087   5.875   8.554 -0.0474 -0.0664 -0.9004
  169SAPE  H18Z19179   0.078   5.800   8.545  0.0967 -0.6819  1.3966
  170SAPE     N19180   0.534   2.451   6.242  0.1292 -0.2999 -0.1128
  170SAPE   HN119181   0.590   2.453   6.330  0.4037 -2.7853 -0.1561
  170SAPE   HN219182   0.437   2.478   6.267 -1.5137 -4.4063 -1.3786
  170SAPE   HN319183   0.525   2.356   6.202 -0.0818 -0.3869  0.1403
  170SAPE   C1219184   0.609   2.538   6.145 -0.0674 -0.2589 -0.1127
  170SAPE  H12A19185   0.543   2.541   6.056  0.8556 -1.0550 -0.8552
  170SAPE  H12B19186   0.699   2.483   6.109  0.2310 -0.3797  0.8099
  170SAPE   C1119187   0.646   2.679   6.198  0.3930 -0.0796 -1.2106
  170SAPE  H11A19188   0.717   2.653   6.279 -0.2616  0.7784 -0.3368
  170SAPE  H11B19189   0.551   2.714   6.244  0.0887 -2.8993  0.5351
  170SAPE     P19190   0.840   2.842   6.128  0.0469 -0.0891  0.2014
  170SAPE   O1319191   0.948   2.744   6.152  0.2707 -0.0621  0.8983
  170SAPE   O1419192   0.871   2.936   6.017 -0.2250 -0.0512 -0.4884
  170SAPE   O1219193   0.701   2.765   6.098 -0.0655  0.3692 -0.4188
  170SAPE   O1119194   0.814   2.918   6.266 -0.1504  0.0509  0.2111
  170SAPE    C119195   0.828   3.050   6.297  0.0540  0.8464 -0.7036
  170SAPE    HA19196   0.800   3.111   6.208  0.9258 -0.7597 -2.1307
  170SAPE    HB19197   0.750   3.067   6.374 -0.4956  2.0653 -1.4978
  170SAPE    C219198   0.959   3.104   6.361  0.5497  0.6307  0.0699
  170SAPE    HS19199   1.049   3.058   6.314  1.4271 -0.1934  2.4105
  170SAPE   O2119200   0.959   3.042   6.492 -0.6247  0.2503  0.0357
  170SAPE   C2119201   1.064   3.076   6.566 -0.0055  0.1145  0.2691
  170SAPE   O2219202   1.157   3.146   6.523  0.6939 -0.5712  0.6546
  170SAPE   C2219203   1.055   3.018   6.709 -0.0293  0.8404  0.1119
  170SAPE   H2R19204   0.953   3.039   6.748 -0.4207  2.4913 -1.6633
  170SAPE   H2S19205   1.069   2.909   6.690  1.4511  1.5523 -3.7340
  170SAPE    C319206   0.949   3.257   6.345 -0.2874  0.3531 -0.2091
  170SAPE    HX19207   0.950   3.282   6.237  2.0527 -0.0531 -0.3163
  170SAPE    HY19208   1.044   3.302   6.380  0.0571 -1.6471  1.6455
  170SAPE   O3119209   0.830   3.321   6.397 -0.0147  0.1410  0.5610
  170SAPE   C3119210   0.839   3.379   6.512  0.2534  0.3774 -0.2140
  170SAPE   O3219211   0.939   3.390   6.586  0.1580 -0.6074 -0.1766
  170SAPE   C3219212   0.706   3.450   6.534 -0.0156 -0.2642  0.0762
  170SAPE   H2X19213   0.626   3.384   6.575 -1.4654  0.9113 -0.7840
  170SAPE   H2Y19214   0.664   3.485   6.438 -0.1858  0.1740  0.3064
  170SAPE   C2319215   1.167   3.053   6.809 -0.0478 -0.1143  0.5982
  170SAPE   H3R19216   1.264   3.019   6.767  0.5138  1.9818  0.0478
  170SAPE   H3S19217   1.151   3.000   6.905 -0.0441 -1.1875  0.0269
  170SAPE   C2419218   1.168   3.207   6.821 -0.4439 -0.4157  0.4886
  170SAPE   H4R19219   1.060   3.232   6.811  0.0189  1.1400 -0.9644
  170SAPE   H4S19220   1.220   3.254   6.736  0.4739  2.0100  2.2889
  170SAPE   C2519221   1.235   3.251   6.948  0.5168  0.3536  0.3006
  170SAPE   H5R19222   1.337   3.285   6.925 -0.1152  0.7530 -2.2299
  170SAPE   C2619223   1.180   3.277   7.069  0.5467 -0.1455 -0.7019
  170SAPE   H6R19224   1.259   3.303   7.142  0.7138 -1.0592 -0.5408
  170SAPE   C2719225   1.030   3.260   7.102 -0.4694  0.2465  0.4714
  170SAPE   H7R19226   1.029   3.204   7.198  0.9088 -1.1727 -0.2896
  170SAPE   H7S19227   0.974   3.207   7.021 -1.1696  1.7671 -0.0746
  170SAPE   C2819228   0.951   3.388   7.114  0.4843 -0.4652 -0.1739
  170SAPE   H8R19229   0.900   3.425   7.023  0.0117  2.0546  0.9982
  170SAPE   C2919230   0.944   3.464   7.229  0.1037  0.3117 -1.1166
  170SAPE   H9R19231   0.885   3.556   7.230 -1.4510 -0.5826  2.1396
  170SAPE  C21019232   1.019   3.425   7.355  0.5498  0.3924  0.5612
  170SAPE  H10R19233   1.120   3.392   7.322 -0.0236 -2.0963  1.0684
  170SAPE  H10S19234   0.979   3.335   7.407 -0.6705 -0.1120 -1.1643
  170SAPE  C21119235   1.028   3.544   7.452  0.0037  0.5208  0.0841
  170SAPE  H11R19236   1.089   3.626   7.411  2.0773 -0.8183  0.3765
  170SAPE  C21219237   0.973   3.557   7.579 -0.5213 -0.0409  0.1539
  170SAPE  H12R19238   0.997   3.649   7.634 -0.3713 -0.3840  0.6781
  170SAPE  C21319239   0.894   3.445   7.648  0.3994  0.2432 -1.1518
  170SAPE  H13R19240   0.819   3.396   7.582  0.2011  1.6717 -2.0414
  170SAPE  H13S19241   0.828   3.501   7.718  1.5740  0.7204 -0.4042
  170SAPE  C21419242   0.986   3.349   7.713 -0.3465  0.0218  0.0546
  170SAPE  H14R19243   1.062   3.312   7.642 -0.0667  2.3534 -0.9358
  170SAPE  C21519244   0.989   3.303   7.843 -0.0456 -0.5767 -0.0388
  170SAPE  H15R19245   1.071   3.238   7.877 -2.1751 -1.9601  2.8704
  170SAPE  C21619246   0.899   3.343   7.950 -0.8185 -0.2948 -0.5837
  170SAPE  H16R19247   0.821   3.416   7.919 -0.3426  2.5264  3.9748
  170SAPE  H16S19248   0.964   3.387   8.029 -0.1664  0.7439 -1.6521
  170SAPE  C21719249   0.831   3.224   8.006  0.0396 -0.6678  1.4959
  170SAPE  H17R19250   0.893   3.131   8.014  0.7575 -0.3973 -0.3908
  170SAPE  H17S19251   0.754   3.195   7.931  0.7376 -0.9414  0.8634
  170SAPE  C21819252   0.759   3.256   8.142  0.1666 -0.3692 -0.2821
  170SAPE  H18R19253   0.681   3.180   8.165 -1.7876  1.9773  1.2811
  170SAPE  H18S19254   0.708   3.354   8.134  2.0843  0.5533 -2.3288
  170SAPE  C21919255   0.833   3.255   8.275  0.0240  0.1901 -0.5872
  170SAPE  H19R19256   0.770   3.246   8.366 -0.8431 -2.0248 -1.3318
  170SAPE  H19S19257   0.874   3.359   8.275 -0.9799  0.6298  1.6767
  170SAPE  C22019258   0.956   3.164   8.283 -0.1256  0.4040  0.1310
  170SAPE  H20R19259   1.021   3.188   8.196 -0.7260  0.3935 -0.3311
  170SAPE  H20S19260   0.937   3.055   8.273 -1.0411  0.6565 -1.1145
  170SAPE  H20T19261   1.018   3.186   8.373  0.2227 -0.5271  0.1320
  170SAPE   C3319262   0.731   3.565   6.639  0.2979  0.8477 -0.3098
  170SAPE   H3X19263   0.779   3.651   6.588  0.1298  1.3317  0.3320
  170SAPE   H3Y19264   0.787   3.526   6.727 -1.9187 -0.4111  0.6437
  170SAPE   C3419265   0.599   3.620   6.692  0.2102  0.4319 -0.2485
  170SAPE   H4X19266   0.527   3.552   6.742 -1.9395  2.7977  0.0637
  170SAPE   H4Y19267   0.542   3.658   6.604 -4.2541 -1.3425  1.5451
  170SAPE   C3519268   0.616   3.742   6.791  0.7536 -0.2459  0.2206
  170SAPE   H5X19269   0.516   3.787   6.809  0.2995 -1.0497 -0.2050
  170SAPE   H5Y19270   0.664   3.820   6.729 -1.3628 -0.2521 -1.5790
  170SAPE   C3619271   0.674   3.705   6.926  0.2299 -0.0060  0.7372
  170SAPE   H6X19272   0.775   3.665   6.904 -0.2179  0.1736 -1.9026
  170SAPE   H6Y19273   0.610   3.623   6.966  1.7814 -1.7076 -0.1195
  170SAPE   C3719274   0.676   3.825   7.020  0.1568  0.3541  0.0114
  170SAPE   H7X19275   0.582   3.885   7.026 -1.8215 -2.5233 -0.1286
  170SAPE   H7Y19276   0.758   3.885   6.975 -1.1068  0.2124 -2.6366
  170SAPE   C3819277   0.714   3.794   7.165  0.1144 -0.3567 -0.2687
  170SAPE   H8X19278   0.818   3.754   7.159  0.1019 -0.3480 -0.5764
  170SAPE   H8Y19279   0.652   3.713   7.209  1.1166 -1.0063 -0.0148
  170SAPE   C3919280   0.727   3.927   7.247 -0.5635 -0.5100 -0.4005
  170SAPE   H9X19281   0.632   3.983   7.230  0.0253  0.2036 -1.4566
  170SAPE   H9Y19282   0.809   3.990   7.206 -1.1940  1.9693  1.9000
  170SAPE  C31019283   0.732   3.889   7.395  0.2227  0.0609  0.2709
  170SAPE  H10X19284   0.835   3.869   7.430 -0.1269 -0.6617  0.9200
  170SAPE  H10Y19285   0.665   3.802   7.412  0.5593 -0.1674  0.4351
  170SAPE  C31119286   0.672   4.001   7.481  1.3704 -0.4034 -0.2345
  170SAPE  H11X19287   0.568   4.015   7.445  1.0274 -1.4391  0.3236
  170SAPE  H11Y19288   0.724   4.096   7.457 -1.1425  0.7956 -1.3603
  170SAPE  C31219289   0.679   3.955   7.625  0.3374 -0.1702  0.3384
  170SAPE  H12X19290   0.777   3.908   7.645  0.0474 -1.2111 -0.5985
  170SAPE  H12Y19291   0.603   3.874   7.632 -1.6563  1.6061  0.1960
  170SAPE  C31319292   0.645   4.072   7.723 -0.3800 -0.3354 -1.2583
  170SAPE  H13X19293   0.540   4.105   7.709 -0.2664  0.2794 -0.7399
  170SAPE  H13Y19294   0.713   4.160   7.714  1.3445 -1.5562 -0.6779
  170SAPE  C31419295   0.660   4.041   7.877  0.0283  0.1165 -1.0863
  170SAPE  H14X19296   0.625   4.128   7.936 -3.1396 -1.3777 -0.5259
  170SAPE  H14Y19297   0.761   4.014   7.913  0.0047  1.3988  0.0031
  170SAPE  C31519298   0.565   3.925   7.918 -0.3879 -0.3768  0.2424
  170SAPE  H15X19299   0.600   3.839   7.857 -0.3065 -1.4602  1.7569
  170SAPE  H15Y19300   0.466   3.965   7.888  0.2893  0.9158 -0.3629
  170SAPE  C31619301   0.563   3.877   8.061 -0.1822 -0.2045  0.9517
  170SAPE  H16X19302   0.482   3.802   8.069 -0.6733  0.1346 -0.6390
  170SAPE  H16Y19303   0.532   3.964   8.124  1.5949 -0.6901  2.6078
  170SAPE  C31719304   0.697   3.823   8.102 -0.6556  0.6089  0.0979
  170SAPE  H17X19305   0.699   3.804   8.212  0.2732  0.6550  0.0939
  170SAPE  H17Y19306   0.786   3.889   8.087 -1.2673  1.3233 -0.4597
  170SAPE  C31819307   0.719   3.680   8.045  0.1965  0.3887 -0.8169
  170SAPE  H18X19308   0.629   3.618   8.062 -2.0168  2.3023 -4.3060
  170SAPE  H18Y19309   0.791   3.625   8.109  0.2528 -1.9537 -2.7305
  170SAPE  H18Z19310   0.750   3.685   7.938 -0.1828  1.5616 -0.8870
  171SAPE     N19311   1.512   3.397   6.343 -0.5824  0.1472 -0.0479
  171SAPE   HN119312   1.556   3.381   6.250  0.7585 -0.2802  0.6302
  171SAPE   HN219313   1.457   3.318   6.382  0.3569  0.3870  1.8647
  171SAPE   HN319314   1.452   3.481   6.348  2.2930  2.3175  1.1019
  171SAPE   C1219315   1.630   3.416   6.436  0.7372 -0.1249  0.0580
  171SAPE  H12A19316   1.590   3.419   6.539  1.0183 -1.4183  0.2260
  171SAPE  H12B19317   1.670   3.518   6.416  0.4833 -0.1926 -0.8357
  171SAPE   C1119318   1.738   3.310   6.423 -0.6467 -0.0491  0.0531
  171SAPE  H11A19319   1.711   3.207   6.454 -0.4153 -0.3937 -0.8501
  171SAPE  H11B19320   1.820   3.336   6.493 -1.6744  2.4451  0.4326
  171SAPE     P19321   1.890   3.376   6.221 -0.2268  0.0556 -0.4278
  171SAPE   O1319322   1.943   3.310   6.102 -0.3942 -0.3374 -0.3009
  171SAPE   O1419323   1.833   3.511   6.201 -0.2040 -0.1102 -0.5965
  171SAPE   O1219324   1.778   3.291   6.290  0.2145  0.0527 -0.4473
  171SAPE   O1119325   2.010   3.379   6.320 -0.1072 -0.4388 -0.2987
  171SAPE    C119326   2.069   3.255   6.355  0.0446 -0.0652  0.0086
  171SAPE    HA19327   2.002   3.184   6.409  1.2745 -0.8246  0.5967
  171SAPE    HB19328   2.118   3.202   6.271  0.5850  0.4308  0.0111
  171SAPE    C219329   2.179   3.292   6.458  0.4771  0.4081 -0.5577
  171SAPE    HS19330   2.229   3.196   6.485 -0.2136  0.4363  0.8748
  171SAPE   O2119331   2.136   3.354   6.579 -0.4580  0.1994 -0.6926
  171SAPE   C2119332   2.055   3.292   6.663 -0.3613  0.2969  0.0689
  171SAPE   O2219333   2.022   3.173   6.651 -0.0586 -0.3294 -0.0573
  171SAPE   C2219334   1.994   3.403   6.741  0.1005 -0.2141  0.7427
  171SAPE   H2R19335   2.058   3.493   6.730  0.8810 -0.9042 -0.5175
  171SAPE   H2S19336   1.899   3.444   6.698  0.4679 -0.2729 -0.1437
  171SAPE    C319337   2.289   3.381   6.388  0.0570 -0.4385 -0.2193
  171SAPE    HX19338   2.239   3.468   6.339 -3.4416 -1.2634  1.5731
  171SAPE    HY19339   2.328   3.310   6.313  2.3076  0.7005 -0.2130
  171SAPE   O3119340   2.391   3.421   6.484  0.5372 -0.6276 -1.3030
  171SAPE   C3119341   2.383   3.538   6.545  0.4050 -0.3388  0.7333
  171SAPE   O3219342   2.312   3.631   6.510 -0.3955 -0.3055  0.8626
  171SAPE   C3219343   2.457   3.530   6.673 -0.5217 -0.1916  0.0548
  171SAPE   H2X19344   2.558   3.491   6.649 -0.6472  1.3925 -3.6593
  171SAPE   H2Y19345   2.400   3.456   6.733 -2.3986  1.5352  0.4958
  171SAPE   C2319346   1.972   3.367   6.887 -0.0162 -0.2804  0.2469
  171SAPE   H3R19347   1.899   3.285   6.905  0.5560 -0.2926  2.8985
  171SAPE   H3S19348   1.935   3.461   6.935  2.7506  0.9068  0.2452
  171SAPE   C2419349   2.093   3.328   6.967 -0.2613 -0.3962  0.6481
  171SAPE   H4R19350   2.137   3.231   6.933 -0.2633 -0.5500  1.0821
  171SAPE   H4S19351   2.057   3.301   7.068 -0.3226  0.4766  0.8629
  171SAPE   C2519352   2.206   3.428   6.967  0.0853  0.6603 -0.7861
  171SAPE   H5R19353   2.250   3.446   6.868 -1.3281  0.9441 -1.3809
  171SAPE   C2619354   2.249   3.507   7.073 -0.5072 -0.2716  0.5701
  171SAPE   H6R19355   2.332   3.573   7.042  0.7388 -2.3117 -0.7058
  171SAPE   C2719356   2.216   3.508   7.222 -0.0429 -0.1519 -0.3445
  171SAPE   H7R19357   2.299   3.465   7.282 -0.3770 -2.2429 -1.2921
  171SAPE   H7S19358   2.128   3.446   7.250  0.0794  0.3451  1.2346
  171SAPE   C2819359   2.179   3.646   7.271  0.1875 -0.7208  0.2916
  171SAPE   H8R19360   2.245   3.728   7.243 -0.7716 -0.2866 -0.7724
  171SAPE   C2919361   2.079   3.679   7.357 -0.3626  0.0842 -0.5328
  171SAPE   H9R19362   2.058   3.784   7.382  0.1710 -0.2461  1.4626
  171SAPE  C21019363   1.989   3.566   7.415 -0.2281 -0.6478  1.2165
  171SAPE  H10R19364   2.061   3.488   7.448 -0.6482 -0.8937  1.5602
  171SAPE  H10S19365   1.937   3.514   7.332 -2.0785  2.2402  0.4306
  171SAPE  C21119366   1.899   3.619   7.527  0.2242 -0.0997  0.2721
  171SAPE  H11R19367   1.797   3.648   7.498  0.5197  0.0101 -0.6909
  171SAPE  C21219368   1.932   3.630   7.655 -0.3969  0.3392 -0.4207
  171SAPE  H12R19369   1.857   3.670   7.725  0.0330 -2.6747  1.9314
  171SAPE  C21319370   2.063   3.588   7.721  0.2648  0.1439  0.3290
  171SAPE  H13R19371   2.130   3.553   7.639 -0.5230  2.1374 -1.2566
  171SAPE  H13S19372   2.062   3.507   7.797  1.3168 -2.5232 -2.2729
  171SAPE  C21419373   2.107   3.725   7.777  0.6514  0.2111  0.2273
  171SAPE  H14R19374   2.165   3.792   7.712  0.9156 -0.2606 -0.0266
  171SAPE  C21519375   2.086   3.776   7.896 -0.6458  0.0791 -0.6888
  171SAPE  H15R19376   2.125   3.877   7.915 -0.5538  0.1440 -1.2105
  171SAPE  C21619377   2.016   3.717   8.019 -0.6107  0.1340 -0.6645
  171SAPE  H16R19378   2.013   3.608   8.000  2.4694 -0.4026  1.1929
  171SAPE  H16S19379   1.915   3.757   8.042 -0.4584 -0.5137  1.2731
  171SAPE  C21719380   2.105   3.736   8.151  0.7889 -0.1118 -0.1629
  171SAPE  H17R19381   2.121   3.845   8.168 -2.9481  0.9235 -1.9776
  171SAPE  H17S19382   2.196   3.677   8.134  0.2689 -1.1451  0.5477
  171SAPE  C21819383   2.021   3.677   8.263 -0.1490 -0.4264  0.1354
  171SAPE  H18R19384   2.093   3.645   8.342  1.4662  2.9371  0.2186
  171SAPE  H18S19385   1.962   3.589   8.229  3.0176 -1.5942 -2.9153
  171SAPE  C21919386   1.932   3.784   8.329 -0.2067 -0.2526  0.9373
  171SAPE  H19R19387   1.850   3.804   8.257  1.7559 -1.1726 -1.7402
  171SAPE  H19S19388   1.986   3.881   8.326 -1.5218  0.5212 -2.0564
  171SAPE  C22019389   1.876   3.739   8.463  0.0532 -0.0242  0.8728
  171SAPE  H20R19390   1.847   3.632   8.457 -0.5039  0.1598  0.1516
  171SAPE  H20S19391   1.784   3.801   8.470  0.1134  0.3843 -1.2933
  171SAPE  H20T19392   1.936   3.749   8.556 -0.8369 -0.6379  1.5254
  171SAPE   C3319393   2.467   3.668   6.736 -0.6075 -0.1235  0.4490
  171SAPE   H3X19394   2.374   3.716   6.774 -0.1135  1.1863  0.0410
  171SAPE   H3Y19395   2.492   3.746   6.661 -2.0514 -0.8536 -0.8539
  171SAPE   C3419396   2.574   3.667   6.849 -1.1578 -0.2205 -0.1402
  171SAPE   H4X19397   2.666   3.635   6.795 -1.0989 -0.1139 -0.1034
  171SAPE   H4Y19398   2.544   3.598   6.931  0.2047 -0.4680  0.1721
  171SAPE   C3519399   2.596   3.804   6.906  0.1766  0.0988 -0.2311
  171SAPE   H5X19400   2.495   3.851   6.909 -1.4133 -3.0722  0.8074
  171SAPE   H5Y19401   2.663   3.864   6.841  0.7128  2.0283  1.9835
  171SAPE   C3619402   2.658   3.815   7.050 -0.0463 -0.7845 -0.2493
  171SAPE   H6X19403   2.646   3.920   7.082  2.2528 -0.9332  1.3013
  171SAPE   H6Y19404   2.767   3.794   7.042  0.1412  0.0660  0.0758
  171SAPE   C3719405   2.582   3.726   7.154  0.2599  0.0452  0.0563
  171SAPE   H7X19406   2.583   3.618   7.130  0.0574  0.5781 -2.7125
  171SAPE   H7Y19407   2.477   3.764   7.152  0.5277  0.7830 -1.2964
  171SAPE   C3819408   2.631   3.741   7.293 -0.5707 -0.1150  0.0132
  171SAPE   H8X19409   2.622   3.844   7.335  1.5044  0.2378 -0.2607
  171SAPE   H8Y19410   2.741   3.724   7.297 -0.2217  1.8259  4.0355
  171SAPE   C3919411   2.558   3.647   7.400  0.0969  0.2674  0.4438
  171SAPE   H9X19412   2.566   3.542   7.364 -0.3672  1.2158 -2.7674
  171SAPE   H9Y19413   2.449   3.663   7.390  0.5003  2.5147 -1.3299
  171SAPE  C31019414   2.605   3.656   7.547  0.2937 -0.0999 -0.4021
  171SAPE  H10X19415   2.712   3.684   7.554  0.4855 -1.0085  0.4852
  171SAPE  H10Y19416   2.586   3.555   7.589 -1.6237 -0.5683 -2.1924
  171SAPE  C31119417   2.520   3.758   7.625 -0.2056  0.2136  0.1927
  171SAPE  H11X19418   2.417   3.748   7.584 -0.4310 -0.0204  0.8067
  171SAPE  H11Y19419   2.556   3.857   7.589  1.4984 -0.6255 -0.5386
  171SAPE  C31219420   2.530   3.746   7.786 -0.4537  0.0629  0.4651
  171SAPE  H12X19421   2.451   3.675   7.819 -0.4825  0.0901  0.4552
  171SAPE  H12Y19422   2.500   3.843   7.833 -0.4516 -0.6088  1.9180
  171SAPE  C31319423   2.663   3.715   7.848 -0.1937 -0.4725  0.1571
  171SAPE  H13X19424   2.736   3.772   7.786  2.2637 -1.6199  1.8224
  171SAPE  H13Y19425   2.698   3.610   7.839  1.9394  0.2532 -0.6371
  171SAPE  C31419426   2.678   3.756   7.995  0.6121  0.0462  0.4144
  171SAPE  H14X19427   2.655   3.864   8.008 -1.1318 -0.2488 -0.0100
  171SAPE  H14Y19428   2.781   3.738   8.033  0.0242  1.3434  2.7987
  171SAPE  C31519429   2.578   3.697   8.101 -0.4346  0.0873  0.0693
  171SAPE  H15X19430   2.476   3.707   8.057 -0.5360 -0.2661  0.2146
  171SAPE  H15Y19431   2.599   3.758   8.192 -1.1616  2.0754 -1.0299
  171SAPE  C31619432   2.606   3.549   8.136  0.5553 -0.1367 -0.0264
  171SAPE  H16X19433   2.708   3.535   8.177  0.4415  2.3555  1.2484
  171SAPE  H16Y19434   2.612   3.478   8.050  1.3947 -0.4613  0.2835
  171SAPE  C31719435   2.505   3.493   8.243  0.3511  0.9126 -0.0060
  171SAPE  H17X19436   2.405   3.527   8.210  0.3412  0.7509 -0.1437
  171SAPE  H17Y19437   2.512   3.519   8.351  0.3580 -2.3170  0.8930
  171SAPE  C31819438   2.510   3.340   8.249 -0.5013 -0.5313  1.5144
  171SAPE  H18X19439   2.612   3.300   8.269 -0.3069 -0.7127  0.2103
  171SAPE  H18Y19440   2.480   3.294   8.153 -0.3844  3.6967 -0.7743
  171SAPE  H18Z19441   2.440   3.307   8.329 -1.4145  0.6819  1.2410
  172SAPE     N19442   1.681   1.837   6.390 -0.1520  0.1073  0.3452
  172SAPE   HN119443   1.580   1.864   6.393  0.6620  3.7832 -0.2889
  172SAPE   HN219444   1.680   1.738   6.360  0.4396  0.5373 -1.1992
  172SAPE   HN319445   1.717   1.833   6.488  0.0435  0.3196  0.2816
  172SAPE   C1219446   1.755   1.941   6.306  0.3039 -0.0634 -0.0075
  172SAPE  H12A19447   1.846   1.887   6.273 -1.7800 -2.7106 -1.7849
  172SAPE  H12B19448   1.781   2.021   6.379  0.1003  0.8730 -0.9530
  172SAPE   C1119449   1.668   1.992   6.186 -0.0119  0.0074 -0.1674
  172SAPE  H11A19450   1.656   1.916   6.107  1.9771  1.1220 -1.6581
  172SAPE  H11B19451   1.724   2.071   6.131 -0.9125 -0.7514 -2.2460
  172SAPE     P19452   1.522   2.188   6.294  0.5172 -0.6482 -0.2411
  172SAPE   O1319453   1.649   2.264   6.292 -0.0844  0.3387  0.3440
  172SAPE   O1419454   1.400   2.249   6.237  0.0421 -0.6347 -0.2923
  172SAPE   O1219455   1.547   2.049   6.227 -0.9139  0.4793 -0.1216
  172SAPE   O1119456   1.481   2.128   6.432 -0.1892  0.2310  0.4322
  172SAPE    C119457   1.382   2.192   6.514  0.5394 -0.5418 -0.3525
  172SAPE    HA19458   1.338   2.284   6.470 -0.2574 -0.2546  1.0066
  172SAPE    HB19459   1.293   2.128   6.529  1.1737 -2.1777 -2.9533
  172SAPE    C219460   1.425   2.234   6.660  0.2827  0.1836  0.1192
  172SAPE    HS19461   1.349   2.296   6.710  1.3650  0.2657  1.7206
  172SAPE   O2119462   1.549   2.300   6.660  1.4110  0.3589 -0.0010
  172SAPE   C2119463   1.559   2.425   6.615 -0.1826  0.3416 -0.1905
  172SAPE   O2219464   1.467   2.487   6.562  0.1346  0.7289 -0.0725
  172SAPE   C2219465   1.699   2.491   6.645  0.5323 -0.2297 -0.7755
  172SAPE   H2R19466   1.771   2.408   6.650 -0.9894 -1.5936 -0.6851
  172SAPE   H2S19467   1.719   2.556   6.557  0.5517 -0.5104 -0.9793
  172SAPE    C319468   1.447   2.107   6.747  0.3720  0.4661  0.2377
  172SAPE    HX19469   1.524   2.062   6.682  0.2087  0.8973 -0.2613
  172SAPE    HY19470   1.358   2.042   6.736  0.6014  0.3370 -0.9867
  172SAPE   O3119471   1.482   2.137   6.886 -0.1168  0.2064 -0.2363
  172SAPE   C3119472   1.382   2.141   6.972 -0.1750 -0.6107  0.0574
  172SAPE   O3219473   1.265   2.120   6.949 -0.3604 -0.0595 -0.1545
  172SAPE   C3219474   1.454   2.179   7.102 -0.1111  0.0615  0.3646
  172SAPE   H2X19475   1.518   2.265   7.076 -0.7946  1.1085  1.9854
  172SAPE   H2Y19476   1.516   2.090   7.129 -1.0376 -1.7742 -2.9630
  172SAPE   C2319477   1.705   2.574   6.775  0.0387 -0.2096  0.2128
  172SAPE   H3R19478   1.618   2.643   6.779  2.3185  3.0505 -1.4719
  172SAPE   H3S19479   1.795   2.638   6.776  0.9279 -1.4008 -0.6389
  172SAPE   C2419480   1.705   2.482   6.897  0.1367 -0.1324 -0.6475
  172SAPE   H4R19481   1.615   2.417   6.887 -1.4417  1.8644 -0.1067
  172SAPE   H4S19482   1.672   2.540   6.986  1.0861 -2.5062  1.3732
  172SAPE   C2519483   1.833   2.404   6.910 -0.9232  0.0716 -0.1950
  172SAPE   H5R19484   1.863   2.358   6.814  3.4908 -1.0977  1.5377
  172SAPE   C2619485   1.918   2.388   7.013 -0.0002  0.6115 -0.1593
  172SAPE   H6R19486   2.014   2.335   7.001  0.8852  1.2879  3.1510
  172SAPE   C2719487   1.879   2.432   7.149 -0.2239 -0.1627 -0.1146
  172SAPE   H7R19488   1.789   2.377   7.184 -0.3548 -0.3433 -0.7285
  172SAPE   H7S19489   1.849   2.540   7.148 -0.6521 -0.1571  3.0886
  172SAPE   C2819490   1.993   2.412   7.241 -0.2084 -0.3585 -0.0474
  172SAPE   H8R19491   2.086   2.374   7.196  0.5727  1.5321 -0.1377
  172SAPE   C2919492   1.998   2.447   7.370  0.2280 -0.6567 -0.3674
  172SAPE   H9R19493   2.087   2.429   7.432  1.7147  0.9511 -1.9150
  172SAPE  C21019494   1.881   2.502   7.447  0.2616 -0.2624 -0.8546
  172SAPE  H10R19495   1.864   2.432   7.532 -0.0643 -1.4259 -1.8656
  172SAPE  H10S19496   1.784   2.496   7.393 -0.6125 -2.6566  0.7917
  172SAPE  C21119497   1.910   2.644   7.506  0.5859  0.2989  0.4600
  172SAPE  H11R19498   1.932   2.728   7.439 -1.1555  0.8144  0.4951
  172SAPE  C21219499   1.906   2.682   7.635 -0.3792  0.4056  0.5128
  172SAPE  H12R19500   1.933   2.788   7.648  1.7308 -0.1167  0.8096
  172SAPE  C21319501   1.878   2.584   7.750  0.2421 -0.5881  0.5116
  172SAPE  H13R19502   1.978   2.544   7.775  0.2288  0.1759  1.8980
  172SAPE  H13S19503   1.810   2.499   7.727 -0.4347 -0.1830  0.9805
  172SAPE  C21419504   1.807   2.650   7.872  1.2120 -0.1109  0.6334
  172SAPE  H14R19505   1.702   2.622   7.886  0.4511  1.9620 -0.4742
  172SAPE  C21519506   1.859   2.738   7.959 -0.6233 -0.5619  0.9933
  172SAPE  H15R19507   1.802   2.775   8.046 -1.4910  0.9711 -0.1832
  172SAPE  C21619508   2.001   2.801   7.956  0.8173  0.4153  0.5943
  172SAPE  H16R19509   1.993   2.912   7.959 -1.0076  0.2905  1.7209
  172SAPE  H16S19510   2.048   2.772   7.859  0.0478  0.2052  0.2777
  172SAPE  C21719511   2.099   2.736   8.063 -0.2058  0.5764  0.3363
  172SAPE  H17R19512   2.205   2.747   8.030 -0.0573  0.8165  0.8879
  172SAPE  H17S19513   2.081   2.628   8.080  1.7195  0.0602 -0.5042
  172SAPE  C21819514   2.106   2.808   8.198 -0.0882  0.3665  0.3683
  172SAPE  H18R19515   2.014   2.791   8.257  0.0866 -0.2424  0.4780
  172SAPE  H18S19516   2.104   2.917   8.175 -1.1919 -0.1358 -2.2901
  172SAPE  C21919517   2.227   2.759   8.271 -0.0675  0.2516  0.0615
  172SAPE  H19R19518   2.311   2.743   8.200 -0.2772 -0.0482 -0.1190
  172SAPE  H19S19519   2.207   2.661   8.319 -0.3436  0.8211  1.1429
  172SAPE  C22019520   2.281   2.858   8.372  0.3435  0.1041  0.2105
  172SAPE  H20R19521   2.205   2.869   8.452 -1.0192 -0.0853 -1.0067
  172SAPE  H20S19522   2.300   2.952   8.314 -1.1433 -0.6455 -1.6073
  172SAPE  H20T19523   2.379   2.839   8.422  0.4212  1.3316  0.5518
  172SAPE   C3319524   1.364   2.217   7.213 -0.2257  0.1631 -0.7663
  172SAPE   H3X19525   1.316   2.130   7.263  1.2279  1.3274  2.9791
  172SAPE   H3Y19526   1.280   2.283   7.182  0.6935  0.5489 -2.5831
  172SAPE   C3419527   1.442   2.293   7.323 -0.0713  0.1936  0.5053
  172SAPE   H4X19528   1.498   2.382   7.286 -0.5253 -0.0090 -0.6891
  172SAPE   H4Y19529   1.516   2.227   7.373  0.1374 -0.9690 -1.2830
  172SAPE   C3519530   1.363   2.335   7.442 -0.1034 -0.0481 -0.2221
  172SAPE   H5X19531   1.306   2.242   7.465  0.0716  0.0159  0.4799
  172SAPE   H5Y19532   1.290   2.414   7.416  0.8095  0.3774 -1.6135
  172SAPE   C3619533   1.443   2.393   7.560 -0.4346 -0.0912 -0.5827
  172SAPE   H6X19534   1.512   2.473   7.524  0.0810 -0.7714 -1.1494
  172SAPE   H6Y19535   1.516   2.318   7.599 -1.8796 -1.1064  0.2363
  172SAPE   C3719536   1.351   2.454   7.665  0.1373  0.8509 -0.7805
  172SAPE   H7X19537   1.297   2.367   7.707  1.9020  0.0928  0.0379
  172SAPE   H7Y19538   1.277   2.523   7.621 -1.3112  1.1132  1.9288
  172SAPE   C3819539   1.440   2.507   7.784  0.0810  0.2093  0.2007
  172SAPE   H8X19540   1.494   2.593   7.738 -0.2761 -0.5202 -1.6752
  172SAPE   H8Y19541   1.508   2.431   7.827 -1.4904 -0.8891  0.8389
  172SAPE   C3919542   1.341   2.561   7.897 -0.0916  0.9866  0.3898
  172SAPE   H9X19543   1.268   2.483   7.924  1.0712 -0.6617 -0.9772
  172SAPE   H9Y19544   1.281   2.647   7.860 -0.3712  1.0210  0.9137
  172SAPE  C31019545   1.420   2.618   8.013 -0.5085 -0.1335 -0.0956
  172SAPE  H10X19546   1.362   2.667   8.095 -2.0176 -0.7181 -0.7657
  172SAPE  H10Y19547   1.477   2.701   7.966 -3.5597  0.5431 -3.0268
  172SAPE  C31119548   1.520   2.518   8.085  1.5253  0.3175 -0.0177
  172SAPE  H11X19549   1.589   2.467   8.013  0.2223  0.0365 -1.0995
  172SAPE  H11Y19550   1.452   2.441   8.127 -0.4803  2.5955  1.1338
  172SAPE  C31219551   1.589   2.584   8.209  0.0567  0.2484  0.1280
  172SAPE  H12X19552   1.512   2.603   8.287  1.9392  1.5035  1.7691
  172SAPE  H12Y19553   1.635   2.681   8.183 -1.8889  1.7421  1.8811
  172SAPE  C31319554   1.698   2.495   8.271 -0.1702  0.3963  0.1782
  172SAPE  H13X19555   1.755   2.443   8.190  0.0506  0.9215 -0.0081
  172SAPE  H13Y19556   1.653   2.415   8.333 -0.4006 -0.5919 -1.1999
  172SAPE  C31419557   1.791   2.585   8.356 -0.0793 -0.1259  0.4229
  172SAPE  H14X19558   1.831   2.665   8.290  1.8211 -0.5063  1.0627
  172SAPE  H14Y19559   1.886   2.538   8.386 -0.2606 -1.2145 -0.6421
  172SAPE  C31519560   1.725   2.650   8.480  0.1070  0.2529 -0.1019
  172SAPE  H15X19561   1.699   2.567   8.550 -0.3774  1.1648  0.8305
  172SAPE  H15Y19562   1.629   2.703   8.463  0.1112  0.8813  1.6097
  172SAPE  C31619563   1.822   2.732   8.562 -0.6638 -0.3275 -0.1510
  172SAPE  H16X19564   1.848   2.814   8.492  1.7687 -0.3270  0.6870
  172SAPE  H16Y19565   1.914   2.676   8.587 -0.2178 -0.0030 -1.0373
  172SAPE  C31719566   1.773   2.786   8.694 -0.3578 -0.1846 -0.6895
  172SAPE  H17X19567   1.760   2.701   8.764  1.2631 -0.4007 -0.6128
  172SAPE  H17Y19568   1.679   2.840   8.669 -1.1522 -2.3997 -2.9470
  172SAPE  C31819569   1.866   2.885   8.768  0.0996 -0.8757 -0.3916
  172SAPE  H18X19570   1.971   2.860   8.796  0.1411  1.2657  1.6541
  172SAPE  H18Y19571   1.810   2.914   8.860 -3.0562  1.4966 -2.8302
  172SAPE  H18Z19572   1.871   2.977   8.705 -1.2505 -0.7055 -0.2743
  173SOPE     N19573   6.102   1.499  10.721 -0.3928  0.4036 -0.1857
  173SOPE   HN119574   6.121   1.601  10.726  1.7259  0.0349  0.3934
  173SOPE   HN219575   6.012   1.476  10.673 -0.2289  0.0363 -0.3275
  173SOPE   HN319576   6.108   1.463  10.818 -1.8097 -0.8713 -0.5255
  173SOPE   C1219577   6.214   1.434  10.646 -0.4489  0.3540  1.0657
  173SOPE  H12A19578   6.312   1.475  10.679  0.2558  0.5271 -1.0653
  173SOPE  H12B19579   6.198   1.452  10.537 -0.0170  1.1631  1.1291
  173SOPE   C1119580   6.198   1.279  10.670 -0.4506  1.1729 -0.1316
  173SOPE  H11A19581   6.271   1.243  10.595  0.8021  0.0631  1.5500
  173SOPE  H11B19582   6.091   1.251  10.655 -1.5487  2.9559  3.2069
  173SOPE     P19583   6.367   1.155  10.829  0.2592 -0.2924  0.0322
  173SOPE   O1319584   6.351   1.070  10.949  0.5196  0.9338 -0.0743
  173SOPE   O1419585   6.484   1.245  10.830 -0.0402 -0.5190  0.7174
  173SOPE   O1219586   6.242   1.241  10.799 -0.2800 -0.6136  0.2497
  173SOPE   O1119587   6.377   1.060  10.703 -0.3802 -0.1510  0.1856
  173SOPE    C119588   6.520   1.036  10.661  0.1151 -0.4537  0.7169
  173SOPE    HA19589   6.520   0.934  10.617 -1.1614  0.3072 -1.1882
  173SOPE    HB19590   6.594   1.039  10.744 -0.5823 -1.3236  1.4067
  173SOPE    C219591   6.568   1.112  10.534 -0.3746  1.1004  0.0078
  173SOPE    HS19592   6.573   1.214  10.577  0.3394  1.2882 -0.4980
  173SOPE   O2119593   6.478   1.102  10.431 -0.1062  0.4773  0.8037
  173SOPE   C2119594   6.460   1.211  10.353  0.1311 -0.7954  0.8282
  173SOPE   O2219595   6.502   1.321  10.387  0.6670  0.2013 -0.7075
  173SOPE   C2219596   6.376   1.184  10.228  0.4887  1.0552 -0.2490
  173SOPE   H2R19597   6.310   1.272  10.215 -0.7345  0.1249 -0.5680
  173SOPE   H2S19598   6.307   1.103  10.258  0.3654  1.3857  0.3603
  173SOPE    C319599   6.713   1.064  10.503  0.7418 -0.1696 -0.0710
  173SOPE    HX19600   6.772   1.085  10.595 -1.7660  0.1195  1.5791
  173SOPE    HY19601   6.759   1.133  10.429 -0.3178  0.0662 -0.5245
  173SOPE   O3119602   6.732   0.921  10.468  0.2042 -0.3699  0.5102
  173SOPE   C3119603   6.720   0.900  10.331 -0.3899  0.4240  0.4483
  173SOPE   O3219604   6.678   0.984  10.253  0.1488 -0.1375  0.2670
  173SOPE   C3219605   6.764   0.760  10.295 -0.0396 -0.4403  0.1879
  173SOPE   H2X19606   6.715   0.684  10.359 -2.4698 -1.5395 -2.7665
  173SOPE   H2Y19607   6.875   0.760  10.303  0.0892  1.8001 -0.7480
  173SOPE   C2319608   6.464   1.158  10.104  0.4590  0.7197 -0.1125
  173SOPE   H3R19609   6.514   1.059  10.108 -0.5202  0.1822 -0.8976
  173SOPE   H3S19610   6.536   1.238  10.076  1.0770  0.1984 -0.0275
  173SOPE   C2419611   6.368   1.140   9.982  0.1696 -0.0305 -0.6451
  173SOPE   H4R19612   6.300   1.053   9.999  1.5914 -0.6139  3.0856
  173SOPE   H4S19613   6.301   1.228   9.973 -1.4069 -1.0030  0.9247
  173SOPE   C2519614   6.432   1.129   9.837  0.2939 -0.3023 -0.5959
  173SOPE   H5R19615   6.494   1.218   9.817  0.0367  0.3625  1.3369
  173SOPE   H5S19616   6.499   1.040   9.837 -0.2934 -0.7564 -0.3605
  173SOPE   C2619617   6.322   1.105   9.737 -0.1802  0.5726 -0.3577
  173SOPE   H6R19618   6.266   1.013   9.765 -1.0988  1.2725  0.1401
  173SOPE   H6S19619   6.249   1.188   9.745 -1.2263 -0.3992  0.3655
  173SOPE   C2719620   6.372   1.095   9.597 -0.0252  0.1594  0.0597
  173SOPE   H7R19621   6.463   1.031   9.605 -2.2019 -3.1877  0.0810
  173SOPE   H7S19622   6.310   1.031   9.531  0.6023  0.0364 -0.4201
  173SOPE   C2819623   6.394   1.240   9.542 -0.3829  0.5835  0.7630
  173SOPE   H8R19624   6.294   1.286   9.528  0.0453  0.8443 -1.9894
  173SOPE   H8S19625   6.442   1.298   9.624  0.4731 -1.4226  1.7511
  173SOPE   C2919626   6.476   1.245   9.419  0.3210 -0.0180 -0.7187
  173SOPE   H9119627   6.585   1.251   9.430  0.2010  1.3594 -0.1050
  173SOPE  C21019628   6.419   1.240   9.295 -0.4420  0.0932  0.1662
  173SOPE  H10119629   6.488   1.261   9.211  0.3318 -0.1377  0.7319
  173SOPE  C21119630   6.275   1.231   9.258  0.0047 -0.4459  0.3100
  173SOPE  H11R19631   6.229   1.332   9.250 -0.8871 -0.8404  0.2728
  173SOPE  H11S19632   6.216   1.178   9.336 -0.6429  0.1356  0.2212
  173SOPE  C21219633   6.256   1.159   9.120 -0.4536 -0.0566 -0.3307
  173SOPE  H12R19634   6.313   1.222   9.048  0.9697 -0.1430  0.6755
  173SOPE  H12S19635   6.147   1.164   9.098 -0.6091  0.5324  0.5306
  173SOPE  C21319636   6.290   1.014   9.116 -0.4298  0.5562 -0.1663
  173SOPE  H13R19637   6.232   0.957   9.192  1.3433  1.9083  2.3605
  173SOPE  H13S19638   6.398   0.995   9.131 -0.5408  0.7342  1.0062
  173SOPE  C21419639   6.254   0.935   8.984 -0.6070 -0.1556  0.5491
  173SOPE  H14R19640   6.301   0.835   8.996 -1.0181 -0.4661 -0.3374
  173SOPE  H14S19641   6.311   0.982   8.900  1.3445 -0.9748  1.3448
  173SOPE  C21519642   6.110   0.907   8.943 -0.5667 -0.1353  0.4784
  173SOPE  H15R19643   6.126   0.881   8.836  0.2608  2.3542 -0.0595
  173SOPE  H15S19644   6.050   1.001   8.943  0.7271  0.7584 -1.6531
  173SOPE  C21619645   6.049   0.791   9.031 -0.4263 -0.1390 -0.4122
  173SOPE  H16R19646   6.046   0.834   9.133 -0.3280  0.2069 -0.5542
  173SOPE  H16S19647   6.121   0.707   9.039  0.9678  1.1286  0.9823
  173SOPE  C21719648   5.915   0.741   8.981 -0.4663 -0.0441  0.4445
  173SOPE  H17R19649   5.874   0.681   9.065  0.4437 -0.0216  0.9126
  173SOPE  H17S19650   5.924   0.673   8.893 -1.4816 -0.5842  0.7423
  173SOPE  C21819651   5.810   0.851   8.953  0.2253 -1.1381 -0.4952
  173SOPE  H18R19652   5.708   0.812   8.934 -0.3823  0.6429 -1.1078
  173SOPE  H18S19653   5.838   0.918   8.868  2.5364  2.1258  2.5665
  173SOPE  H18T19654   5.810   0.918   9.042 -0.4415 -0.6294 -0.8657
  173SOPE   C3319655   6.721   0.724  10.154  0.2249 -0.1717  0.5018
  173SOPE   H3X19656   6.616   0.752  10.135  0.3047  0.2513  0.6746
  173SOPE   H3Y19657   6.733   0.614  10.151  1.0102 -0.0759 -1.2059
  173SOPE   C3419658   6.796   0.782  10.031 -0.0966 -0.5443 -0.0093
  173SOPE   H4X19659   6.905   0.759  10.026  0.2919  0.2408  2.8293
  173SOPE   H4Y19660   6.784   0.892  10.032 -0.7615 -0.6013 -0.9082
  173SOPE   C3519661   6.728   0.744   9.896  0.2193  0.3596 -0.5228
  173SOPE   H5X19662   6.623   0.778   9.903 -0.0652 -0.7874  1.7925
  173SOPE   H5Y19663   6.738   0.636   9.872 -2.6981 -0.1293  0.1671
  173SOPE   C3619664   6.789   0.833   9.785  0.3061  0.3483 -0.4464
  173SOPE   H6X19665   6.898   0.811   9.784  0.5547  1.2016  2.1664
  173SOPE   H6Y19666   6.769   0.937   9.817 -0.8755  0.2596 -0.8449
  173SOPE   C3719667   6.729   0.812   9.642 -0.3368  0.8641 -0.0366
  173SOPE   H7X19668   6.621   0.836   9.649 -0.5935 -0.3463  0.4487
  173SOPE   H7Y19669   6.731   0.702   9.626 -1.8654  0.8944 -0.5664
  173SOPE   C3819670   6.797   0.881   9.531 -0.4877 -0.6106  0.2452
  173SOPE   H8X19671   6.899   0.841   9.515 -0.4988 -0.3037 -0.6675
  173SOPE   H8Y19672   6.820   0.978   9.581 -2.3824 -0.2480  0.5086
  173SOPE   C3919673   6.720   0.884   9.399  0.4153  0.2047 -0.1399
  173SOPE   H9X19674   6.616   0.923   9.413 -0.0775 -0.4630 -1.6801
  173SOPE   H9Y19675   6.721   0.774   9.387 -1.1476 -0.2184  2.7367
  173SOPE  C31019676   6.804   0.948   9.288  0.3308 -0.6546 -0.4526
  173SOPE  H10X19677   6.911   0.919   9.278 -0.1609 -2.6271 -0.3495
  173SOPE  H10Y19678   6.806   1.057   9.311  2.9898 -0.4526 -1.2260
  173SOPE  C31119679   6.743   0.947   9.147  0.3039  0.6377 -0.1525
  173SOPE  H11X19680   6.644   0.997   9.153  0.0707  0.5357 -2.3815
  173SOPE  H11Y19681   6.734   0.840   9.120 -0.1373  0.2981  1.2220
  173SOPE  C31219682   6.827   1.015   9.036  1.1170 -0.3554 -0.3635
  173SOPE  H12X19683   6.927   0.967   9.043  0.5821 -1.4179  0.1514
  173SOPE  H12Y19684   6.839   1.121   9.065  3.0620 -0.7054  0.2239
  173SOPE  C31319685   6.773   1.011   8.889  0.0218 -0.0072  0.8264
  173SOPE  H13X19686   6.750   0.910   8.849 -0.0734  0.6167 -0.7529
  173SOPE  H13Y19687   6.849   1.057   8.822 -2.0092  1.0791 -0.8694
  173SOPE  C31419688   6.651   1.095   8.885  0.3885 -0.2500  0.2792
  173SOPE  H14X19689   6.669   1.195   8.929  1.6133 -0.7671  1.0154
  173SOPE  H14Y19690   6.569   1.034   8.929 -1.4023  1.9675  0.1494
  173SOPE  C31519691   6.591   1.121   8.748  0.3511 -0.7306  0.6350
  173SOPE  H15X19692   6.670   1.170   8.687  0.5866  0.3205  1.7335
  173SOPE  H15Y19693   6.510   1.196   8.767  2.2005  1.4948  0.1619
  173SOPE  C31619694   6.535   0.997   8.673  0.5377 -0.0583 -0.4255
  173SOPE  H16X19695   6.467   0.940   8.739  3.2484 -1.3407  1.4894
  173SOPE  H16Y19696   6.616   0.926   8.644  1.0672  0.4489 -0.2044
  173SOPE  C31719697   6.470   1.031   8.547  0.2979 -0.1953  0.2878
  173SOPE  H17X19698   6.543   1.040   8.463 -2.6334  0.4299 -2.3894
  173SOPE  H17Y19699   6.424   1.131   8.563  0.9064  0.1187  0.1130
  173SOPE  C31819700   6.348   0.936   8.502  0.5031 -0.5819  0.2012
  173SOPE  H18X19701   6.375   0.830   8.481 -0.1648 -0.5051 -1.1604
  173SOPE  H18Y19702   6.296   0.983   8.416 -1.4451 -0.0856  1.5802
  173SOPE  H18Z19703   6.277   0.928   8.586  0.1817  0.3479  0.0338
  174SOPE     N19704   6.018   6.522  10.825 -0.3096  0.1052  0.1382
  174SOPE   HN119705   5.995   6.618  10.793 -2.1050  0.4464  2.2087
  174SOPE   HN219706   5.950   6.488  10.896 -0.7522  0.8243  0.0693
  174SOPE   HN319707   6.114   6.533  10.865 -0.2193  3.1491 -0.6555
  174SOPE   C1219708   6.030   6.424  10.716  0.4665  0.1293  0.0344
  174SOPE  H12A19709   6.070   6.328  10.757 -3.2113 -1.9914 -0.8517
  174SOPE  H12B19710   6.104   6.465  10.644 -0.3631  1.1541 -0.2495
  174SOPE   C1119711   5.894   6.399  10.639  0.4768  0.2871  0.5710
  174SOPE  H11A19712   5.917   6.334  10.552 -1.8898 -0.3445  0.3448
  174SOPE  H11B19713   5.854   6.498  10.610 -0.5407 -0.2619  0.0510
  174SOPE     P19714   5.699   6.392  10.808  0.3313 -0.2797  0.1174
  174SOPE   O1319715   5.772   6.464  10.915 -0.4432 -0.2690  0.6523
  174SOPE   O1419716   5.598   6.298  10.856  0.2733  0.3508  0.7561
  174SOPE   O1219717   5.802   6.322  10.715  0.1533  0.0161  0.3959
  174SOPE   O1119718   5.623   6.499  10.713  0.2115  0.3496 -0.7625
  174SOPE    C119719   5.539   6.461  10.607 -0.0250  0.3456  0.0626
  174SOPE    HA19720   5.444   6.517  10.602 -0.3702 -0.1840  0.5896
  174SOPE    HB19721   5.501   6.357  10.624  3.9906 -0.8547  3.5415
  174SOPE    C219722   5.596   6.487  10.464 -0.3362 -0.0036 -0.4473
  174SOPE    HS19723   5.686   6.424  10.451  0.8522  0.7660  3.0625
  174SOPE   O2119724   5.624   6.633  10.451 -0.0552  0.4200  0.2206
  174SOPE   C2119725   5.716   6.652  10.351  0.2277 -0.1764 -0.0923
  174SOPE   O2219726   5.781   6.567  10.292 -0.2395 -0.4652 -0.7327
  174SOPE   C2219727   5.709   6.804  10.317  0.6023  0.0953 -0.0514
  174SOPE   H2R19728   5.753   6.853  10.407  0.1347  2.3508 -0.9853
  174SOPE   H2S19729   5.602   6.830  10.306  0.4074 -0.8699 -0.5683
  174SOPE    C319730   5.485   6.449  10.363 -0.0214  0.3675  0.2011
  174SOPE    HX19731   5.396   6.514  10.379 -1.7563 -2.0844  1.1348
  174SOPE    HY19732   5.442   6.350  10.391 -1.3646  1.1546  1.0751
  174SOPE   O3119733   5.536   6.448  10.231  0.4745 -0.5163 -0.1825
  174SOPE   C3119734   5.620   6.348  10.192 -0.1827  0.1243  0.0541
  174SOPE   O3219735   5.643   6.252  10.262 -0.0611  0.6458  0.0898
  174SOPE   C3219736   5.677   6.387  10.049 -0.2833 -0.5674 -0.2789
  174SOPE   H2X19737   5.782   6.417  10.071  0.6007 -1.2282 -3.0728
  174SOPE   H2Y19738   5.626   6.479  10.011 -1.0338 -0.7305  0.3169
  174SOPE   C2319739   5.780   6.844  10.185 -0.3772  0.4840  0.0839
  174SOPE   H3R19740   5.885   6.808  10.188 -1.1005 -1.7833 -0.1623
  174SOPE   H3S19741   5.792   6.954  10.174  0.0739  0.6063  1.5077
  174SOPE   C2419742   5.701   6.787  10.067  0.4489  0.2914  0.1424
  174SOPE   H4R19743   5.681   6.679  10.077  1.1762 -0.3893 -3.9706
  174SOPE   H4S19744   5.600   6.833  10.073 -0.0762 -0.9256  0.9374
  174SOPE   C2519745   5.761   6.813   9.931  0.2660  0.3216  0.2777
  174SOPE   H5R19746   5.763   6.923   9.913 -1.3048  0.1193 -1.4256
  174SOPE   H5S19747   5.857   6.761   9.911 -0.8784 -1.1726 -1.7119
  174SOPE   C2619748   5.675   6.742   9.818 -0.4025  0.7235 -0.1578
  174SOPE   H6R19749   5.697   6.634   9.819  2.2450  1.2089 -0.2578
  174SOPE   H6S19750   5.572   6.778   9.841  0.3659  3.9308 -1.2235
  174SOPE   C2719751   5.718   6.800   9.681 -0.0372 -0.4406  0.0238
  174SOPE   H7R19752   5.687   6.907   9.689 -0.3833 -0.6473  1.7567
  174SOPE   H7S19753   5.829   6.795   9.676  0.2078  2.6469  0.0844
  174SOPE   C2819754   5.655   6.734   9.553 -0.5203  0.1311  0.9221
  174SOPE   H8R19755   5.647   6.624   9.567 -2.4418  0.0790 -0.2666
  174SOPE   H8S19756   5.551   6.768   9.533 -0.4774 -0.8497 -1.2007
  174SOPE   C2919757   5.746   6.750   9.433  0.0264  0.1240 -1.3276
  174SOPE   H9119758   5.837   6.687   9.431  0.4228  0.5677  0.7451
  174SOPE  C21019759   5.734   6.839   9.334  0.5067  0.5229 -0.2852
  174SOPE  H10119760   5.797   6.837   9.244  1.9827  0.1835  0.7048
  174SOPE  C21119761   5.613   6.927   9.328  0.4422 -0.7942  0.1431
  174SOPE  H11R19762   5.625   7.024   9.275 -0.5603  0.5047  2.1873
  174SOPE  H11S19763   5.591   6.953   9.434 -0.2088  0.1604 -0.2035
  174SOPE  C21219764   5.479   6.867   9.275 -0.2288 -0.6717  0.2653
  174SOPE  H12R19765   5.394   6.929   9.309  0.4983 -0.2762  1.4116
  174SOPE  H12S19766   5.466   6.763   9.314  0.7683 -1.1400 -0.5993
  174SOPE  C21319767   5.467   6.851   9.122  0.3001 -0.3385  0.0061
  174SOPE  H13R19768   5.524   6.764   9.084 -2.1997 -1.9163 -0.4102
  174SOPE  H13S19769   5.493   6.946   9.072 -0.9596 -0.1901 -0.4009
  174SOPE  C21419770   5.321   6.806   9.088  0.6539 -0.2212 -0.2728
  174SOPE  H14R19771   5.233   6.862   9.126 -1.0335 -2.4820 -0.5905
  174SOPE  H14S19772   5.301   6.707   9.135  2.1403 -0.3885  0.0387
  174SOPE  C21519773   5.298   6.788   8.939 -0.1687  0.0243 -0.0970
  174SOPE  H15R19774   5.384   6.731   8.898  0.5294 -0.4831  1.9578
  174SOPE  H15S19775   5.295   6.881   8.880  0.1255 -0.5000 -0.9482
  174SOPE  C21619776   5.166   6.717   8.917  0.1773  0.4985 -0.5870
  174SOPE  H16R19777   5.082   6.769   8.969  0.9825 -0.4687  1.8166
  174SOPE  H16S19778   5.172   6.617   8.966  1.6055  0.5876 -0.5622
  174SOPE  C21719779   5.134   6.693   8.772  0.1559 -0.2995 -0.4463
  174SOPE  H17R19780   5.188   6.604   8.735  2.2386  0.1868  1.2368
  174SOPE  H17S19781   5.168   6.783   8.717 -1.3845  0.8652  0.4121
  174SOPE  C21819782   4.983   6.678   8.738 -0.5603 -0.2579  0.0332
  174SOPE  H18R19783   4.973   6.644   8.632  1.8719  2.0310 -1.0342
  174SOPE  H18S19784   4.940   6.781   8.739 -0.0523 -0.0361  1.5596
  174SOPE  H18T19785   4.929   6.617   8.813 -1.0963  1.9622  1.5417
  174SOPE   C3319786   5.677   6.269   9.950 -0.6747  0.3080  0.0163
  174SOPE   H3X19787   5.573   6.242   9.924 -0.8847 -0.4312  1.5482
  174SOPE   H3Y19788   5.732   6.188  10.002 -0.1686  0.8718  0.3809
  174SOPE   C3419789   5.756   6.304   9.815 -0.4199 -0.5052 -0.4465
  174SOPE   H4X19790   5.863   6.313   9.840  0.0722 -0.7291 -2.3057
  174SOPE   H4Y19791   5.727   6.408   9.790  0.1295 -0.6229 -1.6240
  174SOPE   C3519792   5.715   6.212   9.696  0.0795  0.0481  0.0809
  174SOPE   H5X19793   5.606   6.222   9.677 -0.0758 -0.3863  0.7439
  174SOPE   H5Y19794   5.734   6.115   9.747 -0.6500  0.0992  0.4675
  174SOPE   C3619795   5.797   6.249   9.569 -0.1959  0.2684 -0.2984
  174SOPE   H6X19796   5.785   6.165   9.499 -0.7616 -0.7246  0.9456
  174SOPE   H6Y19797   5.903   6.261   9.601  0.3737 -1.2742 -1.5041
  174SOPE   C3719798   5.758   6.384   9.513 -1.0081 -0.0545  0.2729
  174SOPE   H7X19799   5.821   6.472   9.538 -3.0466  1.9328 -1.1373
  174SOPE   H7Y19800   5.663   6.424   9.553  0.4226  3.4976  0.5001
  174SOPE   C3819801   5.753   6.393   9.366 -0.3001  0.0730  0.7577
  174SOPE   H8X19802   5.694   6.477   9.323 -0.5317  1.0275  2.8016
  174SOPE   H8Y19803   5.699   6.305   9.326  3.8550 -1.9501 -0.9743
  174SOPE   C3919804   5.892   6.376   9.307 -0.1886 -0.1968  0.3355
  174SOPE   H9X19805   5.928   6.271   9.312 -2.9251 -1.2426 -0.2094
  174SOPE   H9Y19806   5.964   6.450   9.348 -0.9907  0.3683  0.7346
  174SOPE  C31019807   5.893   6.422   9.162  0.4760  0.3795  0.4830
  174SOPE  H10X19808   5.862   6.528   9.171  1.4464  0.6352  0.8742
  174SOPE  H10Y19809   5.815   6.366   9.106  0.4517  0.6287  0.2618
  174SOPE  C31119810   6.030   6.409   9.098  0.3095  0.0998 -0.2890
  174SOPE  H11X19811   6.048   6.309   9.054 -1.0522 -0.2751 -0.0474
  174SOPE  H11Y19812   6.102   6.408   9.182  1.2336  0.6022 -1.0543
  174SOPE  C31219813   6.064   6.508   8.978  0.4784  0.0807 -0.1421
  174SOPE  H12X19814   6.163   6.479   8.935 -0.1791  0.7429 -2.2152
  174SOPE  H12Y19815   6.075   6.609   9.023  0.9459 -0.4801  1.0580
  174SOPE  C31319816   5.957   6.509   8.858 -0.4785  0.3589 -0.8845
  174SOPE  H13X19817   5.878   6.579   8.893 -0.1279  0.4049 -0.1577
  174SOPE  H13Y19818   5.913   6.407   8.855  0.7282 -0.3303  2.0034
  174SOPE  C31419819   6.019   6.559   8.725 -0.5046  0.0628  0.4024
  174SOPE  H14X19820   6.050   6.664   8.743  1.2287 -0.3711  0.1065
  174SOPE  H14Y19821   5.938   6.562   8.648 -0.8607 -0.5231  0.7477
  174SOPE  C31519822   6.142   6.486   8.674  0.1608 -0.9737 -0.3611
  174SOPE  H15X19823   6.126   6.378   8.699 -1.5964 -0.7121 -0.1745
  174SOPE  H15Y19824   6.222   6.519   8.743 -0.7865  1.9416 -0.5266
  174SOPE  C31619825   6.177   6.538   8.531 -0.2829  0.8726  0.3168
  174SOPE  H16X19826   6.203   6.645   8.539  0.0136  0.8918 -0.7500
  174SOPE  H16Y19827   6.087   6.536   8.466  1.3431  3.1373 -2.2299
  174SOPE  C31719828   6.292   6.473   8.460  0.0088  0.0098  0.2280
  174SOPE  H17X19829   6.283   6.363   8.474  0.5125 -0.0398  0.1598
  174SOPE  H17Y19830   6.395   6.490   8.498 -0.2388  0.6743  0.6181
  174SOPE  C31819831   6.301   6.503   8.309 -0.7783 -0.0904  0.1804
  174SOPE  H18X19832   6.199   6.495   8.267 -1.0670 -0.4466  0.9334
  174SOPE  H18Y19833   6.348   6.413   8.263 -1.9968 -0.5916 -0.1323
  174SOPE  H18Z19834   6.347   6.601   8.286  0.4262 -0.8764 -0.9118
  175SOPE     N19835   2.397   0.190  10.686 -0.1193 -0.0656 -0.4150
  175SOPE   HN119836   2.384   0.100  10.736  0.2200  0.2224  0.1993
  175SOPE   HN219837   2.496   0.219  10.701 -0.0547  0.2069 -1.2905
  175SOPE   HN319838   2.339   0.267  10.726  0.7029  1.3514 -1.8167
  175SOPE   C1219839   2.382   0.172  10.536  0.7893  0.1015 -0.0872
  175SOPE  H12A19840   2.308   0.091  10.518  2.7675 -1.2189 -3.2063
  175SOPE  H12B19841   2.486   0.144  10.510  1.0321 -2.3075  2.8392
  175SOPE   C1119842   2.342   0.304  10.466  0.2429  0.4960 -0.8957
  175SOPE  H11A19843   2.348   0.277  10.359  1.0032 -0.1390 -0.7088
  175SOPE  H11B19844   2.411   0.384  10.500 -0.0015  0.0025  0.8874
  175SOPE     P19845   2.148   0.479  10.496 -0.3263  0.3955  0.2790
  175SOPE   O1319846   2.140   0.537  10.630 -0.7209  0.1313  0.4516
  175SOPE   O1419847   2.024   0.483  10.420 -0.2066 -0.0935  0.0209
  175SOPE   O1219848   2.205   0.333  10.506  0.0322 -0.2483 -0.0019
  175SOPE   O1119849   2.256   0.564  10.428 -0.0059 -0.7537  0.0274
  175SOPE    C119850   2.262   0.583  10.286 -0.4906 -0.2594 -1.0141
  175SOPE    HA19851   2.249   0.489  10.229  0.3894 -1.8528  1.3015
  175SOPE    HB19852   2.363   0.623  10.260 -0.5714 -0.0452 -1.0003
  175SOPE    C219853   2.154   0.679  10.243  0.0968 -0.5241  0.3457
  175SOPE    HS19854   2.055   0.630  10.238 -0.7036  1.1330 -3.1918
  175SOPE   O2119855   2.187   0.713  10.106 -0.3872  0.3983 -0.2167
  175SOPE   C2119856   2.078   0.754  10.037 -0.6880  0.0399  0.6968
  175SOPE   O2219857   1.966   0.764  10.078 -0.8028  0.4918 -0.1026
  175SOPE   C2219858   2.119   0.809   9.898  0.0140 -0.4698 -0.1634
  175SOPE   H2R19859   2.226   0.803   9.867  0.5763 -1.1035  1.7200
  175SOPE   H2S19860   2.097   0.914   9.927 -0.7664 -1.7028  4.7162
  175SOPE    C319861   2.160   0.811  10.332  0.0189  0.2834  0.0946
  175SOPE    HX19862   2.266   0.847  10.330 -0.0254  0.5547  1.6477
  175SOPE    HY19863   2.146   0.784  10.439  0.8249 -0.9044 -0.0796
  175SOPE   O3119864   2.072   0.915  10.290  0.4825  0.7739  0.7808
  175SOPE   C3119865   1.959   0.919  10.348  0.1713 -0.2300 -0.3015
  175SOPE   O3219866   1.922   0.859  10.446  0.8855 -0.2908  0.3098
  175SOPE   C3219867   1.864   1.032  10.286 -0.3995 -0.2258  0.3418
  175SOPE   H2X19868   1.769   1.037  10.344  0.2248 -1.0955  1.5013
  175SOPE   H2Y19869   1.840   0.990  10.186 -0.3650 -0.3614  0.3904
  175SOPE   C2319870   2.031   0.761   9.778  0.9332  0.1464 -0.1731
  175SOPE   H3R19871   1.961   0.839   9.743  0.9410  0.1720 -0.1317
  175SOPE   H3S19872   1.975   0.677   9.824 -0.6607  0.5385 -1.3314
  175SOPE   C2419873   2.115   0.717   9.656  0.0890  0.6483 -0.3451
  175SOPE   H4R19874   2.147   0.813   9.610 -0.9504  0.5081 -1.4015
  175SOPE   H4S19875   2.198   0.650   9.686 -1.3943 -1.0750  0.1044
  175SOPE   C2519876   2.035   0.621   9.560  0.5892  0.6471 -0.1036
  175SOPE   H5R19877   2.008   0.536   9.625 -1.0722  1.7752  0.7528
  175SOPE   H5S19878   1.941   0.675   9.534 -0.5272  0.1235  2.5431
  175SOPE   C2619879   2.125   0.586   9.436 -0.0895  0.1342 -0.0020
  175SOPE   H6R19880   2.180   0.674   9.396  0.9222  0.6925  2.4296
  175SOPE   H6S19881   2.197   0.506   9.464  0.4039 -0.2628 -2.2019
  175SOPE   C2719882   2.040   0.530   9.323 -0.1096  0.4182  0.1854
  175SOPE   H7R19883   1.998   0.432   9.356 -0.1636  0.4552  0.2251
  175SOPE   H7S19884   1.950   0.594   9.312 -1.4244 -1.5503 -1.4259
  175SOPE   C2819885   2.106   0.511   9.184  0.0433  0.6900  0.5871
  175SOPE   H8R19886   2.140   0.615   9.165  1.7195  0.3481  1.5326
  175SOPE   H8S19887   2.192   0.445   9.207  2.7670  2.9591 -2.1718
  175SOPE   C2919888   2.014   0.465   9.072 -0.0873  0.3897  0.5184
  175SOPE   H9119889   1.917   0.418   9.095 -0.5344  0.0534 -1.7552
  175SOPE  C21019890   2.038   0.484   8.940 -0.2377  0.6545  0.9368
  175SOPE  H10119891   1.964   0.458   8.863  0.5585 -1.4176  0.8217
  175SOPE  C21119892   2.153   0.552   8.875  0.1572  0.3337 -0.2327
  175SOPE  H11R19893   2.216   0.611   8.945 -0.9658  0.6719  0.5126
  175SOPE  H11S19894   2.106   0.626   8.807 -1.6086  0.3460  0.9555
  175SOPE  C21219895   2.247   0.449   8.802  0.0112  0.3942  0.4705
  175SOPE  H12R19896   2.199   0.369   8.742  1.6116  1.0837 -1.8445
  175SOPE  H12S19897   2.294   0.395   8.887  0.3009 -0.4529 -0.2123
  175SOPE  C21319898   2.365   0.509   8.716  0.0396 -0.1228 -0.3970
  175SOPE  H13R19899   2.416   0.577   8.788  1.8338 -0.2828 -1.4523
  175SOPE  H13S19900   2.326   0.574   8.635  0.9708 -0.7875 -1.4252
  175SOPE  C21419901   2.451   0.394   8.654 -0.4777  0.2512  0.0244
  175SOPE  H14R19902   2.388   0.339   8.580 -0.8293 -1.1091  1.2954
  175SOPE  H14S19903   2.455   0.318   8.734 -0.5394  0.1142 -0.1023
  175SOPE  C21519904   2.587   0.430   8.593 -0.6198 -0.6559 -0.0252
  175SOPE  H15R19905   2.654   0.471   8.672 -0.3066 -0.4318 -0.4058
  175SOPE  H15S19906   2.581   0.517   8.525  2.8116  0.0592  0.4432
  175SOPE  C21619907   2.652   0.321   8.516  0.2549  0.2020  0.1073
  175SOPE  H16R19908   2.597   0.305   8.421 -1.8153  0.2353  1.2421
  175SOPE  H16S19909   2.652   0.229   8.579  0.7762  0.5688  0.6529
  175SOPE  C21719910   2.797   0.349   8.470 -0.8035 -0.2165 -0.5145
  175SOPE  H17R19911   2.868   0.353   8.555  0.1510  2.0406 -1.3395
  175SOPE  H17S19912   2.809   0.443   8.412 -0.1632 -0.5957 -1.0144
  175SOPE  C21819913   2.847   0.250   8.368  0.2944  0.3668  0.1469
  175SOPE  H18R19914   2.783   0.251   8.277  1.0662  1.6517 -0.4131
  175SOPE  H18S19915   2.843   0.147   8.409 -1.6712  0.8750  1.3289
  175SOPE  H18T19916   2.945   0.277   8.323  0.0860 -0.7893 -1.0825
  175SOPE   C3319917   1.941   1.162  10.257 -0.0978 -0.9338 -0.6607
  175SOPE   H3X19918   2.004   1.161  10.165  0.5943  1.2102 -0.2610
  175SOPE   H3Y19919   2.019   1.186  10.333 -0.4703 -0.4396 -0.4284
  175SOPE   C3419920   1.844   1.282  10.236  0.0333  0.1327 -0.6917
  175SOPE   H4X19921   1.760   1.285  10.309  0.5622 -1.2649  0.0016
  175SOPE   H4Y19922   1.808   1.259  10.133  0.0256  0.7359 -0.8269
  175SOPE   C3519923   1.922   1.414  10.217 -0.1057  0.0877  0.4393
  175SOPE   H5X19924   1.968   1.448  10.312 -0.7754  2.5756 -0.0712
  175SOPE   H5Y19925   1.836   1.481  10.198 -1.5851 -1.5730  0.9312
  175SOPE   C3619926   2.032   1.408  10.108 -0.0954 -0.2790 -0.6365
  175SOPE   H6X19927   1.983   1.352  10.024  0.6999  0.7266 -1.8080
  175SOPE   H6Y19928   2.128   1.358  10.132  0.8766  3.1037  3.6527
  175SOPE   C3719929   2.060   1.547  10.060  0.5278 -0.1223 -0.6282
  175SOPE   H7X19930   2.125   1.596  10.135  0.3051  0.7880 -1.0117
  175SOPE   H7Y19931   1.966   1.607  10.057  1.3490  1.1936 -1.0198
  175SOPE   C3819932   2.130   1.556   9.923 -0.8887 -0.2634 -0.2788
  175SOPE   H8X19933   2.215   1.485   9.916 -0.7553 -0.1618  0.2484
  175SOPE   H8Y19934   2.172   1.658   9.910  0.9087 -0.8498  0.6833
  175SOPE   C3919935   2.029   1.542   9.809  0.3850 -0.2598 -0.0010
  175SOPE   H9X19936   1.940   1.608   9.812 -1.1413 -2.1669 -1.0582
  175SOPE   H9Y19937   1.986   1.440   9.817  0.4593 -0.2201  1.0263
  175SOPE  C31019938   2.096   1.554   9.672  0.0810 -0.1310  0.8515
  175SOPE  H10X19939   2.195   1.504   9.678  0.3762  0.4372  0.8539
  175SOPE  H10Y19940   2.123   1.659   9.647  3.4014 -1.3962 -1.8041
  175SOPE  C31119941   1.992   1.504   9.576  0.5047 -0.3319  0.0846
  175SOPE  H11X19942   1.893   1.556   9.573 -2.1003 -4.8394 -2.0751
  175SOPE  H11Y19943   1.963   1.402   9.608 -0.4674  1.1333  4.5752
  175SOPE  C31219944   2.040   1.510   9.433  0.1167  0.2360 -0.8734
  175SOPE  H12X19945   2.120   1.434   9.413  0.6796  0.9694 -1.4636
  175SOPE  H12Y19946   2.096   1.606   9.425 -2.5965  2.0195  0.3484
  175SOPE  C31319947   1.927   1.499   9.328 -0.2600  0.1101  0.5856
  175SOPE  H13X19948   1.863   1.590   9.333  0.7655  0.8494  0.6941
  175SOPE  H13Y19949   1.856   1.414   9.341 -1.9773  1.4123  0.1209
  175SOPE  C31419950   2.011   1.501   9.191  0.8885 -0.2700  0.0527
  175SOPE  H14X19951   2.099   1.434   9.191  1.8820  0.9269 -2.1298
  175SOPE  H14Y19952   2.051   1.604   9.185  0.6470 -0.2283 -1.2907
  175SOPE  C31519953   1.922   1.475   9.063  0.5174 -0.1700 -0.4760
  175SOPE  H15X19954   1.874   1.571   9.034  0.8674 -0.6781 -2.9498
  175SOPE  H15Y19955   1.861   1.386   9.086  0.8647 -0.2753  0.0680
  175SOPE  C31619956   2.014   1.433   8.945  0.1707  0.0898 -0.6926
  175SOPE  H16X19957   2.086   1.357   8.981 -0.4886 -1.3337 -2.2542
  175SOPE  H16Y19958   2.068   1.527   8.917 -1.7096  2.5362  3.0494
  175SOPE  C31719959   1.930   1.376   8.821 -0.1184  0.4730  0.3224
  175SOPE  H17X19960   1.842   1.441   8.798 -0.8367 -1.3112 -2.4577
  175SOPE  H17Y19961   1.889   1.277   8.850 -1.4161  1.5426  2.3454
  175SOPE  C31819962   2.018   1.371   8.691 -0.3823 -0.0670  0.7823
  175SOPE  H18X19963   2.046   1.473   8.660 -0.8597 -0.4364 -0.9364
  175SOPE  H18Y19964   1.956   1.320   8.615  0.1077  1.5768 -0.7808
  175SOPE  H18Z19965   2.106   1.304   8.701 -0.1235  0.3280  1.2019
  176SOPE     N19966   6.458   0.327  10.846  0.1199 -0.8975 -0.8798
  176SOPE   HN119967   6.515   0.381  10.915 -0.6030 -0.0865 -0.8959
  176SOPE   HN219968   6.473   0.376  10.756  0.2258  2.1444  0.6386
  176SOPE   HN319969   6.359   0.323  10.878  0.2425 -2.5412 -0.6420
  176SOPE   C1219970   6.525   0.185  10.837 -0.9248  0.3005  0.0781
  176SOPE  H12A19971   6.498   0.134  10.742  3.6495 -1.1124 -0.7106
  176SOPE  H12B19972   6.487   0.127  10.923 -2.4133 -2.0317 -2.0089
  176SOPE   C1119973   6.675   0.189  10.857 -0.2891 -0.3806 -0.4360
  176SOPE  H11A19974   6.713   0.099  10.805  1.2938  1.0355 -1.8552
  176SOPE  H11B19975   6.697   0.179  10.965 -1.3376 -1.6440 -0.3290
  176SOPE     P19976   6.786   0.417  10.882  0.3180 -0.0860 -0.4011
  176SOPE   O1319977   6.870   0.361  10.985 -0.2619 -0.0604  0.0969
  176SOPE   O1419978   6.667   0.489  10.931  0.1026  0.1429  0.2394
  176SOPE   O1219979   6.738   0.300  10.792  0.1940  0.2434  0.2720
  176SOPE   O1119980   6.866   0.495  10.786 -0.1237 -0.6309  0.1477
  176SOPE    C119981   6.998   0.465  10.738  0.3597 -0.4854 -0.1872
  176SOPE    HA19982   7.046   0.376  10.784  1.4021 -0.3838 -1.0419
  176SOPE    HB19983   7.053   0.558  10.765  1.7552 -1.2987 -0.1020
  176SOPE    C219984   7.001   0.445  10.582 -0.0480 -0.4196 -0.0687
  176SOPE    HS19985   6.969   0.538  10.530  1.8730 -0.5022 -1.5293
  176SOPE   O2119986   6.923   0.337  10.546 -0.2530  0.4126  0.1167
  176SOPE   C2119987   6.795   0.364  10.504 -0.8503  0.5833  0.1007
  176SOPE   O2219988   6.747   0.479  10.497 -0.2456  0.3143 -0.3251
  176SOPE   C2219989   6.708   0.245  10.472  0.3905 -0.0605  0.3276
  176SOPE   H2R19990   6.637   0.248  10.557 -0.1897 -1.3736 -0.0994
  176SOPE   H2S19991   6.770   0.153  10.464  0.4858  0.0896 -0.8602
  176SOPE    C319992   7.156   0.439  10.551  0.6280  0.2716  0.1917
  176SOPE    HX19993   7.202   0.350  10.599  0.9885  0.5608  0.3902
  176SOPE    HY19994   7.204   0.527  10.601  0.1167  0.3098  0.6243
  176SOPE   O3119995   7.180   0.441  10.408 -0.6651  0.0049  0.1436
  176SOPE   C3119996   7.194   0.552  10.340 -0.1187  0.0052  0.0933
  176SOPE   O3219997   7.182   0.662  10.394 -0.7687  0.2510  0.0007
  176SOPE   C3219998   7.230   0.526  10.201  0.3617 -0.6837  0.1096
  176SOPE   H2X19999   7.260   0.419  10.194 -0.0798 -0.8132  0.1949
  176SOPE   H2Y20000   7.308   0.602  10.177 -0.7305  0.7969  1.0938
  176SOPE   C2320001   6.625   0.274  10.340  0.1902  0.0645 -0.2807
  176SOPE   H3R20002   6.584   0.377  10.340  3.8872  1.7978 -3.3628
  176SOPE   H3S20003   6.537   0.206  10.330  0.0434  0.0641  0.9006
  176SOPE   C2420004   6.721   0.275  10.218 -0.0964 -0.1410 -0.3957
  176SOPE   H4R20005   6.794   0.358  10.231 -0.8537  0.3495  0.9303
  176SOPE   H4S20006   6.785   0.185  10.223  1.3009  0.8753  1.3287
  176SOPE   C2520007   6.640   0.289  10.089 -0.0956  0.6654 -0.5253
  176SOPE   H5R20008   6.596   0.189  10.072 -0.1233  0.8645 -1.7498
  176SOPE   H5S20009   6.560   0.366  10.099  0.3772  1.3099 -1.4580
  176SOPE   C2620010   6.731   0.322   9.972 -0.0187  0.1427  0.7790
  176SOPE   H6R20011   6.767   0.426   9.991 -0.6097  0.1456  1.9571
  176SOPE   H6S20012   6.814   0.249   9.974  1.0528  1.2236 -0.8283
  176SOPE   C2720013   6.653   0.323   9.842 -0.1016 -0.0612 -0.7845
  176SOPE   H7R20014   6.596   0.228   9.849  0.8290 -0.5293  2.6639
  176SOPE   H7S20015   6.580   0.407   9.845  0.2912  0.2714  0.8701
  176SOPE   C2820016   6.746   0.325   9.719  0.5069 -0.0537 -0.5662
  176SOPE   H8R20017   6.812   0.414   9.725  2.1264 -1.2876  0.8071
  176SOPE   H8S20018   6.806   0.232   9.725  2.2979  1.0220 -1.1898
  176SOPE   C2920019   6.675   0.324   9.592 -0.0526 -0.4545 -0.6160
  176SOPE   H9120020   6.599   0.400   9.568 -0.0888  0.1102  1.1419
  176SOPE  C21020021   6.681   0.237   9.489  0.9101 -0.1300  0.6430
  176SOPE  H10120022   6.613   0.246   9.403  1.8545 -2.2659 -0.3966
  176SOPE  C21120023   6.749   0.103   9.475  0.4866  0.6094  0.4408
  176SOPE  H11R20024   6.669   0.025   9.469 -0.9285  1.9780  0.9293
  176SOPE  H11S20025   6.821   0.089   9.558  0.0034  1.4086  0.9980
  176SOPE  C21220026   6.824   0.096   9.343 -0.3771 -0.2529  0.4867
  176SOPE  H12R20027   6.859  -0.009   9.342 -3.7202 -1.5498  2.2638
  176SOPE  H12S20028   6.910   0.165   9.349  0.7881 -1.5351 -0.8466
  176SOPE  C21320029   6.740   0.110   9.213  0.3529  0.2506 -0.2989
  176SOPE  H13R20030   6.716   0.217   9.196  3.3300  1.4008  1.9268
  176SOPE  H13S20031   6.648   0.049   9.230  0.5982 -0.8097 -2.4417
  176SOPE  C21420032   6.805   0.058   9.085  0.4723  0.0657  0.2371
  176SOPE  H14R20033   6.905   0.099   9.061  0.9320 -1.9478 -1.5993
  176SOPE  H14S20034   6.738   0.079   8.999  0.0430 -1.6020  0.1361
  176SOPE  C21520035   6.815  -0.104   9.087  0.0651 -0.5208 -0.6515
  176SOPE  H15R20036   6.722  -0.154   9.120  1.5474 -1.7198  2.0043
  176SOPE  H15S20037   6.894  -0.116   9.164  0.1022  2.0948 -0.1974
  176SOPE  C21620038   6.862  -0.157   8.951 -1.1826  0.4361 -0.2395
  176SOPE  H16R20039   6.906  -0.258   8.966 -0.7516  0.4411 -1.3798
  176SOPE  H16S20040   6.948  -0.099   8.911  1.6082 -2.1673  1.5483
  176SOPE  C21720041   6.753  -0.184   8.848  0.3395  0.2675 -0.2235
  176SOPE  H17R20042   6.723  -0.080   8.820 -0.2500  1.0859  3.0063
  176SOPE  H17S20043   6.664  -0.224   8.900  0.1403  2.0436  0.9095
  176SOPE  C21820044   6.788  -0.266   8.728  0.5122  0.1511  0.6836
  176SOPE  H18R20045   6.863  -0.218   8.660  1.2212 -1.6991  0.0776
  176SOPE  H18S20046   6.700  -0.281   8.662  0.9054  0.6578  0.0291
  176SOPE  H18T20047   6.827  -0.370   8.737  0.9285 -0.0459 -2.3143
  176SOPE   C3320048   7.121   0.544  10.098  0.4771 -0.3190  0.1685
  176SOPE   H3X20049   7.083   0.646  10.077 -0.9037 -1.0042 -0.8586
  176SOPE   H3Y20050   7.038   0.474  10.122  1.4320 -1.7458 -0.5621
  176SOPE   C3420051   7.179   0.504   9.957  0.5045  0.0131 -0.5790
  176SOPE   H4X20052   7.228   0.405   9.965 -2.0406 -1.2645  0.3115
  176SOPE   H4Y20053   7.254   0.585   9.942  0.1684  0.6662  1.0112
  176SOPE   C3520054   7.073   0.503   9.848  0.1484 -0.7609  0.5766
  176SOPE   H5X20055   6.981   0.563   9.864  0.1923 -0.5951  0.2179
  176SOPE   H5Y20056   7.045   0.395   9.849 -0.6629 -0.5539  1.6783
  176SOPE   C3620057   7.135   0.544   9.708  0.5687 -0.3800 -0.7089
  176SOPE   H6X20058   7.215   0.469   9.691  0.6703 -0.1435 -1.2767
  176SOPE   H6Y20059   7.169   0.649   9.698 -1.7372  0.3411 -1.7337
  176SOPE   C3720060   7.031   0.539   9.593 -0.2299  0.5007  0.1808
  176SOPE   H7X20061   6.944   0.597   9.632 -2.2702 -2.9000  1.0623
  176SOPE   H7Y20062   6.991   0.437   9.577 -0.4732  0.4380  1.1170
  176SOPE   C3820063   7.079   0.599   9.466 -0.0656  0.0341  0.4178
  176SOPE   H8X20064   7.180   0.567   9.434 -0.7026 -1.0987 -0.5235
  176SOPE   H8Y20065   7.095   0.708   9.480 -0.0123  0.7098 -3.7477
  176SOPE   C3920066   6.984   0.567   9.348 -0.5761 -0.4368  0.7657
  176SOPE   H9X20067   6.879   0.596   9.372  0.0784  0.3588  2.9732
  176SOPE   H9Y20068   6.981   0.456   9.344  0.7713 -0.4478 -1.2463
  176SOPE  C31020069   7.027   0.618   9.211 -0.2864  0.3730  0.3598
  176SOPE  H10X20070   7.125   0.567   9.192  0.3494  1.7369 -0.1261
  176SOPE  H10Y20071   7.062   0.723   9.221 -1.1766  0.5447  1.9455
  176SOPE  C31120072   6.925   0.583   9.108  0.5079 -0.6050 -0.2165
  176SOPE  H11X20073   6.941   0.660   9.030 -1.3038  1.3007  1.1804
  176SOPE  H11Y20074   6.828   0.604   9.157  1.1039 -1.5832  1.4880
  176SOPE  C31220075   6.943   0.444   9.052  0.1286  0.4243  0.4194
  176SOPE  H12X20076   6.911   0.372   9.131  2.2200  1.1669  2.0535
  176SOPE  H12Y20077   7.050   0.435   9.026  0.1654 -2.1089  1.1607
  176SOPE  C31320078   6.856   0.422   8.919 -0.3363 -0.0975  0.5243
  176SOPE  H13X20079   6.800   0.515   8.896 -2.0669 -0.5620  2.5136
  176SOPE  H13Y20080   6.772   0.353   8.939 -1.8750  1.6068  0.1786
  176SOPE  C31420081   6.946   0.368   8.806  0.4651 -0.4117  0.0204
  176SOPE  H14X20082   6.983   0.268   8.835  0.8329 -0.3561 -0.2527
  176SOPE  H14Y20083   7.030   0.437   8.782 -1.2727  2.0295  0.4914
  176SOPE  C31520084   6.863   0.367   8.676  0.8123 -0.1620  1.0620
  176SOPE  H15X20085   6.791   0.451   8.667  0.2137 -0.7334  0.4334
  176SOPE  H15Y20086   6.797   0.278   8.685 -0.4719  0.5553 -0.7262
  176SOPE  C31620087   6.944   0.347   8.546  1.0281 -0.1599  0.8628
  176SOPE  H16X20088   6.999   0.440   8.524 -0.7831  0.3461 -2.0736
  176SOPE  H16Y20089   6.872   0.330   8.462  2.3994 -0.4815 -0.2765
  176SOPE  C31720090   7.042   0.232   8.549 -1.5077  0.0548  0.2031
  176SOPE  H17X20091   7.126   0.243   8.621 -0.6544  0.6190 -0.8480
  176SOPE  H17Y20092   7.083   0.226   8.446  1.2192  0.2258  1.2055
  176SOPE  C31820093   6.979   0.094   8.567  0.4569 -0.0156 -0.9794
  176SOPE  H18X20094   6.919   0.061   8.479  3.0401 -3.3463 -1.7056
  176SOPE  H18Y20095   6.925   0.079   8.662 -0.0994 -0.2745 -1.3272
  176SOPE  H18Z20096   7.060   0.018   8.571 -0.7429 -1.2434  1.0297
  177SOPE     N20097   0.188   6.318  11.064  0.3912  0.1986 -0.2775
  177SOPE   HN120098   0.233   6.228  11.092  0.2952  0.0521 -0.5907
  177SOPE   HN220099   0.260   6.393  11.063  1.5183 -0.7012  2.3687
  177SOPE   HN320100   0.124   6.357  11.137  2.1163  4.2124 -0.6424
  177SOPE   C1220101   0.098   6.305  10.942 -0.1010 -0.6740  0.4540
  177SOPE  H12A20102   0.069   6.407  10.909  0.0489  0.0247  2.3220
  177SOPE  H12B20103   0.002   6.258  10.972 -1.5903  0.4168 -2.2769
  177SOPE   C1120104   0.172   6.217  10.840  0.4977  0.0243  0.0857
  177SOPE  H11A20105   0.262   6.266  10.797 -1.0051 -0.2298 -3.7441
  177SOPE  H11B20106   0.109   6.211  10.748  1.3817 -1.7750 -0.4452
  177SOPE     P20107   0.293   6.004  10.962 -0.0281 -0.1050  0.2210
  177SOPE   O1320108   0.266   5.859  10.972 -0.2699 -0.0641 -0.5434
  177SOPE   O1420109   0.317   6.079  11.094  0.0102  0.0383  0.6198
  177SOPE   O1220110   0.178   6.076  10.884  0.4642 -1.0317  0.3993
  177SOPE   O1120111   0.422   6.035  10.875 -0.0901 -0.1661  0.0811
  177SOPE    C120112   0.424   5.970  10.748 -0.9351  0.8617  0.0317
  177SOPE    HA20113   0.403   6.047  10.671 -1.5114 -2.3011 -3.1886
  177SOPE    HB20114   0.356   5.884  10.732  0.0668  0.3002 -1.3334
  177SOPE    C220115   0.565   5.908  10.728 -0.3467 -0.7849  0.2123
  177SOPE    HS20116   0.634   5.967  10.791  1.7806 -0.5307 -2.2171
  177SOPE   O2120117   0.601   5.922  10.593 -0.2744  0.7067 -0.4339
  177SOPE   C2120118   0.740   5.925  10.580  0.1807  0.2643 -0.2429
  177SOPE   O2220119   0.820   5.928  10.670  0.3463  0.1934  0.0822
  177SOPE   C2220120   0.776   5.910  10.430  0.4388  0.5646 -0.0097
  177SOPE   H2R20121   0.708   5.974  10.369  1.1856  0.9665 -0.4426
  177SOPE   H2S20122   0.740   5.814  10.388 -2.4019  1.0982  1.0139
  177SOPE    C320123   0.577   5.756  10.772 -0.0345 -0.3429  0.3034
  177SOPE    HX20124   0.565   5.742  10.882 -0.1228  0.5568  0.4190
  177SOPE    HY20125   0.681   5.728  10.745  0.0344 -0.1401  0.3585
  177SOPE   O3120126   0.483   5.669  10.710  0.0468 -0.1368  0.2433
  177SOPE   C3120127   0.502   5.611  10.596 -0.3416  0.2101 -0.0570
  177SOPE   O3220128   0.605   5.624  10.527 -0.4002  0.2107 -0.0421
  177SOPE   C3220129   0.375   5.524  10.568 -0.2059 -0.5618  0.3621
  177SOPE   H2X20130   0.294   5.600  10.561  0.8873  0.7292  1.0888
  177SOPE   H2Y20131   0.350   5.455  10.652 -3.4209  1.1526  0.9885
  177SOPE   C2320132   0.928   5.937  10.395  0.0154  0.3857 -0.2371
  177SOPE   H3R20133   1.011   5.892  10.454 -0.4806 -1.4448 -0.8824
  177SOPE   H3S20134   0.937   6.047  10.377  0.1685  0.4340  0.1139
  177SOPE   C2420135   0.956   5.872  10.259 -0.5145 -0.7814  0.3136
  177SOPE   H4R20136   0.965   5.761  10.258  2.1177 -0.6164 -0.4684
  177SOPE   H4S20137   0.871   5.897  10.191 -0.9821 -0.1817  1.0955
  177SOPE   C2520138   1.084   5.929  10.196 -0.0828 -0.2604  0.3890
  177SOPE   H5R20139   1.078   6.040  10.202 -0.3325 -0.2324 -0.2953
  177SOPE   H5S20140   1.175   5.896  10.251  1.0936  1.1589 -0.6554
  177SOPE   C2620141   1.099   5.886  10.051 -0.2297 -0.0306  0.7307
  177SOPE   H6R20142   1.122   5.778  10.053 -0.8558 -0.1678  0.7880
  177SOPE   H6S20143   0.998   5.900  10.007  0.4117  1.0692 -0.4519
  177SOPE   C2720144   1.216   5.939   9.962  0.1473 -0.1610 -0.7515
  177SOPE   H7R20145   1.208   6.048   9.941 -1.1191 -0.3001 -1.1088
  177SOPE   H7S20146   1.315   5.925  10.011  0.9476  1.7293 -1.7314
  177SOPE   C2820147   1.233   5.867   9.834  0.4256 -0.0779  0.9480
  177SOPE   H8R20148   1.323   5.892   9.773 -1.1302 -0.3254 -1.5742
  177SOPE   H8S20149   1.248   5.759   9.851 -1.5168 -0.9943 -2.2721
  177SOPE   C2920150   1.119   5.880   9.743 -0.0851  0.0873 -0.0060
  177SOPE   H9120151   1.027   5.832   9.780 -2.5995  4.1242 -0.4313
  177SOPE  C21020152   1.117   5.946   9.622  0.5473  0.0873  0.2609
  177SOPE  H10120153   1.027   5.938   9.560 -1.1865 -0.8993  2.7395
  177SOPE  C21120154   1.232   6.021   9.556  0.5105  0.0995  0.1571
  177SOPE  H11R20155   1.326   5.984   9.602  1.1813  0.9884 -0.4698
  177SOPE  H11S20156   1.225   6.130   9.577 -0.1075  0.2086 -0.5668
  177SOPE  C21220157   1.237   6.008   9.403 -0.1345  0.4019  0.3444
  177SOPE  H12R20158   1.135   6.015   9.359 -0.1932  1.2728  0.6179
  177SOPE  H12S20159   1.275   5.907   9.376  0.0609 -0.1891  2.6274
  177SOPE  C21320160   1.326   6.112   9.330 -0.0260 -0.2814  0.5157
  177SOPE  H13R20161   1.430   6.093   9.363  0.8549 -0.1853 -1.9571
  177SOPE  H13S20162   1.301   6.216   9.359  0.3728  0.6084 -2.0839
  177SOPE  C21420163   1.321   6.098   9.176  0.5463 -0.2075 -0.1582
  177SOPE  H14R20164   1.291   5.992   9.160 -1.5965  0.5094 -1.4348
  177SOPE  H14S20165   1.424   6.107   9.135  1.2485 -2.1637  1.0130
  177SOPE  C21520166   1.236   6.207   9.109  0.9383  0.1285  0.2880
  177SOPE  H15R20167   1.284   6.308   9.107 -0.9072  1.0462  0.2606
  177SOPE  H15S20168   1.148   6.223   9.174  1.2591 -1.3485  1.1320
  177SOPE  C21620169   1.180   6.160   8.974  0.4599 -0.5729  0.9438
  177SOPE  H16R20170   1.266   6.169   8.904  1.1133  2.7969  1.9753
  177SOPE  H16S20171   1.100   6.232   8.945  0.6734  0.0080  1.7319
  177SOPE  C21720172   1.108   6.028   8.963 -0.3417 -0.1191  0.7332
  177SOPE  H17R20173   1.028   6.037   9.039  0.7410  2.1851  1.6882
  177SOPE  H17S20174   1.173   5.946   9.001 -1.4155  0.1794  3.4755
  177SOPE  C21820175   1.058   6.005   8.819 -0.5787  0.1681 -0.7909
  177SOPE  H18R20176   1.144   5.976   8.754  0.1532  0.0923  0.1872
  177SOPE  H18S20177   1.008   6.093   8.773 -2.6620 -0.4081  0.2412
  177SOPE  H18T20178   0.980   5.926   8.817 -1.4061  0.7101  2.7111
  177SOPE   C3320179   0.389   5.456  10.428  0.0895 -0.5272  0.2032
  177SOPE   H3X20180   0.306   5.382  10.430 -0.3444 -0.0405  2.7833
  177SOPE   H3Y20181   0.494   5.420  10.437  1.0804  1.4103 -2.2781
  177SOPE   C3420182   0.365   5.546  10.307 -0.3885 -0.2400  0.0685
  177SOPE   H4X20183   0.455   5.611  10.297 -0.8327  0.2492 -0.8719
  177SOPE   H4Y20184   0.279   5.613  10.328 -0.0847 -0.0064  0.6066
  177SOPE   C3520185   0.343   5.476  10.176  0.1033 -0.3451  0.5330
  177SOPE   H5X20186   0.244   5.426  10.180  0.6895 -1.7750 -1.3551
  177SOPE   H5Y20187   0.431   5.409  10.159  0.4277  0.4421 -1.1602
  177SOPE   C3620188   0.353   5.572  10.051 -0.5830 -0.0046 -0.4796
  177SOPE   H6X20189   0.452   5.617  10.073 -0.3402 -0.7020 -0.1175
  177SOPE   H6Y20190   0.270   5.647  10.056  0.0261  0.7238 -1.1854
  177SOPE   C3720191   0.341   5.501   9.923  0.2980 -0.9638  0.2569
  177SOPE   H7X20192   0.244   5.448   9.908 -0.1572 -0.1541  0.2654
  177SOPE   H7Y20193   0.424   5.428   9.920 -1.2949 -2.8546  0.0982
  177SOPE   C3820194   0.338   5.600   9.810  0.4429 -0.5540  0.5727
  177SOPE   H8X20195   0.421   5.673   9.814 -1.2978  1.5406 -0.0252
  177SOPE   H8Y20196   0.248   5.663   9.824  0.7117 -0.2345  0.8753
  177SOPE   C3920197   0.320   5.528   9.675 -0.3324  0.5545 -0.3117
  177SOPE   H9X20198   0.242   5.451   9.686 -0.0839  0.5701  2.3933
  177SOPE   H9Y20199   0.419   5.485   9.647 -0.7692 -1.7709  1.4506
  177SOPE  C31020200   0.281   5.615   9.552 -0.3225  0.3240  0.0193
  177SOPE  H10X20201   0.329   5.715   9.562 -1.4961  0.7534  2.0950
  177SOPE  H10Y20202   0.172   5.636   9.556  0.0218  2.2711  0.1686
  177SOPE  C31120203   0.303   5.534   9.422  0.5507  0.5073 -0.6032
  177SOPE  H11X20204   0.261   5.598   9.341 -0.7648  0.1044 -0.2716
  177SOPE  H11Y20205   0.254   5.435   9.423  0.9336  0.2368 -2.8101
  177SOPE  C31220206   0.451   5.521   9.382 -0.4734 -0.6467  0.8708
  177SOPE  H12X20207   0.504   5.450   9.450 -0.5750 -1.6135 -0.0346
  177SOPE  H12Y20208   0.498   5.621   9.390  0.8126 -0.8792 -2.4417
  177SOPE  C31320209   0.476   5.466   9.234 -0.3364  0.3706 -0.0937
  177SOPE  H13X20210   0.476   5.553   9.164  0.9207  0.0875 -0.4632
  177SOPE  H13Y20211   0.391   5.399   9.208  0.8695 -0.5603 -1.8757
  177SOPE  C31420212   0.609   5.389   9.224 -0.2230  0.1979 -0.0092
  177SOPE  H14X20213   0.606   5.313   9.305 -0.7274 -0.4077 -0.5893
  177SOPE  H14Y20214   0.686   5.465   9.251  0.3069 -0.2814 -0.1577
  177SOPE  C31520215   0.638   5.327   9.094  0.4674  0.5213  0.6347
  177SOPE  H15X20216   0.614   5.402   9.015 -0.4862 -0.3030  0.1129
  177SOPE  H15Y20217   0.561   5.250   9.071 -0.9270  1.1043  3.0471
  177SOPE  C31620218   0.783   5.279   9.080 -0.1053  0.3695  0.2381
  177SOPE  H16X20219   0.851   5.367   9.084  0.2441  0.0542  1.8255
  177SOPE  H16Y20220   0.810   5.249   8.977 -0.8172 -0.4016  0.2660
  177SOPE  C31720221   0.838   5.179   9.180 -0.0643 -0.0762  0.3094
  177SOPE  H17X20222   0.820   5.080   9.131 -0.3919 -0.1379  0.5470
  177SOPE  H17Y20223   0.781   5.187   9.275 -2.4075  0.2585 -1.0511
  177SOPE  C31820224   0.983   5.205   9.223  0.4924  0.2830  0.1830
  177SOPE  H18X20225   0.985   5.302   9.277 -0.1067 -0.4224  1.5095
  177SOPE  H18Y20226   1.045   5.215   9.131 -1.1876  0.1500 -1.0062
  177SOPE  H18Z20227   1.014   5.115   9.279  0.6841 -0.8924 -1.7262
  178SOPE     N20228   4.457   2.578  10.651  0.0811 -0.2257  0.4204
  178SOPE   HN120229   4.378   2.640  10.679 -1.5504 -1.3623 -1.4089
  178SOPE   HN220230   4.419   2.481  10.647  1.7166 -0.8987  0.5107
  178SOPE   HN320231   4.530   2.586  10.724 -0.5922 -0.5275  1.1467
  178SOPE   C1220232   4.513   2.624  10.519  0.0001  0.2901 -0.2128
  178SOPE  H12A20233   4.433   2.637  10.443  1.4986 -0.7592 -2.0306
  178SOPE  H12B20234   4.568   2.533  10.486  0.2579  0.3519  0.0386
  178SOPE   C1120235   4.605   2.746  10.534 -0.0651  0.5675 -0.2834
  178SOPE  H11A20236   4.637   2.792  10.438  4.1961 -1.7599 -0.2065
  178SOPE  H11B20237   4.696   2.721  10.593 -0.1198 -1.2382 -0.9048
  178SOPE     P20238   4.547   2.994  10.572 -0.3607  0.0210 -0.2815
  178SOPE   O1320239   4.690   3.020  10.543  0.3624  0.1561 -0.4635
  178SOPE   O1420240   4.481   3.078  10.682 -0.7790  0.3052 -0.8351
  178SOPE   O1220241   4.533   2.840  10.606 -0.1381 -0.1049  0.1174
  178SOPE   O1120242   4.467   3.016  10.434 -0.6813 -0.0257 -0.4484
  178SOPE    C120243   4.330   2.972  10.423 -0.4827  0.6468 -0.2778
  178SOPE    HA20244   4.266   3.014  10.503  1.0042  2.3927  0.0470
  178SOPE    HB20245   4.323   2.862  10.437 -0.9946  0.5805 -0.9935
  178SOPE    C220246   4.259   3.015  10.288 -0.8786  0.3506  0.7689
  178SOPE    HS20247   4.156   2.972  10.288 -0.4421 -0.7180  0.5434
  178SOPE   O2120248   4.335   2.983  10.170  0.0108 -0.4908 -0.7009
  178SOPE   C2120249   4.315   2.858  10.122 -0.6351 -0.2563 -0.3694
  178SOPE   O2220250   4.251   2.771  10.180  0.3625 -0.4011 -0.3458
  178SOPE   C2220251   4.358   2.857   9.976  0.1705  0.5435  0.4715
  178SOPE   H2R20252   4.460   2.813   9.964  0.9122  1.5270  2.7286
  178SOPE   H2S20253   4.372   2.965   9.954  1.0901  0.6455  1.4488
  178SOPE    C320254   4.227   3.163  10.285 -0.0436  0.0430  0.0270
  178SOPE    HX20255   4.320   3.220  10.309 -0.0841 -0.0427  0.3856
  178SOPE    HY20256   4.159   3.169  10.372  0.9944  0.9989  0.8076
  178SOPE   O3120257   4.163   3.210  10.171 -0.2416  0.7190  0.0608
  178SOPE   C3120258   4.123   3.332  10.181  0.2578 -0.1323 -0.2379
  178SOPE   O3220259   4.144   3.414  10.270 -0.1372 -0.1839  0.0047
  178SOPE   C3220260   4.043   3.364  10.056  0.0636 -0.2661  0.7974
  178SOPE   H2X20261   3.938   3.395  10.075 -0.6985 -0.4768 -2.5609
  178SOPE   H2Y20262   4.023   3.264  10.013  0.3582  0.1256 -0.2721
  178SOPE   C2320263   4.260   2.790   9.880 -0.2299 -0.1516 -0.0743
  178SOPE   H3R20264   4.157   2.820   9.908 -0.4348 -0.4084 -0.5506
  178SOPE   H3S20265   4.272   2.680   9.872  3.0566  0.2319 -2.2194
  178SOPE   C2420266   4.290   2.846   9.744  0.3958  0.3046  0.1109
  178SOPE   H4R20267   4.263   2.953   9.735  0.5186  0.2309 -1.4185
  178SOPE   H4S20268   4.397   2.837   9.716  0.3763  1.0099 -0.2171
  178SOPE   C2520269   4.222   2.751   9.643  0.0701 -0.1464 -0.2264
  178SOPE   H5R20270   4.261   2.648   9.627 -0.4408 -0.5918  1.2619
  178SOPE   H5S20271   4.115   2.737   9.671 -0.2228  0.2976 -1.0919
  178SOPE   C2620272   4.223   2.815   9.502 -0.7739  0.3043  0.6880
  178SOPE   H6R20273   4.143   2.763   9.445 -0.8746  1.7329 -0.5380
  178SOPE   H6S20274   4.192   2.921   9.486  1.1341  0.7001 -0.8183
  178SOPE   C2720275   4.363   2.794   9.429 -0.7304 -0.1050 -0.8738
  178SOPE   H7R20276   4.435   2.868   9.469 -1.1034 -0.1156 -0.1678
  178SOPE   H7S20277   4.408   2.702   9.472  1.6960  1.0218 -0.8226
  178SOPE   C2820278   4.360   2.788   9.273  0.0704 -0.2411  0.0793
  178SOPE   H8R20279   4.462   2.755   9.244  0.2440 -0.0788  0.4935
  178SOPE   H8S20280   4.285   2.723   9.223 -1.8649  0.3046  2.0923
  178SOPE   C2920281   4.342   2.931   9.223  0.0824 -0.2824  0.0793
  178SOPE   H9120282   4.277   2.998   9.282 -0.7304 -1.0052  0.0336
  178SOPE  C21020283   4.390   2.971   9.102  0.1198 -0.4543 -0.4873
  178SOPE  H10120284   4.366   3.074   9.072  0.3339  0.5472  2.4305
  178SOPE  C21120285   4.465   2.881   9.013 -0.0834  0.3482  0.2670
  178SOPE  H11R20286   4.433   2.774   9.015  0.0401  0.2889 -0.5556
  178SOPE  H11S20287   4.573   2.888   9.038 -0.4328 -0.4607  2.2133
  178SOPE  C21220288   4.447   2.917   8.865 -0.0578 -0.4351 -0.3575
  178SOPE  H12R20289   4.518   2.849   8.812  1.3616  0.1661  0.6950
  178SOPE  H12S20290   4.498   3.015   8.855 -0.0218 -0.2818  1.1721
  178SOPE  C21320291   4.307   2.901   8.798 -0.4066 -0.2936  0.1795
  178SOPE  H13R20292   4.246   2.977   8.852  1.2914  0.4127  1.1960
  178SOPE  H13S20293   4.268   2.800   8.823  1.5775 -1.5622 -1.4555
  178SOPE  C21420294   4.327   2.907   8.643 -0.0260  0.1612 -0.5981
  178SOPE  H14R20295   4.381   2.998   8.610  0.5168  0.0558 -0.0037
  178SOPE  H14S20296   4.227   2.927   8.598 -0.5947  1.4296  1.1171
  178SOPE  C21520297   4.407   2.793   8.569  0.2505 -0.1784 -0.3723
  178SOPE  H15R20298   4.417   2.704   8.635  1.1216  0.1043 -0.0968
  178SOPE  H15S20299   4.506   2.839   8.545  0.3153 -1.1074 -1.9997
  178SOPE  C21620300   4.334   2.767   8.432  0.5620  0.3036 -0.4310
  178SOPE  H16R20301   4.322   2.863   8.377  1.0040  1.6214  1.6321
  178SOPE  H16S20302   4.239   2.715   8.460  1.1632 -1.1081 -0.9320
  178SOPE  C21720303   4.422   2.663   8.342 -0.1361  0.2395  0.6983
  178SOPE  H17R20304   4.408   2.572   8.403  0.9725 -0.8263 -0.5932
  178SOPE  H17S20305   4.530   2.690   8.339 -0.3151  1.4588  2.6944
  178SOPE  C21820306   4.374   2.648   8.197  0.2591  0.1338  0.1363
  178SOPE  H18R20307   4.369   2.749   8.151 -1.1799  0.1166  0.2044
  178SOPE  H18S20308   4.270   2.608   8.197 -1.3918  3.8980 -0.6534
  178SOPE  H18T20309   4.451   2.586   8.147  1.5026  0.2158  1.8625
  178SOPE   C3320310   4.111   3.460   9.959 -0.8594  0.0690  0.3680
  178SOPE   H3X20311   4.220   3.442   9.955 -1.1311 -1.4597 -3.2959
  178SOPE   H3Y20312   4.100   3.568   9.986  2.0297  0.7173 -0.6786
  178SOPE   C3420313   4.078   3.439   9.811  0.5055 -0.0609 -0.3283
  178SOPE   H4X20314   3.968   3.446   9.803  0.3827 -1.6818 -0.4175
  178SOPE   H4Y20315   4.106   3.333   9.790 -2.8499 -0.8659 -1.2403
  178SOPE   C3520316   4.150   3.530   9.714 -0.6686 -0.4654 -0.1089
  178SOPE   H5X20317   4.261   3.529   9.722 -0.6442  1.9742  0.6505
  178SOPE   H5Y20318   4.126   3.637   9.728  0.1956  0.1381 -2.7511
  178SOPE   C3620319   4.128   3.499   9.561 -0.0764  0.4288  0.0087
  178SOPE   H6X20320   4.020   3.471   9.557 -0.2678  1.2289 -0.8448
  178SOPE   H6Y20321   4.169   3.398   9.539 -1.2268 -0.2606  0.9100
  178SOPE   C3720322   4.170   3.601   9.457  0.1839 -0.0605  0.0666
  178SOPE   H7X20323   4.276   3.611   9.427  0.0384  0.8122 -0.1827
  178SOPE   H7Y20324   4.125   3.691   9.502 -1.2081 -0.4398 -0.4985
  178SOPE   C3820325   4.097   3.571   9.327  0.3415  0.1063 -0.8003
  178SOPE   H8X20326   3.990   3.581   9.353  0.0089 -2.1417 -1.1406
  178SOPE   H8Y20327   4.109   3.470   9.282  2.6952  0.1730 -0.4526
  178SOPE   C3920328   4.131   3.672   9.215 -0.7861 -0.1339 -0.3061
  178SOPE   H9X20329   4.242   3.685   9.212 -0.9084  1.3931  0.8187
  178SOPE   H9Y20330   4.088   3.772   9.234 -1.2817  0.1713 -2.7270
  178SOPE  C31020331   4.088   3.621   9.076  0.2773 -0.0173  0.1814
  178SOPE  H10X20332   3.977   3.613   9.067  0.2474  1.7403 -2.0728
  178SOPE  H10Y20333   4.121   3.515   9.073  0.4110  0.0017 -3.0742
  178SOPE  C31120334   4.111   3.714   8.954 -0.2534 -0.0787  0.5057
  178SOPE  H11X20335   4.220   3.734   8.946 -0.2175 -0.5176 -0.1836
  178SOPE  H11Y20336   4.064   3.815   8.963  0.3936  0.6342 -2.7105
  178SOPE  C31220337   4.047   3.663   8.821 -0.0385 -0.3512  0.0502
  178SOPE  H12X20338   3.947   3.618   8.840 -1.1539  0.6529 -2.8221
  178SOPE  H12Y20339   4.115   3.585   8.780  1.6294  1.4358 -0.7160
  178SOPE  C31320340   4.036   3.778   8.722 -0.7350  0.6030 -0.1988
  178SOPE  H13X20341   4.136   3.807   8.684 -0.9675 -0.6446 -1.9101
  178SOPE  H13Y20342   3.968   3.857   8.759 -2.9312 -1.3100  0.1430
  178SOPE  C31420343   3.978   3.746   8.584  0.0727  0.6585  0.4903
  178SOPE  H14X20344   4.032   3.658   8.543 -1.3191  0.3613 -0.8230
  178SOPE  H14Y20345   3.995   3.840   8.527 -1.6709  1.5463  1.3454
  178SOPE  C31520346   3.827   3.697   8.576 -0.7073 -0.0509 -0.4309
  178SOPE  H15X20347   3.761   3.767   8.633  0.2954  0.7528 -0.2205
  178SOPE  H15Y20348   3.824   3.593   8.614 -1.6235  0.1808  0.1586
  178SOPE  C31620349   3.775   3.705   8.426 -0.3460 -0.1379  0.6795
  178SOPE  H16X20350   3.682   3.644   8.424 -0.1484 -0.4749  1.3759
  178SOPE  H16Y20351   3.848   3.658   8.358 -0.8708  0.1076 -0.0679
  178SOPE  C31720352   3.763   3.848   8.374 -0.0223  0.4800  0.8080
  178SOPE  H17X20353   3.853   3.887   8.322 -0.6505 -0.1908 -0.8524
  178SOPE  H17Y20354   3.725   3.916   8.454  0.7833  1.0115  0.7496
  178SOPE  C31820355   3.653   3.851   8.266 -1.2326  0.5015  0.0807
  178SOPE  H18X20356   3.560   3.834   8.323 -1.0138 -0.5290  0.1557
  178SOPE  H18Y20357   3.671   3.769   8.193 -0.4361  0.3010  0.4944
  178SOPE  H18Z20358   3.652   3.953   8.223 -0.4230  0.3408 -0.3481
  179SOPE     N20359   5.342   4.704   6.288  0.3329  0.1967  0.5853
  179SOPE   HN120360   5.440   4.679   6.262  0.1419 -0.3399  0.3573
  179SOPE   HN220361   5.277   4.666   6.216 -0.0730 -0.6940  1.3950
  179SOPE   HN320362   5.338   4.808   6.285 -4.8462  0.2436  0.0941
  179SOPE   C1220363   5.292   4.659   6.421  0.2175  0.0566  0.3201
  179SOPE  H12A20364   5.309   4.549   6.424  1.3047  0.1938 -0.3285
  179SOPE  H12B20365   5.181   4.665   6.419  0.2208  0.9221  1.5190
  179SOPE   C1120366   5.348   4.729   6.539 -0.8902 -0.2629  0.3764
  179SOPE  H11A20367   5.345   4.677   6.637 -0.8900  1.5636  1.3890
  179SOPE  H11B20368   5.295   4.826   6.547 -1.3730 -0.5614  0.8553
  179SOPE     P20369   5.608   4.670   6.572  0.3511  0.3186  0.2898
  179SOPE   O1320370   5.734   4.728   6.519  0.7476 -0.6001  0.1041
  179SOPE   O1420371   5.587   4.533   6.539  0.6260  0.2017 -0.3302
  179SOPE   O1220372   5.485   4.750   6.524 -0.3770 -0.4785 -0.0096
  179SOPE   O1120373   5.594   4.692   6.726  0.2459  0.1474 -0.0252
  179SOPE    C120374   5.700   4.733   6.810  0.3160 -0.2939  0.6059
  179SOPE    HA20375   5.792   4.688   6.766 -0.3485  0.6849 -2.0200
  179SOPE    HB20376   5.683   4.702   6.915 -1.0343  0.2049  0.5501
  179SOPE    C220377   5.715   4.881   6.816  0.0345 -0.8581  0.7620
  179SOPE    HS20378   5.755   4.922   6.721 -2.0953 -0.5550 -0.0599
  179SOPE   O2120379   5.807   4.900   6.922 -0.0118  0.1656  0.0354
  179SOPE   C2120380   5.886   5.005   6.909  0.2519 -0.2728 -0.0603
  179SOPE   O2220381   5.889   5.092   6.825  0.2486 -0.0373  0.4007
  179SOPE   C2220382   5.965   5.020   7.044 -0.4534  1.2255 -0.6054
  179SOPE   H2R20383   6.037   4.935   7.052 -3.0052 -1.0607 -0.5201
  179SOPE   H2S20384   5.893   5.003   7.126 -0.2916  2.2670 -0.2322
  179SOPE    C320385   5.581   4.963   6.834  0.6733  0.5436  0.3992
  179SOPE    HX20386   5.520   4.929   6.748  0.5250 -1.3217  1.2114
  179SOPE    HY20387   5.611   5.070   6.820  1.7061  0.6740  2.9187
  179SOPE   O3120388   5.519   4.926   6.955  0.0211 -0.3150  0.5167
  179SOPE   C3120389   5.512   5.018   7.042 -0.9973  0.0049 -0.7160
  179SOPE   O3220390   5.544   5.137   7.039 -0.0182  0.2258  0.1863
  179SOPE   C3220391   5.465   4.944   7.174  0.3927 -0.0989 -0.3370
  179SOPE   H2X20392   5.539   4.863   7.193  1.6181  1.0537 -0.0150
  179SOPE   H2Y20393   5.360   4.911   7.159 -0.1098  0.8517  0.9024
  179SOPE   C2320394   6.048   5.140   7.046 -0.2021  0.2540 -0.4014
  179SOPE   H3R20395   5.995   5.237   7.052 -0.8718 -0.2058  2.0376
  179SOPE   H3S20396   6.110   5.152   6.955 -1.7672 -2.3354 -1.9412
  179SOPE   C2420397   6.153   5.156   7.158  0.0113 -0.0358 -0.7225
  179SOPE   H4R20398   6.228   5.076   7.142 -1.6267 -1.3828 -2.1263
  179SOPE   H4S20399   6.194   5.256   7.135  0.6450 -0.3936 -1.1845
  179SOPE   C2520400   6.099   5.141   7.292 -0.3806  0.3885  0.1135
  179SOPE   H5R20401   6.085   5.245   7.329 -0.1505  0.5298 -0.1920
  179SOPE   H5S20402   5.997   5.099   7.289 -0.3773  0.4138 -2.6557
  179SOPE   C2620403   6.186   5.060   7.393  0.3793 -0.0873  0.4725
  179SOPE   H6R20404   6.200   4.960   7.347  0.5591  1.1875 -2.4554
  179SOPE   H6S20405   6.286   5.107   7.383  0.8607 -1.1270  0.2941
  179SOPE   C2720406   6.123   5.065   7.539 -0.2773 -0.4576  0.6761
  179SOPE   H7R20407   6.118   5.170   7.574  1.3791  0.3208 -1.2257
  179SOPE   H7S20408   6.018   5.032   7.526  0.0411 -0.5023 -3.1220
  179SOPE   C2820409   6.194   4.970   7.638 -0.3105 -0.0308  0.0383
  179SOPE   H8R20410   6.214   4.885   7.568 -1.5271  1.1552 -1.8213
  179SOPE   H8S20411   6.295   4.997   7.676 -1.1362  1.8047  1.0101
  179SOPE   C2920412   6.113   4.939   7.756 -0.1300 -0.1171  0.4990
  179SOPE   H9120413   6.024   4.875   7.747 -0.7791  0.9495 -1.0000
  179SOPE  C21020414   6.110   5.001   7.869 -0.4753  0.1805 -1.0111
  179SOPE  H10120415   6.059   4.947   7.951  2.9873 -2.3329 -0.2658
  179SOPE  C21120416   6.202   5.105   7.922  0.1022  1.0412  0.6186
  179SOPE  H11R20417   6.160   5.205   7.900  0.3185  1.0201  0.0734
  179SOPE  H11S20418   6.298   5.093   7.866 -0.6876  0.5398 -0.6622
  179SOPE  C21220419   6.232   5.100   8.074  0.6831  0.1981 -0.3992
  179SOPE  H12R20420   6.315   5.172   8.092  1.4185 -0.4600 -1.0569
  179SOPE  H12S20421   6.270   5.001   8.108  0.2676  0.5764  1.2288
  179SOPE  C21320422   6.118   5.150   8.156  0.6476  0.0923 -0.5858
  179SOPE  H13R20423   6.044   5.070   8.172 -0.5507  1.8274  4.1205
  179SOPE  H13S20424   6.071   5.239   8.109 -1.8159 -0.4654  0.6520
  179SOPE  C21420425   6.164   5.197   8.297  0.2472 -0.0728  0.7380
  179SOPE  H14R20426   6.207   5.299   8.290 -1.9447  0.9045  0.6394
  179SOPE  H14S20427   6.239   5.124   8.335 -0.0740 -0.1501  1.2370
  179SOPE  C21520428   6.046   5.198   8.400  0.6610  0.2853 -0.2127
  179SOPE  H15R20429   6.013   5.096   8.427 -1.8241  0.8152 -1.0306
  179SOPE  H15S20430   5.956   5.234   8.347 -0.1211 -2.0357 -0.5562
  179SOPE  C21620431   6.073   5.277   8.526  1.1437 -0.1036 -0.2887
  179SOPE  H16R20432   6.098   5.380   8.491  1.9221 -0.2906 -0.2900
  179SOPE  H16S20433   6.160   5.237   8.582  1.4021 -0.0921 -0.6802
  179SOPE  C21720434   5.942   5.297   8.610  0.2169  0.6091 -0.1052
  179SOPE  H17R20435   5.902   5.199   8.643 -0.7213  0.8736 -0.4276
  179SOPE  H17S20436   5.871   5.357   8.550 -1.2531 -0.4537  0.5149
  179SOPE  C21820437   5.950   5.378   8.735  0.0084  0.6783 -0.0927
  179SOPE  H18R20438   5.849   5.384   8.781 -0.5554 -3.0719 -0.4656
  179SOPE  H18S20439   5.993   5.478   8.718 -1.0442  0.9189 -1.5921
  179SOPE  H18T20440   6.013   5.326   8.810  1.2529 -3.1363 -3.4104
  179SOPE   C3320441   5.487   5.030   7.298  0.3626  0.2363 -0.0815
  179SOPE   H3X20442   5.402   5.101   7.307 -2.0130 -2.6023  1.2496
  179SOPE   H3Y20443   5.582   5.087   7.288  0.8820 -0.4400  0.8917
  179SOPE   C3420444   5.485   4.949   7.432 -0.4345  0.0407  0.0938
  179SOPE   H4X20445   5.553   4.861   7.426  1.2113  1.3510 -1.7384
  179SOPE   H4Y20446   5.380   4.919   7.453 -0.6766  2.2821  2.6077
  179SOPE   C3520447   5.540   5.030   7.543 -0.5662  0.5259 -0.4121
  179SOPE   H5X20448   5.469   5.113   7.557 -3.7189 -2.2535  1.6493
  179SOPE   H5Y20449   5.640   5.066   7.510  0.3504 -1.2580  0.2588
  179SOPE   C3620450   5.540   4.968   7.690 -0.1462 -0.3740  0.3932
  179SOPE   H6X20451   5.435   4.945   7.718  0.1256 -0.1126  1.6649
  179SOPE   H6Y20452   5.574   5.046   7.761 -0.1903  0.0481 -0.0465
  179SOPE   C3720453   5.627   4.846   7.700 -0.0143 -0.2041  0.4721
  179SOPE   H7X20454   5.717   4.872   7.641 -2.8718 -0.9962 -4.8928
  179SOPE   H7Y20455   5.585   4.764   7.638  1.7209 -0.2312 -0.7317
  179SOPE   C3820456   5.647   4.795   7.838 -0.0649  0.5014  1.1904
  179SOPE   H8X20457   5.723   4.715   7.823  0.9809  1.2121  2.4550
  179SOPE   H8Y20458   5.549   4.757   7.875 -1.9462  1.2226 -2.5666
  179SOPE   C3920459   5.689   4.892   7.940 -0.4455  0.4855 -0.5971
  179SOPE   H9X20460   5.615   4.973   7.954  1.2462  2.2314 -1.2674
  179SOPE   H9Y20461   5.787   4.937   7.913 -1.0570  1.7672 -0.7282
  179SOPE  C31020462   5.707   4.825   8.084 -0.0163  0.6834  0.3080
  179SOPE  H10X20463   5.768   4.733   8.068 -0.0098  0.5058  1.3110
  179SOPE  H10Y20464   5.609   4.791   8.123  1.5806 -2.0650  2.3221
  179SOPE  C31120465   5.784   4.917   8.178 -0.0423  0.3909 -0.5444
  179SOPE  H11X20466   5.715   5.005   8.187 -0.2596  0.2045 -0.3735
  179SOPE  H11Y20467   5.878   4.957   8.135 -0.2613  0.6277 -0.8150
  179SOPE  C31220468   5.809   4.870   8.322 -0.2799  0.5046 -0.5161
  179SOPE  H12X20469   5.868   4.946   8.377 -2.3819  1.0543  1.1050
  179SOPE  H12Y20470   5.855   4.769   8.327 -1.7441 -0.1440  0.8481
  179SOPE  C31320471   5.678   4.850   8.404 -0.2074 -0.4995  0.9964
  179SOPE  H13X20472   5.601   4.786   8.355  0.0486 -0.0177 -0.0853
  179SOPE  H13Y20473   5.627   4.949   8.408 -0.6367 -0.7502  1.7493
  179SOPE  C31420474   5.706   4.799   8.549 -0.2212 -0.7458  0.5320
  179SOPE  H14X20475   5.774   4.712   8.533  1.2716  0.5694 -0.6135
  179SOPE  H14Y20476   5.607   4.782   8.596 -0.8046  2.2796  0.6089
  179SOPE  C31520477   5.782   4.888   8.638  0.3841  0.2432 -0.4771
  179SOPE  H15X20478   5.743   4.992   8.636 -0.3947  0.0525  1.8258
  179SOPE  H15Y20479   5.888   4.898   8.608  0.4987 -1.9337 -0.9708
  179SOPE  C31620480   5.768   4.836   8.784  0.0603 -0.9285  1.3695
  179SOPE  H16X20481   5.660   4.821   8.809 -0.9966  2.5761 -0.5034
  179SOPE  H16Y20482   5.806   4.918   8.849 -0.6830 -1.3921  2.4146
  179SOPE  C31720483   5.840   4.710   8.821  0.3383 -0.0056  0.1526
  179SOPE  H17X20484   5.946   4.717   8.787  0.0851  0.3886 -0.5719
  179SOPE  H17Y20485   5.793   4.634   8.755 -0.8522  2.0377 -1.4963
  179SOPE  C31820486   5.840   4.688   8.967 -0.1167  0.1808  1.0553
  179SOPE  H18X20487   5.909   4.763   9.011 -0.1734  1.7374 -1.3504
  179SOPE  H18Y20488   5.883   4.589   8.993 -0.3927  0.0801  1.1385
  179SOPE  H18Z20489   5.737   4.702   9.007  0.3750  0.9309  2.1230
  180SOPE     N20490   3.467   4.270   6.354 -0.3426 -0.4709 -0.4968
  180SOPE   HN120491   3.510   4.363   6.331  0.1440 -0.2327  1.2323
  180SOPE   HN220492   3.367   4.279   6.330 -0.6733  0.0625  0.9852
  180SOPE   HN320493   3.485   4.261   6.456  1.0998  1.7316 -0.4845
  180SOPE   C1220494   3.532   4.162   6.272  0.4071  0.3416  0.2712
  180SOPE  H12A20495   3.496   4.172   6.167 -1.1776  1.1458  0.8643
  180SOPE  H12B20496   3.496   4.063   6.307 -1.4456 -0.4393 -3.3621
  180SOPE   C1120497   3.690   4.172   6.258 -0.8450 -0.5624 -0.2809
  180SOPE  H11A20498   3.722   4.074   6.215  0.3054  0.1548 -1.1184
  180SOPE  H11B20499   3.727   4.175   6.362  1.2588 -3.2611 -0.8158
  180SOPE     P20500   3.872   4.353   6.188  0.2337  0.4774 -0.1533
  180SOPE   O1320501   3.850   4.493   6.216  0.4368 -0.8064  0.0472
  180SOPE   O1420502   3.944   4.329   6.058 -0.5442 -0.2888 -0.1936
  180SOPE   O1220503   3.729   4.283   6.178  0.1127  0.5252  0.1013
  180SOPE   O1120504   3.957   4.283   6.307  0.0744  1.1126  0.3984
  180SOPE    C120505   3.954   4.324   6.436 -0.6848  0.6074  0.2032
  180SOPE    HA20506   3.953   4.231   6.497  0.3265  1.3016  1.3308
  180SOPE    HB20507   3.862   4.382   6.459  0.5103  2.7959 -0.2602
  180SOPE    C220508   4.074   4.413   6.480 -0.1545  0.4463 -0.0442
  180SOPE    HS20509   4.091   4.501   6.413 -1.3516 -0.0175 -1.0057
  180SOPE   O2120510   4.197   4.335   6.454  0.4279  0.3248  0.2196
  180SOPE   C2120511   4.309   4.388   6.484 -0.4130  1.3914  0.1850
  180SOPE   O2220512   4.325   4.496   6.540 -0.4514 -0.5007  0.2545
  180SOPE   C2220513   4.420   4.299   6.422 -0.1500  0.2650 -0.2447
  180SOPE   H2R20514   4.502   4.372   6.406  0.4460 -0.3876 -0.2261
  180SOPE   H2S20515   4.384   4.270   6.321  0.1253 -0.7491 -0.0669
  180SOPE    C320516   4.054   4.471   6.623 -0.7576 -0.1366 -0.1643
  180SOPE    HX20517   3.968   4.540   6.631  0.1112  0.9669 -0.1998
  180SOPE    HY20518   4.143   4.530   6.653  0.8843 -1.6632 -1.7440
  180SOPE   O3120519   4.031   4.364   6.712  0.5342  0.7992  0.0445
  180SOPE   C3120520   4.051   4.394   6.832  0.5125  0.2314  0.4349
  180SOPE   O3220521   4.083   4.504   6.877  0.2554 -0.4386  0.3928
  180SOPE   C3220522   4.032   4.259   6.907  0.7185  0.4003 -0.5693
  180SOPE   H2X20523   4.113   4.187   6.881  1.5884  1.3847 -0.6569
  180SOPE   H2Y20524   3.941   4.212   6.862 -0.4914  2.4286 -0.3514
  180SOPE   C2320525   4.479   4.177   6.494  0.0561 -0.6149  0.1426
  180SOPE   H3R20526   4.572   4.136   6.447 -0.4746 -1.7852  0.0716
  180SOPE   H3S20527   4.408   4.095   6.470 -1.6352  0.6651  0.6367
  180SOPE   C2420528   4.494   4.186   6.649  0.8373 -0.2640  0.5910
  180SOPE   H4R20529   4.601   4.175   6.679  1.1202  2.2723  0.7493
  180SOPE   H4S20530   4.461   4.289   6.676  1.8621  0.1256  0.4445
  180SOPE   C2520531   4.418   4.087   6.721  0.6823 -0.0612  0.5747
  180SOPE   H5R20532   4.311   4.113   6.704  0.4083 -1.3350  0.1912
  180SOPE   H5S20533   4.437   3.984   6.683  2.7327  0.9280 -1.2911
  180SOPE   C2620534   4.448   4.090   6.868 -0.4373  0.4653 -0.4503
  180SOPE   H6R20535   4.366   4.037   6.920 -1.1294  0.5268 -1.4626
  180SOPE   H6S20536   4.540   4.029   6.886  0.4412  1.1870 -2.2433
  180SOPE   C2720537   4.471   4.230   6.935 -0.0403 -0.0596  0.1370
  180SOPE   H7R20538   4.570   4.263   6.898 -1.0966  0.4998 -2.4078
  180SOPE   H7S20539   4.396   4.303   6.899  0.5194 -0.0704 -1.0881
  180SOPE   C2820540   4.470   4.226   7.089 -1.4613  0.2955 -0.4074
  180SOPE   H8R20541   4.372   4.195   7.130 -0.6830 -0.5898  0.8380
  180SOPE   H8S20542   4.543   4.148   7.118 -1.0307  0.3739 -1.2416
  180SOPE   C2920543   4.519   4.361   7.144  0.8416 -0.3480  0.2214
  180SOPE   H9120544   4.590   4.407   7.073  0.4727 -0.4632 -0.2286
  180SOPE  C21020545   4.472   4.426   7.248  0.6042 -0.4291 -0.2489
  180SOPE  H10120546   4.508   4.530   7.258 -3.5601  1.1810  0.1970
  180SOPE  C21120547   4.376   4.373   7.346  0.0871  0.2243  0.1023
  180SOPE  H11R20548   4.379   4.264   7.325  1.1595  0.3925 -0.7121
  180SOPE  H11S20549   4.275   4.413   7.322  0.2727  0.0591 -1.0492
  180SOPE  C21220550   4.403   4.394   7.495  0.3434  0.0645  0.0720
  180SOPE  H12R20551   4.376   4.495   7.533 -0.4802  0.0782 -0.5377
  180SOPE  H12S20552   4.504   4.356   7.523 -0.4952 -1.9804  0.5260
  180SOPE  C21320553   4.321   4.290   7.585 -0.5377 -0.5762 -0.3856
  180SOPE  H13R20554   4.345   4.184   7.562  1.6190 -0.3108  0.3965
  180SOPE  H13S20555   4.213   4.311   7.569 -0.5532 -1.0030 -0.8765
  180SOPE  C21420556   4.344   4.315   7.742 -0.0608  0.3105  0.1329
  180SOPE  H14R20557   4.345   4.424   7.762  0.4199  0.0700  1.4933
  180SOPE  H14S20558   4.445   4.276   7.766 -0.3034 -1.9663 -2.1265
  180SOPE  C21520559   4.256   4.240   7.844  0.4804 -0.1550  0.0362
  180SOPE  H15R20560   4.234   4.141   7.799 -0.6109 -0.5185  1.2853
  180SOPE  H15S20561   4.160   4.294   7.861 -0.4381 -1.1168 -1.8058
  180SOPE  C21620562   4.329   4.224   7.976  0.7497  0.8353 -0.5459
  180SOPE  H16R20563   4.433   4.187   7.959  0.8022  1.1775 -0.9811
  180SOPE  H16S20564   4.278   4.140   8.029  0.3339  1.3620 -0.1003
  180SOPE  C21720565   4.331   4.349   8.071  0.1076 -0.1714  0.2798
  180SOPE  H17R20566   4.228   4.387   8.086  0.7991  2.0542 -0.1214
  180SOPE  H17S20567   4.384   4.429   8.016  0.5422 -0.9641 -0.4687
  180SOPE  C21820568   4.395   4.325   8.211 -0.8654  0.0936  0.1509
  180SOPE  H18R20569   4.487   4.263   8.206  1.4565  2.9962  2.8529
  180SOPE  H18S20570   4.325   4.256   8.262 -1.8423 -0.9615 -2.4150
  180SOPE  H18T20571   4.404   4.421   8.265  2.3134  0.6765 -1.1939
  180SOPE   C3320572   4.020   4.272   7.061  0.0295  0.5537 -0.5228
  180SOPE   H3X20573   3.922   4.319   7.085  0.5188  1.3568 -0.0827
  180SOPE   H3Y20574   4.096   4.342   7.100 -1.8386  0.5499  3.5819
  180SOPE   C3420575   4.048   4.136   7.128 -0.5097 -0.1445 -0.3121
  180SOPE   H4X20576   4.144   4.090   7.096  0.0485  0.8218 -0.0524
  180SOPE   H4Y20577   3.966   4.065   7.104  0.2436 -0.8378 -0.8695
  180SOPE   C3520578   4.064   4.151   7.280 -0.2286  0.0627  0.1808
  180SOPE   H5X20579   4.002   4.232   7.324 -0.9660 -0.8301  0.8201
  180SOPE   H5Y20580   4.172   4.163   7.305 -0.9506  4.0180  2.2789
  180SOPE   C3620581   4.014   4.030   7.366 -0.3645 -0.4535  0.5210
  180SOPE   H6X20582   4.074   3.937   7.356  0.1096 -0.1735  0.7236
  180SOPE   H6Y20583   3.905   4.023   7.348 -0.3191  1.1808 -0.6920
  180SOPE   C3720584   4.041   4.066   7.514 -0.0556  0.6289 -0.5753
  180SOPE   H7X20585   4.012   4.169   7.544 -0.9717 -0.0933  1.1804
  180SOPE   H7Y20586   4.148   4.053   7.540 -0.1832  1.7406  0.6491
  180SOPE   C3820587   3.957   3.982   7.612 -0.2418  0.4540  0.1882
  180SOPE   H8X20588   3.970   3.871   7.611 -2.5159  0.1138  1.2182
  180SOPE   H8Y20589   3.850   3.987   7.582 -0.4014 -0.3348  0.6065
  180SOPE   C3920590   3.987   4.027   7.754  0.0778 -0.3920 -0.7245
  180SOPE   H9X20591   3.960   4.134   7.766 -1.5755 -1.0194  2.1267
  180SOPE   H9Y20592   4.092   4.003   7.779 -0.1629  0.1432  0.8887
  180SOPE  C31020593   3.894   3.956   7.851  0.2049  0.4699 -0.0860
  180SOPE  H10X20594   3.896   3.845   7.839 -1.9419  0.3368  0.3624
  180SOPE  H10Y20595   3.787   3.985   7.839 -0.2056 -0.2282  1.5547
  180SOPE  C31120596   3.942   3.989   7.993 -0.5647 -0.4595 -0.4561
  180SOPE  H11X20597   4.051   3.981   8.013 -0.9398  0.3022  2.3767
  180SOPE  H11Y20598   3.893   3.909   8.052  1.3047 -0.6884  0.8579
  180SOPE  C31220599   3.899   4.136   8.029 -0.0021 -0.1408 -0.0507
  180SOPE  H12X20600   3.798   4.162   7.992 -0.5000  0.1624  1.4502
  180SOPE  H12Y20601   3.963   4.216   7.986 -2.5810  3.6333  2.5510
  180SOPE  C31320602   3.891   4.161   8.184 -0.7646 -0.1715  0.6236
  180SOPE  H13X20603   3.833   4.078   8.231  1.8192 -0.8606  2.8190
  180SOPE  H13Y20604   3.841   4.259   8.199 -0.8220  0.0905 -1.0237
  180SOPE  C31420605   4.032   4.166   8.245 -0.2909 -0.1378  0.4610
  180SOPE  H14X20606   4.084   4.254   8.201 -0.7873 -0.3708 -0.6229
  180SOPE  H14Y20607   4.087   4.073   8.218 -0.6683 -0.2636  0.1081
  180SOPE  C31520608   4.024   4.173   8.397  0.0270 -0.2099 -0.9341
  180SOPE  H15X20609   3.994   4.073   8.436  0.0703  0.8555  2.0768
  180SOPE  H15Y20610   3.960   4.254   8.436 -1.3527 -1.4171 -0.6206
  180SOPE  C31620611   4.162   4.189   8.469  0.1747 -0.5351 -0.3317
  180SOPE  H16X20612   4.208   4.276   8.418 -0.8430 -0.6668 -1.5256
  180SOPE  H16Y20613   4.222   4.098   8.451  0.2819 -0.3957 -0.6705
  180SOPE  C31720614   4.156   4.214   8.621  0.1876  0.2982 -0.4051
  180SOPE  H17X20615   4.140   4.113   8.665  0.5782 -0.7177 -2.4765
  180SOPE  H17Y20616   4.078   4.287   8.652  1.2759  0.4925  2.0583
  180SOPE  C31820617   4.287   4.266   8.667  0.4779  0.9231  0.6800
  180SOPE  H18X20618   4.369   4.194   8.643  1.5785  3.0083 -2.4451
  180SOPE  H18Y20619   4.276   4.287   8.775 -1.5482 -0.7486  0.8627
  180SOPE  H18Z20620   4.301   4.365   8.618 -0.4308  1.2001  0.9556
  181SOPE     N20621   3.721   2.282   5.772 -0.2710  0.1821  0.1236
  181SOPE   HN120622   3.736   2.204   5.839  0.7296 -0.0070 -0.3134
  181SOPE   HN220623   3.793   2.295   5.699  0.0432  0.8139  0.5370
  181SOPE   HN320624   3.733   2.366   5.833 -0.6394 -0.9275  1.8004
  181SOPE   C1220625   3.584   2.284   5.706  0.0741  0.1985  0.0751
  181SOPE  H12A20626   3.558   2.176   5.694  0.3342  0.0258  0.9848
  181SOPE  H12B20627   3.601   2.338   5.611  1.6116 -1.2319 -0.5077
  181SOPE   C1120628   3.486   2.350   5.802  0.0157 -0.9563 -0.4772
  181SOPE  H11A20629   3.484   2.290   5.895 -0.8561  0.5060  0.4952
  181SOPE  H11B20630   3.377   2.354   5.781 -0.3074 -0.2097  1.1531
  181SOPE     P20631   3.455   2.597   5.901 -0.2413  0.2473 -0.2611
  181SOPE   O1320632   3.325   2.617   5.838 -0.2132  0.1308 -0.2142
  181SOPE   O1420633   3.548   2.711   5.921  0.0976  0.1479  0.2570
  181SOPE   O1220634   3.538   2.485   5.827 -0.3429 -0.5030 -0.2522
  181SOPE   O1120635   3.428   2.523   6.033 -0.6953 -0.5314  1.0293
  181SOPE    C120636   3.533   2.464   6.108 -0.0140  0.8331  0.6410
  181SOPE    HA20637   3.625   2.443   6.049 -0.9696  0.0094 -0.6187
  181SOPE    HB20638   3.498   2.363   6.139 -0.7656  0.8893 -0.0094
  181SOPE    C220639   3.557   2.553   6.225 -0.4217  0.3564 -0.0205
  181SOPE    HS20640   3.547   2.656   6.182  1.7958  0.1040 -1.3344
  181SOPE   O2120641   3.692   2.540   6.284 -0.6510 -0.0584  0.4849
  181SOPE   C2120642   3.730   2.651   6.350 -0.3690 -0.0491 -0.3376
  181SOPE   O2220643   3.678   2.760   6.339  0.2098 -0.3879 -0.2953
  181SOPE   C2220644   3.846   2.621   6.440  0.1953 -0.3153  0.2315
  181SOPE   H2R20645   3.878   2.710   6.497  1.7063 -1.0287  0.5622
  181SOPE   H2S20646   3.932   2.609   6.370  0.5800 -1.1027  0.8271
  181SOPE    C320647   3.452   2.553   6.347 -0.1740  0.6356  0.1573
  181SOPE    HX20648   3.356   2.578   6.297 -0.4993 -1.0762 -0.1409
  181SOPE    HY20649   3.476   2.623   6.429  0.7121 -0.5356  0.9366
  181SOPE   O3120650   3.457   2.419   6.401  0.1639  0.1462 -0.4197
  181SOPE   C3120651   3.351   2.332   6.396  0.1265 -0.1642  0.3139
  181SOPE   O3220652   3.240   2.356   6.350  0.0439 -0.1280 -0.1041
  181SOPE   C3220653   3.406   2.195   6.441 -0.0506  0.2634 -0.0941
  181SOPE   H2X20654   3.516   2.203   6.433  0.0111  3.4848  1.9837
  181SOPE   H2Y20655   3.371   2.126   6.362 -0.1970  0.3681 -0.1215
  181SOPE   C2320656   3.830   2.489   6.522 -1.0001 -0.4649  0.0016
  181SOPE   H3R20657   3.927   2.445   6.552 -1.1095  0.5671  2.0589
  181SOPE   H3S20658   3.789   2.410   6.455 -0.2989 -0.4298 -0.4807
  181SOPE   C2420659   3.748   2.513   6.650  0.0858 -0.2836 -0.8324
  181SOPE   H4R20660   3.650   2.556   6.621  0.3360  1.7215  1.0630
  181SOPE   H4S20661   3.731   2.413   6.697  2.0091  0.4154  1.5993
  181SOPE   C2520662   3.828   2.588   6.759  0.3013 -0.0547  0.6232
  181SOPE   H5R20663   3.921   2.529   6.775  0.3883 -0.2206 -0.3978
  181SOPE   H5S20664   3.849   2.690   6.721  0.2945  0.5071  2.0778
  181SOPE   C2620665   3.753   2.604   6.886  0.7426  0.6922  0.0545
  181SOPE   H6R20666   3.669   2.677   6.889  0.2460  0.1387 -0.2768
  181SOPE   H6S20667   3.711   2.503   6.904 -1.4820  1.4037 -0.7961
  181SOPE   C2720668   3.852   2.622   7.004  0.3670  0.2366 -0.3905
  181SOPE   H7R20669   3.926   2.540   7.006  1.6598  1.2875 -2.2874
  181SOPE   H7S20670   3.900   2.722   6.997  1.4518 -0.3291 -1.3094
  181SOPE   C2820671   3.769   2.614   7.139  0.4749  0.2598 -0.0723
  181SOPE   H8R20672   3.689   2.690   7.132 -0.5573 -0.8509 -0.6698
  181SOPE   H8S20673   3.723   2.513   7.144 -0.8211  0.7546 -1.4696
  181SOPE   C2920674   3.862   2.648   7.250 -0.2429  0.4861 -0.2670
  181SOPE   H9120675   3.922   2.740   7.240  2.0131 -0.9216 -0.3595
  181SOPE  C21020676   3.875   2.567   7.357 -0.2146  0.1594  0.1724
  181SOPE  H10120677   3.947   2.597   7.434  0.2566  0.5290 -0.4067
  181SOPE  C21120678   3.813   2.436   7.386  0.3017 -0.3030 -0.0529
  181SOPE  H11R20679   3.870   2.350   7.344  0.0506 -0.2339 -0.5448
  181SOPE  H11S20680   3.708   2.440   7.349 -0.4854 -0.0439  2.1137
  181SOPE  C21220681   3.799   2.415   7.539  0.8833  0.3044  0.2337
  181SOPE  H12R20682   3.739   2.323   7.551 -2.4749  2.2595 -0.1586
  181SOPE  H12S20683   3.734   2.499   7.573  0.8822  1.2210 -1.8816
  181SOPE  C21320684   3.918   2.387   7.625  0.8442 -0.4526 -0.2737
  181SOPE  H13R20685   3.990   2.471   7.628 -0.1109  0.3805 -0.3182
  181SOPE  H13S20686   3.977   2.303   7.583  2.2234  0.2592  0.1860
  181SOPE  C21420687   3.868   2.359   7.772  0.2672  0.2911  0.2331
  181SOPE  H14R20688   3.827   2.257   7.760 -0.8633  0.9882 -2.6936
  181SOPE  H14S20689   3.794   2.440   7.789 -2.1979 -1.7191 -0.4283
  181SOPE  C21520690   3.993   2.369   7.873 -0.2204  0.8238  0.1702
  181SOPE  H15R20691   4.063   2.442   7.827 -0.7442  0.8281 -0.6532
  181SOPE  H15S20692   4.045   2.271   7.869 -0.7135  0.4568  1.9153
  181SOPE  C21620693   3.954   2.407   8.016 -0.0605 -0.3301 -0.1604
  181SOPE  H16R20694   4.038   2.399   8.089  0.7905  0.3822 -1.0352
  181SOPE  H16S20695   3.871   2.339   8.046 -1.9240  1.7941 -0.3128
  181SOPE  C21720696   3.927   2.562   8.027  0.2391 -0.0511  0.1676
  181SOPE  H17R20697   3.841   2.593   7.965 -0.7222 -1.1143  0.9241
  181SOPE  H17S20698   4.020   2.616   7.997  0.4570  0.7237  2.1174
  181SOPE  C21820699   3.882   2.599   8.166 -0.6707 -0.3569 -0.2399
  181SOPE  H18R20700   3.955   2.595   8.250 -0.3782 -0.9938 -0.5214
  181SOPE  H18S20701   3.782   2.560   8.194 -0.5691  0.7299  1.8416
  181SOPE  H18T20702   3.858   2.707   8.171  0.7252 -0.0779  1.1925
  181SOPE   C3320703   3.368   2.150   6.582 -0.2169 -0.1251 -0.5334
  181SOPE   H3X20704   3.378   2.039   6.591 -2.0366 -0.2844 -0.0413
  181SOPE   H3Y20705   3.262   2.178   6.600  0.6987  3.1666  0.3613
  181SOPE   C3420706   3.454   2.203   6.691 -0.2843 -0.6342 -0.8257
  181SOPE   H4X20707   3.458   2.314   6.685  1.6383 -0.5305  0.9469
  181SOPE   H4Y20708   3.557   2.175   6.660 -0.7638 -2.2288 -1.0549
  181SOPE   C3520709   3.423   2.145   6.834  0.5360  0.4119 -0.2141
  181SOPE   H5X20710   3.409   2.036   6.826 -1.3873  0.6179 -0.1814
  181SOPE   H5Y20711   3.320   2.181   6.853 -1.0523 -1.1731 -4.6430
  181SOPE   C3620712   3.531   2.173   6.942 -0.9795  0.6422 -0.1461
  181SOPE   H6X20713   3.559   2.279   6.960 -0.3493  0.6138 -0.9179
  181SOPE   H6Y20714   3.622   2.118   6.912 -0.9249  0.6568 -0.0087
  181SOPE   C3720715   3.503   2.119   7.083  0.6647  0.0903 -0.7729
  181SOPE   H7X20716   3.456   2.018   7.078 -0.2705  0.5587 -2.3305
  181SOPE   H7Y20717   3.419   2.178   7.126  0.3539  0.0198 -1.2667
  181SOPE   C3820718   3.628   2.121   7.170  0.8964  0.9424 -0.5995
  181SOPE   H8X20719   3.672   2.222   7.158  1.2583  1.0682  1.4201
  181SOPE   H8Y20720   3.705   2.048   7.136  0.6785  1.1214 -1.5016
  181SOPE   C3920721   3.598   2.087   7.317 -0.1380 -0.1076  0.4916
  181SOPE   H9X20722   3.528   2.000   7.314 -0.9557  0.5676 -0.5145
  181SOPE   H9Y20723   3.541   2.170   7.363  1.4652  2.0305 -1.1837
  181SOPE  C31020724   3.722   2.040   7.406  0.0705 -1.0359  0.2593
  181SOPE  H10X20725   3.807   2.109   7.389  1.7554 -2.9384  0.4309
  181SOPE  H10Y20726   3.765   1.947   7.362  0.9299 -0.9563  0.9145
  181SOPE  C31120727   3.687   2.027   7.554 -0.1855  0.4208 -0.6368
  181SOPE  H11X20728   3.616   1.941   7.559 -3.5389  2.9697 -0.8320
  181SOPE  H11Y20729   3.643   2.122   7.590  0.2798  0.9019 -1.3382
  181SOPE  C31220730   3.799   1.982   7.650  0.1696 -0.3082  0.4858
  181SOPE  H12X20731   3.886   2.043   7.615 -0.2170  0.3998  0.7635
  181SOPE  H12Y20732   3.822   1.878   7.619  1.4693 -0.0496  0.5084
  181SOPE  C31320733   3.771   1.987   7.797  0.6855  0.5504 -0.0355
  181SOPE  H13X20734   3.661   1.974   7.803  0.7880 -1.5640 -1.5616
  181SOPE  H13Y20735   3.796   2.085   7.843 -1.0407  0.5444  0.9741
  181SOPE  C31420736   3.844   1.871   7.871 -0.2446  0.3120  0.7960
  181SOPE  H14X20737   3.953   1.880   7.850 -0.6122  0.5518 -1.1840
  181SOPE  H14Y20738   3.811   1.781   7.815  0.3033 -1.2535  2.8327
  181SOPE  C31520739   3.810   1.855   8.019 -0.2662 -0.1698  0.2466
  181SOPE  H15X20740   3.883   1.784   8.061 -0.4408 -0.1785  0.5438
  181SOPE  H15Y20741   3.703   1.828   8.031  0.3271 -1.9552  1.8431
  181SOPE  C31620742   3.831   1.983   8.103 -1.4335  0.4233 -0.2363
  181SOPE  H16X20743   3.759   2.055   8.059 -1.1432  1.1656  0.4679
  181SOPE  H16Y20744   3.931   2.028   8.085 -1.4614  0.6436  0.1399
  181SOPE  C31720745   3.801   1.971   8.254 -0.0061  0.1031  1.0809
  181SOPE  H17X20746   3.885   1.926   8.311  1.2179  0.6428 -0.2508
  181SOPE  H17Y20747   3.711   1.907   8.273 -0.8192  0.6421 -0.7686
  181SOPE  C31820748   3.772   2.111   8.310  0.5122 -0.0959  0.5936
  181SOPE  H18X20749   3.684   2.154   8.259  1.1965  1.9552  1.0449
  181SOPE  H18Y20750   3.854   2.182   8.286  1.9851 -0.9542  2.7589
  181SOPE  H18Z20751   3.750   2.116   8.419  0.2862 -0.4927  0.5702
  182SOPE     N20752   4.931   3.714   5.896 -0.9215 -0.4969  0.2745
  182SOPE   HN120753   4.834   3.751   5.883 -0.4875  1.2741  1.5793
  182SOPE   HN220754   4.963   3.749   5.989  1.2790 -0.5582 -0.4097
  182SOPE   HN320755   4.992   3.762   5.827  0.0097 -0.3463  1.1754
  182SOPE   C1220756   4.936   3.561   5.905  0.0510  0.2745 -0.1531
  182SOPE  H12A20757   5.042   3.527   5.897 -0.3678 -0.7811 -1.6738
  182SOPE  H12B20758   4.868   3.512   5.833 -1.5099 -3.5318  3.4658
  182SOPE   C1120759   4.876   3.522   6.046  0.0434  0.1652  0.2473
  182SOPE  H11A20760   4.877   3.411   6.056  1.2011  0.2828  1.7848
  182SOPE  H11B20761   4.768   3.543   6.037  0.4001  2.9264  1.5674
  182SOPE     P20762   5.049   3.561   6.237  0.0505 -0.3191  0.2652
  182SOPE   O1320763   5.116   3.673   6.303 -0.0818  0.6385  0.0329
  182SOPE   O1420764   5.134   3.480   6.141  0.0054 -0.8011 -0.6003
  182SOPE   O1220765   4.923   3.602   6.154 -0.4146  0.7450 -0.1493
  182SOPE   O1120766   4.997   3.456   6.345  0.5332  0.0114 -0.2068
  182SOPE    C120767   4.864   3.401   6.365 -0.0959  0.3327  0.3746
  182SOPE    HA20768   4.873   3.290   6.357  0.1797  0.4217 -0.7146
  182SOPE    HB20769   4.791   3.432   6.287 -1.8847  2.2199  2.6389
  182SOPE    C220770   4.815   3.438   6.508 -0.4264 -0.3556  0.2623
  182SOPE    HS20771   4.826   3.548   6.513  2.7409 -0.4968 -1.0372
  182SOPE   O2120772   4.892   3.370   6.606  0.6479  0.1399 -0.2864
  182SOPE   C2120773   5.003   3.438   6.648  0.4772 -0.1551  0.0222
  182SOPE   O2220774   5.031   3.549   6.612 -0.1116  0.5157 -0.1731
  182SOPE   C2220775   5.079   3.349   6.743 -0.0054 -0.0127  0.6778
  182SOPE   H2R20776   5.156   3.294   6.686  0.8679  0.8605  0.9890
  182SOPE   H2S20777   5.017   3.275   6.799  0.3514 -0.5095  0.4199
  182SOPE    C320778   4.668   3.399   6.517  0.4332  0.5493 -0.4557
  182SOPE    HX20779   4.671   3.295   6.478  1.2640  0.8568 -1.2443
  182SOPE    HY20780   4.601   3.448   6.444 -0.1645 -0.4400 -0.5783
  182SOPE   O3120781   4.621   3.399   6.655 -0.4298 -0.1418 -0.3559
  182SOPE   C3120782   4.589   3.516   6.701  0.0546 -0.3284 -0.3804
  182SOPE   O3220783   4.569   3.617   6.631  0.0463 -0.1778 -0.7032
  182SOPE   C3220784   4.556   3.518   6.843 -0.2043  0.3004 -0.1880
  182SOPE   H2X20785   4.579   3.417   6.883 -1.1154  0.6312  1.2528
  182SOPE   H2Y20786   4.447   3.538   6.846 -0.8376 -2.7361  0.2337
  182SOPE   C2320787   5.151   3.444   6.842  0.1499 -0.2301  0.3656
  182SOPE   H3R20788   5.198   3.523   6.780 -1.3973  0.8770  0.5556
  182SOPE   H3S20789   5.229   3.387   6.896 -1.1241 -0.0433  2.5533
  182SOPE   C2420790   5.069   3.504   6.959 -0.1593  0.1741  0.7067
  182SOPE   H4R20791   5.114   3.604   6.975  2.3142  0.1854 -4.3092
  182SOPE   H4S20792   4.962   3.520   6.934  0.2434  2.5869  0.2475
  182SOPE   C2520793   5.066   3.417   7.087  0.8615  0.0021 -0.1587
  182SOPE   H5R20794   5.091   3.312   7.059  0.6568  0.1331 -0.8491
  182SOPE   H5S20795   5.148   3.463   7.145 -0.4779  0.8810  1.1150
  182SOPE   C2620796   4.930   3.424   7.150  0.0782  0.3906  0.7089
  182SOPE   H6R20797   4.894   3.529   7.150 -1.0117  0.0283 -0.0778
  182SOPE   H6S20798   4.846   3.384   7.090 -0.2044  1.8229  0.1249
  182SOPE   C2720799   4.925   3.360   7.292 -0.1205  0.3740  0.6672
  182SOPE   H7R20800   4.926   3.252   7.267 -1.5158  0.8699 -1.9501
  182SOPE   H7S20801   5.019   3.373   7.351 -0.3328 -0.3014  1.1647
  182SOPE   C2820802   4.801   3.390   7.377 -0.3884 -0.4534 -0.0485
  182SOPE   H8R20803   4.722   3.360   7.305  1.3536 -0.4078 -2.0638
  182SOPE   H8S20804   4.799   3.322   7.465  4.3359  1.0376  1.4940
  182SOPE   C2920805   4.798   3.537   7.413  0.4377  0.4677  0.8440
  182SOPE   H9120806   4.852   3.608   7.348  0.5711  0.6145  1.1145
  182SOPE  C21020807   4.747   3.600   7.526  0.4819 -0.2907  0.7010
  182SOPE  H10120808   4.769   3.708   7.532 -0.2323 -0.1053  0.1156
  182SOPE  C21120809   4.692   3.525   7.648 -0.4201 -0.7707 -0.3270
  182SOPE  H11R20810   4.765   3.534   7.732  0.0444 -0.7286 -0.7326
  182SOPE  H11S20811   4.689   3.417   7.621 -1.6814 -0.8277 -0.0103
  182SOPE  C21220812   4.545   3.550   7.692 -0.5339  0.5324 -0.4297
  182SOPE  H12R20813   4.472   3.558   7.609  0.1464 -2.7126 -1.4951
  182SOPE  H12S20814   4.542   3.645   7.750 -3.6659  0.4752 -0.3221
  182SOPE  C21320815   4.496   3.438   7.776 -0.0307 -0.0121  0.7592
  182SOPE  H13R20816   4.497   3.345   7.715  0.8270  1.9417 -2.4025
  182SOPE  H13S20817   4.389   3.464   7.794 -0.2781  0.8427 -1.6386
  182SOPE  C21420818   4.556   3.420   7.916 -0.1474 -0.2175 -0.6967
  182SOPE  H14R20819   4.525   3.513   7.968 -0.6783 -0.9218  0.2724
  182SOPE  H14S20820   4.666   3.403   7.906 -0.1521 -0.3087 -0.5978
  182SOPE  C21520821   4.513   3.290   7.993  0.0375  0.2034  0.5534
  182SOPE  H15R20822   4.551   3.200   7.940 -1.5448 -0.0553 -0.2061
  182SOPE  H15S20823   4.403   3.281   8.002 -0.2343  0.2348 -1.9331
  182SOPE  C21620824   4.570   3.271   8.136  0.3941 -0.2371  0.3149
  182SOPE  H16R20825   4.548   3.362   8.196 -1.9615 -1.1769  1.0092
  182SOPE  H16S20826   4.679   3.252   8.139  0.3951 -0.0591  2.0201
  182SOPE  C21720827   4.511   3.152   8.211 -0.1135  0.0653  0.2886
  182SOPE  H17R20828   4.547   3.061   8.158 -1.6307 -0.1035 -0.5154
  182SOPE  H17S20829   4.401   3.150   8.200 -0.1742  0.8911  0.7157
  182SOPE  C21820830   4.549   3.148   8.362  0.2424 -0.5209 -0.3076
  182SOPE  H18R20831   4.660   3.144   8.361  0.3174  0.8330 -0.4071
  182SOPE  H18S20832   4.506   3.060   8.414 -1.4892  0.7387  0.4916
  182SOPE  H18T20833   4.514   3.237   8.418 -3.4763 -0.7950 -1.8748
  182SOPE   C3320834   4.633   3.625   6.921  0.9698 -0.0488  0.1553
  182SOPE   H3X20835   4.606   3.724   6.877  1.8493 -0.9733 -2.7153
  182SOPE   H3Y20836   4.742   3.607   6.911  0.9767 -1.3431  2.0460
  182SOPE   C3420837   4.594   3.625   7.067 -0.2646 -0.4680 -0.2158
  182SOPE   H4X20838   4.657   3.703   7.116  0.5614 -1.1045 -0.2348
  182SOPE   H4Y20839   4.627   3.531   7.117 -1.1521 -0.4026  0.5159
  182SOPE   C3520840   4.441   3.646   7.095  0.7330 -0.0544 -0.2625
  182SOPE   H5X20841   4.397   3.545   7.104  0.1420  0.2682  0.4887
  182SOPE   H5Y20842   4.390   3.704   7.015 -3.2054 -0.2163  1.8858
  182SOPE   C3620843   4.421   3.729   7.220 -0.5682 -0.3384 -0.0943
  182SOPE   H6X20844   4.477   3.671   7.297 -1.2270 -0.1239  0.5584
  182SOPE   H6Y20845   4.314   3.737   7.251  0.0271  0.3254  1.9344
  182SOPE   C3720846   4.472   3.878   7.210  0.4982  0.2393 -0.1898
  182SOPE   H7X20847   4.392   3.950   7.182 -0.1079  0.1554  1.2206
  182SOPE   H7Y20848   4.542   3.880   7.124  0.7212  1.4360  0.0016
  182SOPE   C3820849   4.553   3.919   7.339 -0.2176  0.2586  0.2277
  182SOPE   H8X20850   4.592   4.022   7.333  0.5813  0.0271  1.2412
  182SOPE   H8Y20851   4.645   3.857   7.346  0.7322  1.0248 -3.4786
  182SOPE   C3920852   4.465   3.913   7.469 -0.3428  0.2821 -0.1111
  182SOPE   H9X20853   4.417   3.813   7.473  2.4247 -1.1220  0.7487
  182SOPE   H9Y20854   4.385   3.990   7.465 -0.9521 -0.2861  0.8428
  182SOPE  C31020855   4.537   3.916   7.600  0.1846 -0.3322 -0.2029
  182SOPE  H10X20856   4.587   4.014   7.612  1.2608 -0.9860  1.0584
  182SOPE  H10Y20857   4.620   3.842   7.596  0.2598 -0.2749  0.2164
  182SOPE  C31120858   4.433   3.890   7.711  0.3143 -0.5484  0.5461
  182SOPE  H11X20859   4.386   3.789   7.706 -0.6501 -0.1630  1.5618
  182SOPE  H11Y20860   4.351   3.964   7.706 -1.0109 -2.0409 -0.7595
  182SOPE  C31220861   4.497   3.889   7.851 -0.0341 -1.8090 -0.4124
  182SOPE  H12X20862   4.526   3.989   7.889 -1.8015 -1.2197 -0.4995
  182SOPE  H12Y20863   4.579   3.814   7.858  0.0261 -1.7008  0.0748
  182SOPE  C31320864   4.405   3.829   7.955  0.3188  0.5445 -0.3638
  182SOPE  H13X20865   4.367   3.726   7.934 -0.7675  0.5144  1.5517
  182SOPE  H13Y20866   4.308   3.883   7.960  0.3928  0.6383  0.0940
  182SOPE  C31420867   4.465   3.848   8.094  0.6938  0.6280  0.5721
  182SOPE  H14X20868   4.433   3.945   8.136 -2.8859  0.1533 -0.6939
  182SOPE  H14Y20869   4.576   3.855   8.097  0.8158 -0.0364 -1.2164
  182SOPE  C31520870   4.431   3.728   8.187 -0.4687 -0.7094 -0.1514
  182SOPE  H15X20871   4.475   3.632   8.153 -2.0126 -0.8190 -1.9811
  182SOPE  H15Y20872   4.321   3.713   8.177 -0.5543  0.9062 -2.7451
  182SOPE  C31620873   4.461   3.761   8.329  0.3049 -0.3949 -0.2590
  182SOPE  H16X20874   4.418   3.858   8.364  2.0545  0.0589  0.7494
  182SOPE  H16Y20875   4.568   3.768   8.357  0.0426  1.1901  0.4999
  182SOPE  C31720876   4.391   3.658   8.421  0.0426  0.3211  0.3090
  182SOPE  H17X20877   4.427   3.554   8.405  1.5901  0.7719  0.6862
  182SOPE  H17Y20878   4.283   3.668   8.399  0.1742 -0.6600 -0.9056
  182SOPE  C31820879   4.412   3.687   8.566 -0.2439 -0.6917 -0.4740
  182SOPE  H18X20880   4.516   3.663   8.599 -0.9138 -2.5464  0.4359
  182SOPE  H18Y20881   4.353   3.613   8.624 -0.8062  0.3251  0.2641
  182SOPE  H18Z20882   4.386   3.788   8.602  0.6220 -0.2714 -0.9861
  183SOPE     N20883   6.511   1.074   6.514 -0.2444 -0.1049 -0.7215
  183SOPE   HN120884   6.504   1.066   6.618  2.4343 -1.2591 -0.5552
  183SOPE   HN220885   6.443   1.002   6.484  0.0375  0.3810 -2.6274
  183SOPE   HN320886   6.598   1.035   6.473 -0.7146 -1.8781 -0.1332
  183SOPE   C1220887   6.472   1.200   6.441  0.2673 -0.2071  0.1743
  183SOPE  H12A20888   6.502   1.182   6.335 -0.0420 -3.7385  0.5862
  183SOPE  H12B20889   6.531   1.281   6.489  0.2204  0.1127 -0.2967
  183SOPE   C1120890   6.319   1.234   6.450 -0.4657  0.2296  0.1861
  183SOPE  H11A20891   6.309   1.336   6.408  1.3632 -0.4558 -2.1941
  183SOPE  H11B20892   6.291   1.232   6.557 -3.1432 -0.9335 -0.4561
  183SOPE     P20893   6.092   1.159   6.343  0.3926 -0.0727 -0.3293
  183SOPE   O1320894   6.056   1.073   6.228 -0.2398  0.3964 -0.2457
  183SOPE   O1420895   6.059   1.303   6.333 -0.6352  0.1579  0.0800
  183SOPE   O1220896   6.246   1.138   6.380  0.1199 -0.2318  0.0961
  183SOPE   O1120897   6.013   1.102   6.472 -0.4667  0.0690  0.5114
  183SOPE    C120898   6.058   0.983   6.530 -0.1147  0.2975 -0.1116
  183SOPE    HA20899   6.165   0.962   6.511  0.1613  2.3990 -1.1986
  183SOPE    HB20900   5.993   0.904   6.488 -0.4935  0.9372 -0.7504
  183SOPE    C220901   6.026   0.976   6.685 -0.4412 -0.2334 -0.0093
  183SOPE    HS20902   5.922   1.009   6.703  0.2221  0.9418  1.8907
  183SOPE   O2120903   6.120   1.057   6.760 -0.1507  0.0017 -0.2413
  183SOPE   C2120904   6.080   1.182   6.782 -0.1567  1.1696  0.4710
  183SOPE   O2220905   5.974   1.230   6.746  0.1736  0.3714  0.2831
  183SOPE   C2220906   6.182   1.255   6.867  0.0461 -0.5531  0.2742
  183SOPE   H2R20907   6.143   1.359   6.876 -0.5999 -0.3461 -3.4953
  183SOPE   H2S20908   6.277   1.247   6.811  0.5318 -1.5411  1.1796
  183SOPE    C320909   6.032   0.832   6.732  0.0326  0.3400  0.2944
  183SOPE    HX20910   6.132   0.795   6.703  0.0863 -2.0226  3.0024
  183SOPE    HY20911   5.955   0.777   6.673 -1.1445  2.3004 -0.1051
  183SOPE   O3120912   6.004   0.813   6.871  0.0512 -0.3488  0.2355
  183SOPE   C3120913   5.887   0.809   6.913 -0.3925 -0.1747 -0.3407
  183SOPE   O3220914   5.783   0.822   6.848  0.5108  0.6417  0.7714
  183SOPE   C3220915   5.883   0.795   7.062  0.4670  1.0879 -0.7542
  183SOPE   H2X20916   5.984   0.801   7.107  1.1304  1.2586 -2.2353
  183SOPE   H2Y20917   5.844   0.691   7.074 -0.3946  1.3156 -1.4713
  183SOPE   C2320918   6.211   1.175   7.001 -0.8467  0.1450  0.3196
  183SOPE   H3R20919   6.289   1.241   7.045  0.3350 -0.6899 -0.4464
  183SOPE   H3S20920   6.257   1.076   6.979  0.4019  0.8158 -0.2289
  183SOPE   C2420921   6.089   1.165   7.089  1.1072 -0.7967  0.0736
  183SOPE   H4R20922   6.042   1.266   7.095 -2.6858 -2.4128  0.6594
  183SOPE   H4S20923   6.009   1.099   7.049 -0.6207  1.4646 -0.4275
  183SOPE   C2520924   6.116   1.106   7.232 -0.2234 -0.6545 -0.8286
  183SOPE   H5R20925   6.059   1.014   7.257 -2.1310  0.5036 -0.7280
  183SOPE   H5S20926   6.222   1.076   7.221 -0.1943 -0.2472 -1.6790
  183SOPE   C2620927   6.096   1.218   7.332 -0.3337  0.0367  0.5654
  183SOPE   H6R20928   6.146   1.308   7.290  0.3370 -0.9030 -0.7167
  183SOPE   H6S20929   5.989   1.246   7.343 -0.4429  0.0826 -0.5460
  183SOPE   C2720930   6.135   1.182   7.477 -0.4573  0.3950  0.3398
  183SOPE   H7R20931   6.068   1.095   7.494 -0.6724  0.4979  0.0143
  183SOPE   H7S20932   6.236   1.138   7.472 -0.5197  0.1792  0.8918
  183SOPE   C2820933   6.135   1.292   7.590  0.5410 -0.4954 -0.2063
  183SOPE   H8R20934   6.213   1.270   7.667 -0.4777  0.5141  1.1485
  183SOPE   H8S20935   6.185   1.383   7.551 -0.2018  0.0092  0.0002
  183SOPE   C2920936   5.998   1.328   7.640 -0.2081 -1.1599 -1.2165
  183SOPE   H9120937   5.941   1.390   7.569  0.4431  0.5545 -0.3121
  183SOPE  C21020938   5.943   1.279   7.755  0.4702 -0.1212 -0.2403
  183SOPE  H10120939   5.838   1.303   7.773  0.0475 -1.0668 -1.3268
  183SOPE  C21120940   6.007   1.175   7.846 -0.2142  0.1584 -0.6316
  183SOPE  H11R20941   6.026   1.215   7.948 -2.0846 -1.7413  0.5231
  183SOPE  H11S20942   6.107   1.144   7.808  0.3691 -0.8333  1.5623
  183SOPE  C21220943   5.924   1.048   7.882 -0.4596  0.0186  0.8362
  183SOPE  H12R20944   5.990   0.959   7.874  2.0794  1.9423 -3.1027
  183SOPE  H12S20945   5.838   1.038   7.812  0.2088 -3.6623  0.3343
  183SOPE  C21320946   5.881   1.046   8.029  0.7486 -0.2028 -0.5370
  183SOPE  H13R20947   5.790   0.981   8.027  0.3309  0.2219 -4.5565
  183SOPE  H13S20948   5.847   1.145   8.065  0.4628 -0.7863  0.8823
  183SOPE  C21420949   5.987   1.003   8.136  0.0009  1.1809  0.2508
  183SOPE  H14R20950   6.088   1.036   8.105  0.6677  1.4370  2.5189
  183SOPE  H14S20951   5.983   0.893   8.130  3.6436  0.8507  1.7776
  183SOPE  C21520952   5.948   1.050   8.283  0.1563 -0.0186  0.3459
  183SOPE  H15R20953   5.923   1.158   8.289 -0.0032 -0.1298  2.1807
  183SOPE  H15S20954   6.031   1.034   8.354  0.1459 -1.2809  0.0968
  183SOPE  C21620955   5.831   0.971   8.345 -0.1417  0.0878 -0.2400
  183SOPE  H16R20956   5.842   0.867   8.307  1.4309 -0.0300  0.4493
  183SOPE  H16S20957   5.740   1.019   8.304 -0.0470  0.8270  0.3855
  183SOPE  C21720958   5.823   0.966   8.495 -0.6072 -0.0616  0.6693
  183SOPE  H17R20959   5.890   0.884   8.529 -0.7694 -0.6351 -0.3599
  183SOPE  H17S20960   5.719   0.934   8.519 -0.4591  0.3757  2.0003
  183SOPE  C21820961   5.857   1.096   8.567  0.6134 -0.3181 -0.2673
  183SOPE  H18R20962   5.772   1.167   8.562  1.6194  0.9166 -0.1266
  183SOPE  H18S20963   5.953   1.150   8.552 -0.8849  2.5263 -0.1725
  183SOPE  H18T20964   5.865   1.065   8.674 -1.5235 -1.7946 -0.4597
  183SOPE   C3320965   5.787   0.897   7.139  0.5015  0.0131  0.1504
  183SOPE   H3X20966   5.683   0.907   7.101  0.2180 -0.6134  0.7338
  183SOPE   H3Y20967   5.833   0.995   7.115  0.6832  0.0033  0.4470
  183SOPE   C3420968   5.790   0.858   7.288 -0.6410  0.7464 -0.3069
  183SOPE   H4X20969   5.773   0.953   7.343  1.4396  1.4875 -0.8541
  183SOPE   H4Y20970   5.886   0.816   7.325 -0.3868 -0.6645 -2.3836
  183SOPE   C3520971   5.684   0.751   7.326 -0.7809 -0.1766  0.1821
  183SOPE   H5X20972   5.711   0.666   7.260  0.8633  2.0973 -2.3013
  183SOPE   H5Y20973   5.587   0.786   7.284  0.1252  4.1089  1.1797
  183SOPE   C3620974   5.665   0.713   7.469 -0.2605 -0.4157 -0.3267
  183SOPE   H6X20975   5.758   0.668   7.509 -0.4758 -0.5157  0.0708
  183SOPE   H6Y20976   5.580   0.643   7.485  0.3648 -1.1130  0.0355
  183SOPE   C3720977   5.641   0.837   7.556 -0.8021 -0.2554  0.0639
  183SOPE   H7X20978   5.560   0.904   7.519 -1.2832 -2.3740 -3.0967
  183SOPE   H7Y20979   5.735   0.896   7.562 -1.2068  0.2503  2.8120
  183SOPE   C3820980   5.596   0.790   7.693 -0.4947  0.2470 -0.1256
  183SOPE   H8X20981   5.512   0.722   7.666  0.7351 -0.6997 -1.7383
  183SOPE   H8Y20982   5.544   0.870   7.750 -0.0462 -0.4801  1.3346
  183SOPE   C3920983   5.706   0.731   7.788  0.7658 -0.0868  0.3192
  183SOPE   H9X20984   5.780   0.807   7.819 -0.8119  1.0127  1.6079
  183SOPE   H9Y20985   5.756   0.644   7.740 -1.2956 -0.2416 -1.7517
  183SOPE  C31020986   5.642   0.678   7.904  0.3172  1.1036 -0.5948
  183SOPE  H10X20987   5.602   0.576   7.883  0.8599  0.5171  1.0550
  183SOPE  H10Y20988   5.559   0.744   7.936  2.3376  3.1080  0.7838
  183SOPE  C31120989   5.737   0.650   8.023 -0.1302  0.1129 -0.3175
  183SOPE  H11X20990   5.782   0.743   8.063 -0.1806  0.0672 -0.1529
  183SOPE  H11Y20991   5.813   0.573   7.999 -0.7266 -0.1393 -1.4571
  183SOPE  C31220992   5.657   0.583   8.143  0.9580  0.5900  0.2221
  183SOPE  H12X20993   5.725   0.533   8.215  0.0246 -0.4163  0.4304
  183SOPE  H12Y20994   5.598   0.500   8.099  2.6319  0.6954 -2.4612
  183SOPE  C31320995   5.558   0.681   8.215 -0.2166 -0.5707 -0.5862
  183SOPE  H13X20996   5.500   0.738   8.139 -0.5413  0.3018  0.2975
  183SOPE  H13Y20997   5.606   0.753   8.284 -0.8130 -2.9745  2.5570
  183SOPE  C31420998   5.453   0.600   8.290  0.2468 -0.4342 -1.1466
  183SOPE  H14X20999   5.416   0.534   8.210 -0.2142 -1.0116 -0.4697
  183SOPE  H14Y21000   5.378   0.678   8.315  0.0594 -0.6017 -1.1900
  183SOPE  C31521001   5.497   0.503   8.401 -0.4027 -0.6184  0.1162
  183SOPE  H15X21002   5.541   0.560   8.486 -0.4117 -1.8796  0.9929
  183SOPE  H15Y21003   5.584   0.447   8.361 -0.5752 -0.1842 -0.8956
  183SOPE  C31621004   5.395   0.403   8.454  0.3180  0.1122  0.5532
  183SOPE  H16X21005   5.366   0.327   8.378 -0.5320  1.3225 -0.3721
  183SOPE  H16Y21006   5.300   0.459   8.470  0.7572  0.9583  0.2586
  183SOPE  C31721007   5.450   0.333   8.574 -0.2977  0.2139  0.6176
  183SOPE  H17X21008   5.461   0.391   8.668 -0.1453 -0.5828  1.0976
  183SOPE  H17Y21009   5.548   0.299   8.533 -0.9132 -2.5115  1.2361
  183SOPE  C31821010   5.367   0.205   8.612  0.3891  0.7797  0.3778
  183SOPE  H18X21011   5.328   0.155   8.521  2.4606 -0.3536  0.0479
  183SOPE  H18Y21012   5.280   0.232   8.676 -1.0691  0.4175 -1.3669
  183SOPE  H18Z21013   5.434   0.125   8.652 -0.8372 -0.9198 -0.8160
  184SOPE     N21014   0.810   2.170   5.852 -0.3579  0.3476  0.2462
  184SOPE   HN121015   0.811   2.203   5.950 -0.0898  0.1501  0.3147
  184SOPE   HN221016   0.802   2.066   5.858  6.1086 -0.6008  0.0138
  184SOPE   HN321017   0.905   2.187   5.812 -0.1640 -0.6390  0.2544
  184SOPE   C1221018   0.696   2.221   5.773 -0.3523  0.7584  0.2512
  184SOPE  H12A21019   0.623   2.138   5.758 -1.3615  1.7462 -0.4502
  184SOPE  H12B21020   0.736   2.261   5.677  0.7854  4.8706  2.2264
  184SOPE   C1121021   0.627   2.330   5.859  0.7525  0.1078 -1.1061
  184SOPE  H11A21022   0.552   2.377   5.792 -2.0918 -0.1982  1.6222
  184SOPE  H11B21023   0.710   2.402   5.880  3.5571 -2.3254 -3.0243
  184SOPE     P21024   0.434   2.212   5.997 -0.1952  0.2666 -0.0354
  184SOPE   O1321025   0.468   2.074   5.970  0.1741  0.7670  0.1884
  184SOPE   O1421026   0.325   2.272   5.924 -0.5219 -0.4272  0.1857
  184SOPE   O1221027   0.561   2.290   5.982  0.0317 -0.3766  0.1102
  184SOPE   O1121028   0.420   2.223   6.159 -0.1012 -0.0462 -0.1065
  184SOPE    C121029   0.503   2.143   6.244 -0.4735  0.0144  0.2157
  184SOPE    HA21030   0.601   2.192   6.262 -0.6408  0.5919 -0.4300
  184SOPE    HB21031   0.522   2.043   6.199 -3.5055 -0.4921 -0.1696
  184SOPE    C221032   0.436   2.117   6.385 -0.6870 -0.7103 -0.0632
  184SOPE    HS21033   0.333   2.075   6.379 -0.8945 -0.3613  0.9045
  184SOPE   O2121034   0.444   2.233   6.463  0.2182 -0.1166 -0.0691
  184SOPE   C2121035   0.329   2.287   6.501  0.5257 -0.5079  0.1316
  184SOPE   O2221036   0.220   2.259   6.454  0.0578  0.6223  0.1014
  184SOPE   C2221037   0.360   2.389   6.612 -0.3997 -0.6245 -0.4072
  184SOPE   H2R21038   0.270   2.448   6.640  2.7189  2.9829  3.3358
  184SOPE   H2S21039   0.442   2.458   6.580 -0.1047  0.2727  2.0496
  184SOPE    C321040   0.526   2.021   6.458  0.4815 -0.1165  0.2796
  184SOPE    HX21041   0.627   2.066   6.468  0.5741  0.1408 -1.5135
  184SOPE    HY21042   0.521   1.925   6.403  1.8834 -0.3230  0.4752
  184SOPE   O3121043   0.477   2.003   6.591  0.8483  0.0340  0.0998
  184SOPE   C3121044   0.547   1.917   6.658 -0.3130 -0.1611 -0.2696
  184SOPE   O3221045   0.660   1.883   6.631  0.5546 -0.1595  0.5258
  184SOPE   C3221046   0.472   1.877   6.792  0.2436  0.5101 -0.7985
  184SOPE   H2X21047   0.527   1.792   6.838  1.0398  1.5620  0.2474
  184SOPE   H2Y21048   0.371   1.844   6.757  0.4720 -0.0096 -0.9915
  184SOPE   C2321049   0.419   2.329   6.748 -0.7009 -0.7135  0.3736
  184SOPE   H3R21050   0.503   2.261   6.724 -0.2492  0.7315 -2.4588
  184SOPE   H3S21051   0.341   2.267   6.798 -2.7147  0.6578 -0.9459
  184SOPE   C2421052   0.471   2.451   6.832  0.2278  0.3302 -0.4992
  184SOPE   H4R21053   0.533   2.522   6.773  1.6150 -0.8505 -0.5128
  184SOPE   H4S21054   0.379   2.501   6.868  1.1727  2.2734 -0.6323
  184SOPE   C2521055   0.570   2.413   6.949  0.2074  0.0081  0.6178
  184SOPE   H5R21056   0.508   2.363   7.026 -1.3473 -0.2844 -0.7736
  184SOPE   H5S21057   0.655   2.348   6.917 -0.6702 -0.3574 -1.0585
  184SOPE   C2621058   0.615   2.540   7.013 -0.5054 -0.0636 -0.0482
  184SOPE   H6R21059   0.675   2.506   7.101  1.6141  1.3845 -0.8364
  184SOPE   H6S21060   0.686   2.583   6.939 -0.6207  0.8656  0.3559
  184SOPE   C2721061   0.515   2.637   7.079  0.1845 -0.2354 -0.6441
  184SOPE   H7R21062   0.448   2.675   6.999  0.0204  0.0622 -0.3676
  184SOPE   H7S21063   0.447   2.581   7.146 -0.6593  2.3456  0.7642
  184SOPE   C2821064   0.588   2.747   7.160  0.8116  0.1672  0.1645
  184SOPE   H8R21065   0.655   2.709   7.239  1.8048  0.3879 -0.5429
  184SOPE   H8S21066   0.667   2.793   7.096  2.0044 -0.1373  1.3763
  184SOPE   C2921067   0.500   2.860   7.211 -0.2989 -0.8642 -0.3856
  184SOPE   H9121068   0.401   2.825   7.246 -0.5029  1.1514  1.2088
  184SOPE  C21021069   0.543   2.984   7.249 -0.2344  0.4275 -0.1050
  184SOPE  H10121070   0.468   3.056   7.284  0.3843  0.9892  0.0982
  184SOPE  C21121071   0.681   3.037   7.243 -0.2643  1.0821  0.7390
  184SOPE  H11R21072   0.695   3.102   7.154  1.2763 -2.2116 -1.6303
  184SOPE  H11S21073   0.754   2.956   7.223 -0.7964  0.8904 -0.4697
  184SOPE  C21221074   0.718   3.108   7.377 -0.0520  0.1101  0.1201
  184SOPE  H12R21075   0.645   3.188   7.401 -0.6883 -0.7846  1.2736
  184SOPE  H12S21076   0.814   3.160   7.356  0.3509  0.1082  1.8428
  184SOPE  C21321077   0.725   3.021   7.503 -0.1645  0.4726  0.7790
  184SOPE  H13R21078   0.805   3.056   7.571 -0.3649  0.1479  1.1896
  184SOPE  H13S21079   0.753   2.917   7.475  0.9610  0.2443  2.5587
  184SOPE  C21421080   0.590   3.010   7.587  0.3140 -0.3444 -0.4437
  184SOPE  H14R21081   0.523   2.945   7.526  0.8842 -0.9184 -0.4791
  184SOPE  H14S21082   0.542   3.109   7.597 -1.3537 -0.9291 -2.1004
  184SOPE  C21521083   0.599   2.941   7.720 -0.0176  0.3750 -0.7570
  184SOPE  H15R21084   0.669   2.996   7.786 -0.6769  3.1910 -2.2775
  184SOPE  H15S21085   0.646   2.840   7.712 -0.3179  0.1363  0.3440
  184SOPE  C21621086   0.467   2.924   7.795  0.8404  0.3323  0.9646
  184SOPE  H16R21087   0.409   2.864   7.722  1.8861  0.2880  0.1502
  184SOPE  H16S21088   0.417   3.023   7.790  0.4667  0.1431  0.8800
  184SOPE  C21721089   0.466   2.862   7.930  0.3096 -0.1210 -0.6718
  184SOPE  H17R21090   0.560   2.810   7.959  0.8173 -1.0682 -3.6841
  184SOPE  H17S21091   0.382   2.789   7.936  1.6812 -1.6244  1.3833
  184SOPE  C21821092   0.433   2.967   8.035  0.1136 -0.2704 -0.4797
  184SOPE  H18R21093   0.418   2.910   8.129  4.0145  0.4169  0.7389
  184SOPE  H18S21094   0.332   3.013   8.022  1.4205  3.2258  0.5383
  184SOPE  H18T21095   0.511   3.046   8.039  0.6104 -0.7217 -0.9984
  184SOPE   C3321096   0.465   1.989   6.906  0.1624  1.0028  0.0955
  184SOPE   H3X21097   0.389   2.065   6.876  1.3454  0.9911 -3.4127
  184SOPE   H3Y21098   0.564   2.040   6.909  0.1357  1.1175 -0.6359
  184SOPE   C3421099   0.429   1.931   7.048 -0.1327  0.1997 -0.3858
  184SOPE   H4X21100   0.506   1.859   7.081  0.2734  0.3120 -1.0697
  184SOPE   H4Y21101   0.333   1.876   7.035  0.2448 -0.3842 -0.7491
  184SOPE   C3521102   0.418   2.040   7.164 -0.2035  0.6262 -0.0933
  184SOPE   H5X21103   0.367   1.988   7.248  1.8439 -0.2233  0.6989
  184SOPE   H5Y21104   0.355   2.123   7.125 -1.3665 -0.7240 -1.1665
  184SOPE   C3621105   0.555   2.093   7.207 -0.1424 -0.5436  0.2801
  184SOPE   H6X21106   0.590   2.154   7.121  1.1648  1.4243  2.0881
  184SOPE   H6Y21107   0.626   2.009   7.227 -1.1261 -1.0828  1.7257
  184SOPE   C3721108   0.538   2.193   7.321 -0.4473 -0.6445  0.0726
  184SOPE   H7X21109   0.472   2.280   7.300  2.1031  1.3712 -0.1267
  184SOPE   H7Y21110   0.644   2.223   7.336 -0.8421 -0.0303  1.8759
  184SOPE   C3821111   0.494   2.121   7.448 -0.2071 -0.1435  0.4434
  184SOPE   H8X21112   0.550   2.025   7.444  0.3978  0.1147  1.9085
  184SOPE   H8Y21113   0.385   2.101   7.446 -0.0036 -1.9316  2.7210
  184SOPE   C3921114   0.525   2.185   7.578 -0.4764  0.1053 -0.3305
  184SOPE   H9X21115   0.633   2.202   7.600 -1.2503  7.0739  0.4947
  184SOPE   H9Y21116   0.490   2.128   7.667  1.7716 -2.5258 -0.9894
  184SOPE  C31021117   0.470   2.326   7.587 -0.1467 -0.1813 -0.4247
  184SOPE  H10X21118   0.370   2.321   7.538  0.2064 -0.5235 -1.1271
  184SOPE  H10Y21119   0.528   2.388   7.515  0.2856 -1.3217 -1.0776
  184SOPE  C31121120   0.452   2.381   7.726 -0.7308  0.2131 -0.0037
  184SOPE  H11X21121   0.366   2.329   7.773 -1.0346  1.0648  0.4027
  184SOPE  H11Y21122   0.423   2.488   7.725  0.5218  0.5643 -0.4920
  184SOPE  C31221123   0.577   2.360   7.813  0.9305 -0.6283 -0.5236
  184SOPE  H12X21124   0.664   2.398   7.755  0.8869 -1.9621 -1.4954
  184SOPE  H12Y21125   0.588   2.250   7.826 -1.1870 -0.7231  0.9068
  184SOPE  C31321126   0.580   2.432   7.952 -0.1794  0.0519 -0.0341
  184SOPE  H13X21127   0.594   2.536   7.915  1.3500 -0.1425 -0.0681
  184SOPE  H13Y21128   0.674   2.397   7.999 -0.0661 -1.2946 -1.1818
  184SOPE  C31421129   0.455   2.413   8.030 -0.1393 -0.0103 -0.0330
  184SOPE  H14X21130   0.426   2.305   8.038  0.2258 -0.0504  0.8646
  184SOPE  H14Y21131   0.373   2.474   7.986 -1.5366  0.6020  3.1238
  184SOPE  C31521132   0.474   2.460   8.182 -0.2795 -0.4599  0.0188
  184SOPE  H15X21133   0.555   2.536   8.176  0.6501 -1.5015 -0.8987
  184SOPE  H15Y21134   0.516   2.376   8.242  0.7169 -0.5472 -0.7841
  184SOPE  C31621135   0.349   2.511   8.251  0.6817  0.3733  0.2726
  184SOPE  H16X21136   0.267   2.437   8.239  0.8485  0.4806 -1.8350
  184SOPE  H16Y21137   0.305   2.608   8.220 -0.6644  1.1832  4.0642
  184SOPE  C31721138   0.373   2.518   8.401 -0.6535  0.5434  0.6553
  184SOPE  H17X21139   0.438   2.599   8.440 -0.7218  2.1091 -2.2661
  184SOPE  H17Y21140   0.413   2.420   8.436 -0.4277 -0.2392 -1.6412
  184SOPE  C31821141   0.239   2.537   8.477 -0.0686  0.5634  0.4555
  184SOPE  H18X21142   0.209   2.644   8.476 -0.1685  0.5407  1.1523
  184SOPE  H18Y21143   0.228   2.504   8.582 -2.4648 -0.7605 -0.1179
  184SOPE  H18Z21144   0.161   2.478   8.422 -0.1233  1.2176 -0.1912
  185SAPI   C1221145   2.115   5.956  10.854  0.7889 -0.8971 -0.2923
  185SAPI    H221146   2.041   5.882  10.815 -0.2934 -1.2993  2.2696
  185SAPI    O221147   2.239   5.891  10.841  0.2246 -0.2474  0.2320
  185SAPI   HO221148   2.230   5.797  10.827  1.7996 -0.2504 -1.0424
  185SAPI   C1321149   2.115   6.075  10.757  0.2857  0.2443  0.2570
  185SAPI    H321150   2.014   6.121  10.758 -0.0525 -0.4192 -1.2346
  185SAPI    O321151   2.141   6.044  10.623  0.2656 -0.2016  0.6195
  185SAPI   HO321152   2.191   5.962  10.627  0.0571 -0.3686 -0.0377
  185SAPI   C1421153   2.213   6.180  10.808  0.0383 -0.0483  0.4384
  185SAPI    H421154   2.315   6.137  10.804 -0.1042 -0.2927 -0.7349
  185SAPI    O421155   2.211   6.297  10.724  0.5414 -0.0531  0.5131
  185SAPI   HO421156   2.285   6.286  10.664  0.0751  0.0330 -0.0876
  185SAPI   C1521157   2.196   6.217  10.955 -1.3030 -0.1074 -0.0293
  185SAPI    H521158   2.100   6.273  10.959 -0.1793  1.8251  1.8753
  185SAPI    O521159   2.292   6.311  11.000 -0.7852  0.2195  0.0382
  185SAPI   HO521160   2.374   6.262  11.006 -2.2617 -2.6783 -1.5763
  185SAPI   C1621161   2.185   6.093  11.048  0.8023 -0.0495 -0.1318
  185SAPI    H621162   2.276   6.030  11.049  0.0931 -1.1416  1.8515
  185SAPI    O621163   2.155   6.124  11.184 -0.0486  0.2321  0.2129
  185SAPI   HO621164   2.065   6.156  11.193  0.0375  1.0792 -1.5448
  185SAPI   C1121165   2.078   6.002  10.993 -0.4306  0.5332 -0.1564
  185SAPI    H121166   1.982   6.056  10.980  0.4050  2.1780  0.2002
  185SAPI     P21167   1.918   5.830  11.110 -0.1726 -0.3178 -0.0211
  185SAPI   O1321168   1.838   5.947  11.164 -0.3568 -0.0658  0.2242
  185SAPI   O1421169   1.939   5.710  11.189 -0.1638 -0.0023 -0.6943
  185SAPI   O1221170   2.065   5.877  11.068  0.0196  0.5630  0.3020
  185SAPI   O1121171   1.843   5.791  10.977 -0.3343  0.0022 -0.6012
  185SAPI    C121172   1.871   5.666  10.915  0.2966 -0.2713 -0.1239
  185SAPI    HA21173   1.975   5.666  10.876  0.1998  0.6627 -0.4187
  185SAPI    HB21174   1.852   5.580  10.982  1.2783  0.5226  1.2242
  185SAPI    C221175   1.773   5.643  10.799  0.2563 -0.0374 -0.3899
  185SAPI    HS21176   1.794   5.543  10.754 -0.2725 -1.3278  1.9941
  185SAPI   O2121177   1.779   5.741  10.691  0.1599 -0.0782 -0.1955
  185SAPI   C2121178   1.886   5.746  10.621 -0.3508  0.4025  0.8245
  185SAPI   O2221179   1.987   5.678  10.637  0.7102 -0.3832 -0.0618
  185SAPI   C2221180   1.873   5.842  10.507 -0.4421  0.2578  0.2877
  185SAPI   H2R21181   1.768   5.850  10.474 -1.0453 -1.2832  1.7095
  185SAPI   H2S21182   1.899   5.944  10.542  0.7748  0.5401 -1.2825
  185SAPI    C321183   1.631   5.638  10.848  0.1651 -0.1918 -0.2923
  185SAPI    HX21184   1.608   5.732  10.902  0.7942  0.0316 -0.3991
  185SAPI    HY21185   1.615   5.557  10.922  1.1604  0.5228  0.7300
  185SAPI   O3121186   1.544   5.606  10.739 -0.0727  0.0357  0.0118
  185SAPI   C3121187   1.485   5.713  10.682 -0.3191 -0.6650  0.2387
  185SAPI   O3221188   1.486   5.830  10.716 -0.6864  0.4631  0.0137
  185SAPI   C3221189   1.397   5.660  10.565 -0.2052  0.1639  0.3583
  185SAPI   H2X21190   1.303   5.629  10.615 -0.6032  0.8089  0.0263
  185SAPI   H2Y21191   1.437   5.563  10.531 -1.8174 -1.2413  2.2569
  185SAPI   C2321192   1.980   5.828  10.392 -0.2302  0.0201 -0.2779
  185SAPI   H3R21193   1.961   5.743  10.323  1.3147  1.2225 -2.2986
  185SAPI   H3S21194   2.079   5.817  10.441  0.8524 -0.3785 -2.4350
  185SAPI   C2421195   2.017   5.958  10.316  0.6429 -0.3615  0.2843
  185SAPI   H4R21196   2.119   5.948  10.274 -0.3234 -1.8996 -1.8406
  185SAPI   H4S21197   2.013   6.044  10.386  1.6299  0.5885 -0.7898
  185SAPI   C2521198   1.905   5.976  10.216  0.2611 -0.1767  0.3536
  185SAPI   H5R21199   1.804   5.993  10.254  0.1514 -0.8023  0.3507
  185SAPI   C2621200   1.931   5.971  10.083  0.6296 -0.5516 -0.2085
  185SAPI   H6R21201   1.848   5.995  10.015  1.9224  0.8668 -1.3615
  185SAPI   C2721202   2.053   5.946  10.004 -0.3699  0.4730  0.3529
  185SAPI   H7R21203   2.150   5.968  10.053  0.0917 -1.1634  0.2360
  185SAPI   H7S21204   2.037   6.020   9.922 -3.4983 -2.6716 -2.2069
  185SAPI   C2821205   2.033   5.800   9.953 -0.1740 -0.2577  0.5757
  185SAPI   H8R21206   2.036   5.723  10.031 -1.3809 -3.5998 -2.4087
  185SAPI   C2921207   2.039   5.765   9.824  0.2508 -0.2330  0.1407
  185SAPI   H9R21208   2.041   5.656   9.809 -2.8261 -0.2176 -1.0641
  185SAPI  C21021209   2.052   5.852   9.700 -0.0380  0.7381  0.0141
  185SAPI  H10R21210   2.009   5.949   9.734 -2.1223 -0.2503  0.3815
  185SAPI  H10S21211   1.986   5.831   9.613 -1.6523 -1.9862  1.7450
  185SAPI  C21121212   2.194   5.870   9.670 -0.8628  0.1089  0.3335
  185SAPI  H11R21213   2.258   5.888   9.758 -0.4960  0.0942  0.0759
  185SAPI  C21221214   2.265   5.846   9.551 -0.4648 -0.0330 -0.8600
  185SAPI  H12R21215   2.368   5.877   9.531  0.1459 -1.9201 -0.7634
  185SAPI  C21321216   2.196   5.801   9.419  0.3965  0.0982  0.0115
  185SAPI  H13R21217   2.138   5.710   9.444  2.5230 -1.4400 -0.3027
  185SAPI  H13S21218   2.280   5.763   9.356  0.2575 -2.5798  1.3095
  185SAPI  C21421219   2.110   5.898   9.348 -0.7455 -0.2583  0.0535
  185SAPI  H14R21220   2.104   5.995   9.399  1.2415 -0.8010  1.4235
  185SAPI  C21521221   2.071   5.883   9.219  0.1068  0.4322 -0.6657
  185SAPI  H15R21222   2.004   5.960   9.179 -0.3443  1.7046  2.2258
  185SAPI  C21621223   2.111   5.769   9.130 -0.9718  0.2716 -0.6339
  185SAPI  H16R21224   2.021   5.704   9.122 -1.5794  0.8042  1.3254
  185SAPI  H16S21225   2.186   5.701   9.175 -0.9036 -1.4996 -3.2082
  185SAPI  C21721226   2.160   5.811   8.989  0.3149 -0.3063 -0.3361
  185SAPI  H17R21227   2.252   5.873   8.992 -1.6775  3.2162 -3.7705
  185SAPI  H17S21228   2.086   5.879   8.943  0.0595  1.8406  2.8789
  185SAPI  C21821229   2.189   5.692   8.888 -0.7864 -0.0275  0.0829
  185SAPI  H18R21230   2.098   5.627   8.882 -0.6164 -0.1363 -2.7601
  185SAPI  H18S21231   2.268   5.632   8.938 -0.2449  2.3024  2.2223
  185SAPI  C21921232   2.228   5.738   8.748 -0.1665  0.0766  0.8197
  185SAPI  H19R21233   2.307   5.817   8.744  1.1460 -1.2024 -1.9892
  185SAPI  H19S21234   2.139   5.788   8.705  1.1303  0.1179 -2.0700
  185SAPI  C22021235   2.274   5.629   8.658  0.6729 -0.2472 -0.1198
  185SAPI  H20R21236   2.360   5.578   8.707  0.7080  1.5036  1.7492
  185SAPI  H20S21237   2.320   5.665   8.563 -2.1835  0.4507 -1.3477
  185SAPI  H20T21238   2.196   5.554   8.635  1.4680 -1.9401  2.3448
  185SAPI   C3321239   1.361   5.755  10.445 -0.3687 -0.1126 -0.6492
  185SAPI   H3X21240   1.314   5.848  10.483 -0.6471  0.1186 -1.5438
  185SAPI   H3Y21241   1.284   5.704  10.383  0.1639  1.8689 -3.1005
  185SAPI   C3421242   1.479   5.800  10.363 -0.1608  0.1867 -0.3893
  185SAPI   H4X21243   1.531   5.892  10.399  1.4148 -0.4684 -0.8862
  185SAPI   H4Y21244   1.436   5.833  10.266  0.0287  0.5836 -0.3394
  185SAPI   C3521245   1.575   5.685  10.310 -0.8217  0.0807  0.1668
  185SAPI   H5X21246   1.521   5.601  10.261  0.6694 -0.4729 -0.5999
  185SAPI   H5Y21247   1.649   5.671  10.391 -1.3199  4.1710  1.5847
  185SAPI   C3621248   1.660   5.740  10.195  0.4048  0.0048 -0.0535
  185SAPI   H6X21249   1.765   5.709  10.212  1.2780  0.7712 -3.3287
  185SAPI   H6Y21250   1.652   5.851  10.203  1.2059 -0.0236  1.4458
  185SAPI   C3721251   1.601   5.696  10.057 -0.5775  0.2992  0.3934
  185SAPI   H7X21252   1.496   5.732  10.060 -0.4069  0.8332  0.0528
  185SAPI   H7Y21253   1.610   5.586  10.057 -0.5773  0.2988  0.6210
  185SAPI   C3821254   1.664   5.754   9.928  0.2365 -0.2486  0.0013
  185SAPI   H8X21255   1.773   5.731   9.924  0.4955  0.3411  2.2209
  185SAPI   H8Y21256   1.645   5.863   9.929 -0.7837 -0.3959 -1.2159
  185SAPI   C3921257   1.597   5.708   9.795 -0.2720  0.0948 -0.0170
  185SAPI   H9X21258   1.486   5.714   9.802 -0.2331  1.3302 -0.1495
  185SAPI   H9Y21259   1.620   5.601   9.777 -0.4452  0.0204  0.1979
  185SAPI  C31021260   1.639   5.785   9.666 -0.1118  0.1403  0.3981
  185SAPI  H10X21261   1.748   5.781   9.650 -0.1716 -0.0571  0.0310
  185SAPI  H10Y21262   1.606   5.891   9.671  0.2804  0.2086  2.5833
  185SAPI  C31121263   1.572   5.720   9.540 -0.6513  0.4494  0.1084
  185SAPI  H11X21264   1.461   5.721   9.550 -1.1920 -3.6322 -2.9801
  185SAPI  H11Y21265   1.590   5.611   9.538  2.0623  0.8232  0.2900
  185SAPI  C31221266   1.610   5.778   9.402  1.1242 -0.3542  0.6746
  185SAPI  H12X21267   1.721   5.774   9.396  1.3891  1.3876  3.1491
  185SAPI  H12Y21268   1.586   5.886   9.410  1.5079 -0.1572 -0.6400
  185SAPI  C31321269   1.537   5.713   9.282  0.1922 -0.6222  0.1962
  185SAPI  H13X21270   1.427   5.725   9.290 -0.0470 -2.7357  0.8221
  185SAPI  H13Y21271   1.555   5.605   9.303 -2.3697 -0.4769  3.9554
  185SAPI  C31421272   1.596   5.779   9.153  0.3617  0.8887 -0.1240
  185SAPI  H14X21273   1.687   5.725   9.119  0.7924  1.3375  0.3102
  185SAPI  H14Y21274   1.634   5.878   9.183  0.5635  0.7551  0.0636
  185SAPI  C31521275   1.494   5.778   9.039  0.1198  0.5226  0.3973
  185SAPI  H15X21276   1.390   5.804   9.070  0.3827  0.5067  1.2931
  185SAPI  H15Y21277   1.483   5.678   8.991 -1.4085  0.2889  1.1492
  185SAPI  C31621278   1.534   5.872   8.931 -0.2477 -0.2589 -0.0072
  185SAPI  H16X21279   1.640   5.844   8.917  0.5479  0.9232  2.9353
  185SAPI  H16Y21280   1.516   5.975   8.969 -2.0295  0.3958 -2.3646
  185SAPI  C31721281   1.449   5.856   8.802  0.5530 -0.0553 -0.0631
  185SAPI  H17X21282   1.345   5.850   8.841  1.3551  0.4428  2.3068
  185SAPI  H17Y21283   1.460   5.758   8.751 -0.1570  0.3103 -0.9433
  185SAPI  C31821284   1.470   5.977   8.709  0.0912  0.5288 -0.5775
  185SAPI  H18X21285   1.421   6.067   8.752 -1.2287 -0.3656 -0.1539
  185SAPI  H18Y21286   1.413   5.967   8.613  1.0326  0.4210 -1.1341
  185SAPI  H18Z21287   1.576   6.010   8.705 -0.6350  3.3419  0.7763
  186SAPI   C1221288   6.491   3.827  10.874  0.2137  0.1638  0.1467
  186SAPI    H221289   6.514   3.909  10.947 -1.0922  0.9209 -0.2569
  186SAPI    O221290   6.567   3.718  10.920 -0.1126  0.3853 -0.3968
  186SAPI   HO221291   6.633   3.756  10.978  1.1113  0.0108 -1.4943
  186SAPI   C1321292   6.343   3.795  10.898 -0.8829 -0.6703 -0.1283
  186SAPI    H321293   6.272   3.879  10.879  0.1926  0.8511  2.1210
  186SAPI    O321294   6.310   3.783  11.036 -0.1838  0.1720 -0.1972
  186SAPI   HO321295   6.215   3.776  11.038 -0.2589  1.1430  0.1533
  186SAPI   C1421296   6.305   3.676  10.811 -0.1605  0.3652 -1.1867
  186SAPI    H421297   6.381   3.601  10.839  0.5320  1.5157  0.1367
  186SAPI    O421298   6.176   3.617  10.835 -0.6726 -0.2977 -0.3037
  186SAPI   HO421299   6.170   3.524  10.812  0.3366 -0.6458  0.7301
  186SAPI   C1521300   6.335   3.708  10.667  0.4891  0.0397  0.2411
  186SAPI    H521301   6.264   3.791  10.646  0.1461  0.1011  1.5465
  186SAPI    O521302   6.305   3.595  10.581  0.0901  0.4281 -0.1218
  186SAPI   HO521303   6.276   3.636  10.499 -0.5957 -0.0213 -0.1053
  186SAPI   C1621304   6.478   3.756  10.639  0.2473  0.3166  0.2856
  186SAPI    H621305   6.545   3.668  10.649 -0.2177  0.0168  0.7947
  186SAPI    O621306   6.488   3.803  10.505  0.1984  0.7947 -0.2987
  186SAPI   HO621307   6.580   3.784  10.481  0.1191  0.3871 -0.2876
  186SAPI   C1121308   6.512   3.869  10.731 -0.5836  0.4651 -0.0669
  186SAPI    H121309   6.443   3.953  10.710 -2.3762 -0.4218  1.9563
  186SAPI     P21310   6.676   4.076  10.750 -0.1684 -0.2439 -0.1268
  186SAPI   O1321311   6.820   4.085  10.785  0.0631 -0.0254 -0.2129
  186SAPI   O1421312   6.576   4.134  10.848 -0.0257  0.2283  0.1143
  186SAPI   O1221313   6.650   3.914  10.719  0.1469 -0.1682  0.4225
  186SAPI   O1121314   6.660   4.142  10.611 -0.3243  0.1089 -0.6643
  186SAPI    C121315   6.717   4.082  10.489 -0.6214 -0.1895  0.3210
  186SAPI    HA21316   6.826   4.099  10.476 -0.2305 -2.4823  0.2560
  186SAPI    HB21317   6.706   3.972  10.482 -0.5593 -0.0950 -2.5814
  186SAPI    C221318   6.643   4.140  10.363 -0.1232 -0.2128  0.0282
  186SAPI    HS21319   6.645   4.057  10.290  0.3463 -0.0471 -0.1513
  186SAPI   O2121320   6.722   4.253  10.326  0.0793  0.1390  0.3271
  186SAPI   C2121321   6.705   4.284  10.193 -0.6940 -0.0608 -0.0179
  186SAPI   O2221322   6.647   4.218  10.110 -0.2765 -0.3743  0.0247
  186SAPI   C2221323   6.795   4.403  10.169 -0.1901 -0.5106  0.3455
  186SAPI   H2R21324   6.867   4.408  10.254  0.0124  3.2098  0.1536
  186SAPI   H2S21325   6.871   4.396  10.089  3.0441 -0.3805  3.1639
  186SAPI    C321326   6.491   4.177  10.399 -0.3066 -0.1284 -0.5994
  186SAPI    HX21327   6.506   4.256  10.475  0.2408  0.1345 -0.9811
  186SAPI    HY21328   6.439   4.092  10.449  0.5355  0.4124  1.2700
  186SAPI   O3121329   6.422   4.240  10.290 -0.1585  0.5416 -0.3806
  186SAPI   C3121330   6.340   4.156  10.225 -0.5475  0.1934 -0.2517
  186SAPI   O3221331   6.307   4.046  10.267  0.1363  0.2192 -0.0102
  186SAPI   C3221332   6.295   4.225  10.100  0.4845  0.3872 -0.0888
  186SAPI   H2X21333   6.385   4.272  10.054  0.7106  0.8786  0.8318
  186SAPI   H2Y21334   6.222   4.298  10.142  1.7308 -0.1852  3.3975
  186SAPI   C2321335   6.728   4.541  10.191  0.3946 -0.6097 -0.0003
  186SAPI   H3R21336   6.802   4.616  10.226  1.8335 -1.2264 -1.6168
  186SAPI   H3S21337   6.653   4.544  10.273  0.0398 -0.3845 -0.3306
  186SAPI   C2421338   6.645   4.586  10.061 -0.0084 -0.2138 -0.4912
  186SAPI   H4R21339   6.594   4.682  10.082  1.9504  1.3334 -2.3639
  186SAPI   H4S21340   6.570   4.503  10.056  1.4831 -1.6329 -0.2381
  186SAPI   C2521341   6.729   4.582   9.935  0.3008 -0.2992 -0.0005
  186SAPI   H5R21342   6.818   4.647   9.935 -1.1551  1.8431  1.4048
  186SAPI   C2621343   6.699   4.508   9.831 -0.5674  0.8840  0.0383
  186SAPI   H6R21344   6.764   4.514   9.743 -1.6741 -3.4159 -1.3381
  186SAPI   C2721345   6.592   4.403   9.800  0.1828 -0.7792 -0.5947
  186SAPI   H7R21346   6.529   4.448   9.721  0.7503 -0.0567 -0.6428
  186SAPI   H7S21347   6.526   4.394   9.889 -1.4771  1.2268 -1.5348
  186SAPI   C2821348   6.644   4.266   9.756  0.3937 -0.1431  0.3087
  186SAPI   H8R21349   6.687   4.232   9.851  1.4840  2.4219  0.8424
  186SAPI   C2921350   6.643   4.198   9.637 -0.3755 -0.7349  0.7656
  186SAPI   H9R21351   6.690   4.099   9.634 -0.0194 -0.5551  0.3716
  186SAPI  C21021352   6.579   4.251   9.508 -0.2003  0.0387  0.2789
  186SAPI  H10R21353   6.658   4.292   9.440 -1.0205  1.5823  0.2284
  186SAPI  H10S21354   6.516   4.337   9.537 -0.1689  0.9426 -2.0698
  186SAPI  C21121355   6.494   4.157   9.430 -0.4703  0.4032  0.1707
  186SAPI  H11R21356   6.451   4.077   9.492 -1.7438  0.8468 -0.1179
  186SAPI  C21221357   6.478   4.150   9.297 -0.5257 -0.3267  0.4200
  186SAPI  H12R21358   6.423   4.063   9.258  1.0368 -0.7956 -0.8579
  186SAPI  C21321359   6.528   4.248   9.190  0.1249  0.3305 -0.3651
  186SAPI  H13R21360   6.504   4.207   9.090  2.8168 -1.1353 -0.4986
  186SAPI  H13S21361   6.639   4.246   9.193  0.1627  0.5706 -1.3084
  186SAPI  C21421362   6.480   4.398   9.205  0.4472 -0.1134 -0.4472
  186SAPI  H14R21363   6.531   4.477   9.263  0.9957 -0.3746 -0.5702
  186SAPI  C21521364   6.384   4.450   9.132 -0.6550  0.3336  0.6402
  186SAPI  H15R21365   6.366   4.556   9.155  3.7870  1.0662  1.5425
  186SAPI  C21621366   6.295   4.392   9.030 -0.3223 -0.7462 -0.3483
  186SAPI  H16R21367   6.312   4.283   9.015 -4.1836 -1.6905  1.1245
  186SAPI  H16S21368   6.307   4.449   8.936 -1.0489  0.0016  0.0034
  186SAPI  C21721369   6.148   4.393   9.069 -0.1559  0.0564 -0.2791
  186SAPI  H17R21370   6.112   4.496   9.090  0.4888  0.0702  0.8053
  186SAPI  H17S21371   6.133   4.334   9.161 -4.0459  2.4893  0.8634
  186SAPI  C21821372   6.061   4.314   8.967  0.2888 -0.2596 -0.6387
  186SAPI  H18R21373   5.961   4.312   9.014  0.4318 -1.3071 -0.3504
  186SAPI  H18S21374   6.086   4.207   8.951  0.6089 -0.0603 -1.5328
  186SAPI  C21921375   6.058   4.387   8.835  0.0253 -0.0618 -0.5040
  186SAPI  H19R21376   6.164   4.391   8.803  0.5330  2.0251  1.1785
  186SAPI  H19S21377   6.017   4.490   8.842  2.4776  0.9962 -0.7925
  186SAPI  C22021378   5.987   4.296   8.738 -0.5568  0.3871  0.2337
  186SAPI  H20R21379   5.976   4.353   8.643  0.2563 -0.9244 -0.6979
  186SAPI  H20S21380   5.888   4.278   8.784 -0.1654 -0.1677  0.8690
  186SAPI  H20T21381   6.047   4.204   8.721 -1.1875  0.1877 -1.0309
  186SAPI   C3321382   6.240   4.119   9.997  0.2264 -0.4877  0.4822
  186SAPI   H3X21383   6.147   4.071  10.032 -0.1352  1.4461  2.3671
  186SAPI   H3Y21384   6.314   4.037   9.984  1.0512  0.1654  0.9769
  186SAPI   C3421385   6.206   4.176   9.852 -0.0160 -0.3303 -0.3515
  186SAPI   H4X21386   6.306   4.217   9.825 -0.2905 -0.2821 -1.3539
  186SAPI   H4Y21387   6.123   4.249   9.859 -0.2382 -0.6280  0.1464
  186SAPI   C3521388   6.173   4.063   9.751  0.3779 -0.2418 -0.9216
  186SAPI   H5X21389   6.088   4.002   9.790  1.0919 -1.1231 -0.7141
  186SAPI   H5Y21390   6.263   3.999   9.745  0.7756  0.0151  1.3170
  186SAPI   C3621391   6.141   4.115   9.615 -0.2334  0.0471  0.2088
  186SAPI   H6X21392   6.236   4.165   9.585  1.4606 -1.1242  3.1224
  186SAPI   H6Y21393   6.048   4.176   9.617 -1.8737 -2.3437  0.7940
  186SAPI   C3721394   6.121   4.007   9.513  0.3285  0.0228  0.0259
  186SAPI   H7X21395   6.035   3.942   9.540 -1.9070  2.1200 -1.5739
  186SAPI   H7Y21396   6.209   3.940   9.504 -0.3034 -0.6744 -1.3885
  186SAPI   C3821397   6.105   4.062   9.368 -0.4682  0.2202  0.1476
  186SAPI   H8X21398   6.187   4.132   9.341 -0.1494 -0.2851 -0.2136
  186SAPI   H8Y21399   6.007   4.114   9.360  1.2137  3.4023 -2.1878
  186SAPI   C3921400   6.114   3.952   9.266 -0.4398 -0.5092  1.1751
  186SAPI   H9X21401   6.048   3.870   9.301 -0.9745 -0.6031 -0.0040
  186SAPI   H9Y21402   6.216   3.909   9.274  0.2703  0.5371 -1.1217
  186SAPI  C31021403   6.086   3.992   9.115 -0.6173  0.1756 -0.3240
  186SAPI  H10X21404   6.161   4.064   9.074 -0.6576 -0.4863 -1.6044
  186SAPI  H10Y21405   5.984   4.035   9.111 -1.1395 -0.9858  0.1092
  186SAPI  C31121406   6.098   3.865   9.027  0.9968  0.5425  0.3716
  186SAPI  H11X21407   6.005   3.809   9.050 -0.3184  1.2423 -2.7641
  186SAPI  H11Y21408   6.191   3.808   9.043 -0.2679 -1.3618  1.3189
  186SAPI  C31221409   6.097   3.912   8.876 -0.1700  0.1365 -0.2712
  186SAPI  H12X21410   6.182   3.979   8.852 -1.4556  1.0765 -2.5810
  186SAPI  H12Y21411   6.013   3.984   8.868  1.0872  1.6895  0.0002
  186SAPI  C31321412   6.078   3.793   8.774  0.2942 -0.1416 -0.2615
  186SAPI  H13X21413   6.074   3.839   8.672  0.9806 -0.0397 -0.2521
  186SAPI  H13Y21414   5.988   3.733   8.795  1.0372 -1.9908 -2.0570
  186SAPI  C31421415   6.209   3.712   8.769 -0.2314  0.3272  0.5022
  186SAPI  H14X21416   6.244   3.694   8.873  1.3099 -0.4735 -0.1190
  186SAPI  H14Y21417   6.295   3.765   8.723 -0.1543 -1.5945 -1.7444
  186SAPI  C31521418   6.186   3.576   8.691  0.4098  0.0027 -0.0470
  186SAPI  H15X21419   6.098   3.575   8.623  0.3420  2.3071 -0.0773
  186SAPI  H15Y21420   6.157   3.513   8.778 -1.7463  3.1654  1.7343
  186SAPI  C31621421   6.305   3.533   8.611  0.6165  0.0807  0.6140
  186SAPI  H16X21422   6.397   3.555   8.670  0.6167  1.0695  0.2663
  186SAPI  H16Y21423   6.296   3.594   8.519 -0.7570  2.7228  2.3696
  186SAPI  C31721424   6.323   3.383   8.599 -0.3059  0.6198  0.8193
  186SAPI  H17X21425   6.245   3.342   8.531  1.1684  2.3657 -2.1484
  186SAPI  H17Y21426   6.315   3.320   8.690  1.1896 -0.9445 -0.0722
  186SAPI  C31821427   6.461   3.350   8.537  0.3744  0.0881  0.8385
  186SAPI  H18X21428   6.463   3.241   8.518 -2.7012 -0.3169  2.1629
  186SAPI  H18Y21429   6.540   3.377   8.610  0.3690  1.8178  0.2602
  186SAPI  H18Z21430   6.475   3.403   8.440 -2.0946 -2.1106 -0.8588
  187SAPI   C1221431   6.424   4.799   6.289  0.2889 -0.1007  0.4322
  187SAPI    H221432   6.473   4.737   6.367 -1.3234 -2.9180 -0.6378
  187SAPI    O221433   6.288   4.783   6.313  0.1672 -1.2610 -0.1984
  187SAPI   HO221434   6.276   4.692   6.343 -0.6406 -1.5577 -1.3604
  187SAPI   C1321435   6.477   4.946   6.306 -0.7124  0.2774  0.3560
  187SAPI    H321436   6.588   4.950   6.301 -0.6599  1.3968  1.6947
  187SAPI    O321437   6.460   4.985   6.443  0.3518 -0.0467 -0.6699
  187SAPI   HO321438   6.366   4.984   6.460  0.4418 -1.8132 -0.0180
  187SAPI   C1421439   6.419   5.043   6.200 -0.1080  1.2296 -0.0313
  187SAPI    H421440   6.310   5.044   6.224  0.2185  0.7089  1.5505
  187SAPI    O421441   6.461   5.176   6.227  0.4065  0.1261 -0.1093
  187SAPI   HO421442   6.385   5.226   6.259  2.3454  2.5972  1.0297
  187SAPI   C1521443   6.448   4.989   6.061 -0.3502 -0.3877 -0.4285
  187SAPI    H521444   6.557   5.010   6.057 -0.5914  1.6859  1.6646
  187SAPI    O521445   6.392   5.062   5.954 -0.7359 -0.3220 -0.1448
  187SAPI   HO521446   6.306   5.027   5.931  0.0385 -1.4578 -1.5528
  187SAPI   C1621447   6.403   4.846   6.046  0.0166 -0.1460 -0.3576
  187SAPI    H621448   6.293   4.855   6.048  0.1731  2.7423 -0.2798
  187SAPI    O621449   6.443   4.801   5.916  0.2368  0.1537  0.3470
  187SAPI   HO621450   6.359   4.800   5.869 -0.5918  0.8296  1.7342
  187SAPI   C1121451   6.458   4.747   6.149 -0.5290 -0.4470 -0.4918
  187SAPI    H121452   6.567   4.763   6.143 -0.3332 -0.8822  1.3913
  187SAPI     P21453   6.506   4.490   6.186 -0.2588  0.1209 -0.0397
  187SAPI   O1321454   6.649   4.521   6.161  0.5092  0.4185 -0.6511
  187SAPI   O1421455   6.457   4.357   6.142  0.7918  0.2359 -0.3718
  187SAPI   O1221456   6.413   4.609   6.123  0.2255  0.6555  0.0287
  187SAPI   O1121457   6.479   4.495   6.342 -0.4727 -0.4319  0.4482
  187SAPI    C121458   6.480   4.389   6.439 -0.1145  0.2407 -0.3234
  187SAPI    HA21459   6.525   4.298   6.395 -0.0750 -0.6659  1.5094
  187SAPI    HB21460   6.547   4.420   6.522 -2.0409  1.1665  0.9665
  187SAPI    C221461   6.344   4.351   6.499  0.1259 -1.1329 -0.0975
  187SAPI    HS21462   6.272   4.347   6.415 -0.5708 -0.8685  0.4722
  187SAPI   O2121463   6.311   4.445   6.599  0.0989  0.5157 -0.3812
  187SAPI   C2121464   6.246   4.561   6.551 -0.0928 -0.0404  0.5934
  187SAPI   O2221465   6.186   4.566   6.447  0.1197  0.6753  0.3463
  187SAPI   C2221466   6.250   4.670   6.668  0.6316 -0.2659  0.3276
  187SAPI   H2R21467   6.230   4.615   6.763  0.0680 -0.9154 -0.1484
  187SAPI   H2S21468   6.359   4.690   6.673  0.3720  1.9332 -1.2977
  187SAPI    C321469   6.353   4.214   6.564 -0.4550 -0.5171  0.2934
  187SAPI    HX21470   6.367   4.144   6.479 -1.5369  0.7003 -0.9368
  187SAPI    HY21471   6.257   4.189   6.614  0.9617 -2.7980  2.0411
  187SAPI   O3121472   6.476   4.202   6.640 -0.7331  0.2935 -0.2275
  187SAPI   C3121473   6.454   4.225   6.764 -0.1379  0.0264  0.1434
  187SAPI   O3221474   6.345   4.235   6.817  0.6059  0.2351  0.3975
  187SAPI   C3221475   6.584   4.230   6.841 -0.0874 -0.0252 -0.1899
  187SAPI   H2X21476   6.680   4.256   6.790  1.2325 -2.6608  0.7666
  187SAPI   H2Y21477   6.593   4.124   6.871 -0.1410 -0.4494 -1.5970
  187SAPI   C2321478   6.161   4.801   6.649 -0.8271  0.0913  0.2351
  187SAPI   H3R21479   6.061   4.755   6.637 -0.0146 -1.6165 -0.2916
  187SAPI   H3S21480   6.190   4.858   6.558 -3.1733 -0.2410 -0.7881
  187SAPI   C2421481   6.163   4.897   6.767 -0.2146  0.4763  0.0727
  187SAPI   H4R21482   6.128   4.824   6.843  0.1216 -0.1070 -0.3248
  187SAPI   H4S21483   6.104   4.989   6.747  1.8051  2.1273  1.3858
  187SAPI   C2521484   6.298   4.959   6.800  0.3004 -0.1025 -0.3458
  187SAPI   H5R21485   6.325   5.047   6.740 -1.6504  0.5803 -0.2643
  187SAPI   C2621486   6.390   4.918   6.887  0.0963  0.0036 -0.0406
  187SAPI   H6R21487   6.472   4.990   6.899 -0.9141  1.0048  1.0372
  187SAPI   C2721488   6.393   4.795   6.974 -0.1363  0.1114 -0.3034
  187SAPI   H7R21489   6.314   4.723   6.944 -0.8491  1.0497 -0.7363
  187SAPI   H7S21490   6.360   4.816   7.078 -0.1389 -1.9732  0.1536
  187SAPI   C2821491   6.530   4.725   6.980  1.6710 -0.1006  0.4291
  187SAPI   H8R21492   6.570   4.666   6.896  0.1231 -0.5680 -0.0080
  187SAPI   C2921493   6.616   4.709   7.085  0.0490 -0.3317  0.4391
  187SAPI   H9R21494   6.715   4.678   7.050 -0.0386  1.6623 -1.8922
  187SAPI  C21021495   6.613   4.764   7.229  0.0856 -0.2201 -0.3403
  187SAPI  H10R21496   6.602   4.874   7.218 -3.8024 -0.7149 -3.1831
  187SAPI  H10S21497   6.710   4.738   7.277  0.0719  0.5764  0.1376
  187SAPI  C21121498   6.489   4.726   7.314 -1.1207  0.5234 -0.5473
  187SAPI  H11R21499   6.402   4.687   7.259 -0.5461  1.8650 -2.5176
  187SAPI  C21221500   6.476   4.762   7.445 -0.2770  0.2747 -0.8498
  187SAPI  H12R21501   6.395   4.708   7.498 -0.7152 -1.9262 -3.5098
  187SAPI  C21321502   6.573   4.843   7.523 -0.6901  0.0526 -0.0737
  187SAPI  H13R21503   6.539   4.949   7.528  1.2716  0.7520 -0.3154
  187SAPI  H13S21504   6.679   4.835   7.490  0.2929 -2.7158  3.2176
  187SAPI  C21421505   6.585   4.776   7.663  0.1562  0.6556  0.8580
  187SAPI  H14R21506   6.586   4.666   7.657 -0.4849  0.6937 -0.3467
  187SAPI  C21521507   6.595   4.840   7.786 -0.1477 -0.7945  0.2291
  187SAPI  H15R21508   6.616   4.788   7.880  0.1461  1.6356  1.6121
  187SAPI  C21621509   6.595   4.990   7.802 -0.1639 -0.1051  0.0805
  187SAPI  H16R21510   6.501   5.028   7.847 -0.7287 -2.1901  0.7342
  187SAPI  H16S21511   6.605   5.049   7.708 -0.0794  0.8061  0.6468
  187SAPI  C21721512   6.719   5.044   7.891  0.4689  0.1860  0.3374
  187SAPI  H17R21513   6.697   5.153   7.889 -0.2782  0.0469 -1.5875
  187SAPI  H17S21514   6.812   5.028   7.832 -0.9265  0.0386 -1.9479
  187SAPI  C21821515   6.708   4.995   8.034  0.4559 -0.0308 -0.4009
  187SAPI  H18R21516   6.802   5.011   8.091  1.0066 -2.8177 -0.3643
  187SAPI  H18S21517   6.691   4.885   8.035  1.6263 -0.2357 -0.7230
  187SAPI  C21921518   6.600   5.053   8.128  0.2332  0.1138 -0.1238
  187SAPI  H19R21519   6.518   5.052   8.053 -0.2259 -1.2844  0.3606
  187SAPI  H19S21520   6.628   5.158   8.150  1.7902  0.2208 -2.3212
  187SAPI  C22021521   6.550   4.972   8.249 -0.7175  0.4394 -0.1426
  187SAPI  H20R21522   6.448   4.996   8.285 -0.6134 -3.4436  3.4192
  187SAPI  H20S21523   6.616   4.992   8.336 -3.2224  1.3909  1.6588
  187SAPI  H20T21524   6.547   4.864   8.224  0.1552 -0.3299  2.7400
  187SAPI   C3321525   6.560   4.326   6.957  0.3833  0.2282  0.7693
  187SAPI   H3X21526   6.506   4.419   6.927 -0.8311 -0.3100  1.2318
  187SAPI   H3Y21527   6.663   4.354   6.986  1.6639 -0.1022 -2.9003
  187SAPI   C3421528   6.506   4.253   7.082  0.2321  0.0522 -0.3096
  187SAPI   H4X21529   6.564   4.165   7.116 -2.0319 -1.6686 -0.6691
  187SAPI   H4Y21530   6.406   4.218   7.048  1.0093 -2.0398 -0.5865
  187SAPI   C3521531   6.493   4.346   7.201  0.3067  1.0037 -0.4689
  187SAPI   H5X21532   6.452   4.445   7.175  1.0209  1.7824  1.1926
  187SAPI   H5Y21533   6.599   4.355   7.235 -0.0933 -2.1371  2.1179
  187SAPI   C3621534   6.419   4.278   7.311  1.0628  0.7956 -0.4380
  187SAPI   H6X21535   6.471   4.182   7.333  2.0143  1.5632  0.8179
  187SAPI   H6Y21536   6.324   4.235   7.274  0.3440  0.6966  1.4529
  187SAPI   C3721537   6.412   4.346   7.454 -0.1526 -0.1922  0.0726
  187SAPI   H7X21538   6.332   4.423   7.448  1.0552  1.2728  1.5920
  187SAPI   H7Y21539   6.503   4.408   7.468 -0.4238  0.4948 -1.0840
  187SAPI   C3821540   6.387   4.250   7.573 -0.4870 -0.3533 -0.1006
  187SAPI   H8X21541   6.482   4.193   7.584 -0.0095  0.4819  0.1681
  187SAPI   H8Y21542   6.308   4.172   7.560 -0.2817 -0.3775 -1.3662
  187SAPI   C3921543   6.379   4.324   7.708 -0.0210  0.0646 -0.6636
  187SAPI   H9X21544   6.331   4.258   7.784 -0.2810  0.1449 -0.7579
  187SAPI   H9Y21545   6.313   4.412   7.694  1.2931  1.4791  1.4013
  187SAPI  C31021546   6.521   4.368   7.756 -0.1060  0.2689 -0.2086
  187SAPI  H10X21547   6.561   4.449   7.691  2.5494  1.1228  2.2053
  187SAPI  H10Y21548   6.583   4.276   7.761 -0.1011  0.2331 -0.9123
  187SAPI  C31121549   6.505   4.426   7.900  0.0319 -0.1479  0.1108
  187SAPI  H11X21550   6.585   4.498   7.928  0.0501  0.3026 -1.0477
  187SAPI  H11Y21551   6.508   4.337   7.967 -0.3451 -1.9031 -2.1026
  187SAPI  C31221552   6.384   4.514   7.923  0.2948 -0.2105 -0.6263
  187SAPI  H12X21553   6.287   4.473   7.888  1.3783  0.4406 -5.0273
  187SAPI  H12Y21554   6.381   4.604   7.858  1.9004 -1.8907 -3.2586
  187SAPI  C31321555   6.358   4.559   8.068 -0.4649 -0.1990 -0.0066
  187SAPI  H13X21556   6.458   4.582   8.112 -0.6598  0.2753  0.1961
  187SAPI  H13Y21557   6.326   4.465   8.118  1.9943 -1.3162 -0.3774
  187SAPI  C31421558   6.267   4.677   8.089 -0.4159 -0.1777 -0.0822
  187SAPI  H14X21559   6.169   4.659   8.041 -1.7743  3.2946  1.0980
  187SAPI  H14Y21560   6.308   4.766   8.037 -1.5562  0.3884 -0.0382
  187SAPI  C31521561   6.247   4.716   8.238 -0.8751  0.4020 -0.0440
  187SAPI  H15X21562   6.217   4.823   8.236 -3.1341 -0.1909  0.2685
  187SAPI  H15Y21563   6.341   4.708   8.297 -1.4287 -1.2999  0.6834
  187SAPI  C31621564   6.132   4.634   8.300 -0.3370  0.1935 -0.1755
  187SAPI  H16X21565   6.152   4.525   8.312  1.9679  0.3904 -1.6215
  187SAPI  H16Y21566   6.042   4.645   8.235  0.0166 -1.8898 -1.0954
  187SAPI  C31721567   6.117   4.700   8.436  0.6310 -0.5284 -0.0678
  187SAPI  H17X21568   6.010   4.718   8.462  0.8765 -0.7827  1.1736
  187SAPI  H17Y21569   6.161   4.802   8.439 -0.4288 -0.0808  0.9803
  187SAPI  C31821570   6.164   4.619   8.560  0.3481 -0.5243 -1.1728
  187SAPI  H18X21571   6.100   4.528   8.565  1.0616 -0.9789  0.9592
  187SAPI  H18Y21572   6.143   4.678   8.651 -0.0985 -1.4137 -0.6801
  187SAPI  H18Z21573   6.271   4.592   8.554  0.1420 -1.3314 -1.4208
  188SAPI   C1221574   1.759   1.283   6.302  0.0182 -0.5637 -0.2221
  188SAPI    H221575   1.726   1.360   6.228  1.3194  0.1743 -0.0624
  188SAPI    O221576   1.702   1.159   6.252 -0.5563  0.1599  0.2580
  188SAPI   HO221577   1.632   1.184   6.191 -0.5372 -0.0251  0.1566
  188SAPI   C1321578   1.908   1.280   6.299 -0.2475  0.3777  0.3898
  188SAPI    H321579   1.946   1.383   6.316 -0.0282  0.2273  0.8305
  188SAPI    O321580   1.954   1.240   6.162  0.0069 -0.6202 -0.7893
  188SAPI   HO321581   1.917   1.154   6.142 -0.5788 -0.8644  1.0850
  188SAPI   C1421582   1.955   1.182   6.403  0.3827  0.3002  0.2265
  188SAPI    H421583   1.917   1.078   6.389 -0.4315  0.5181  0.7452
  188SAPI    O421584   2.098   1.167   6.395  0.0506 -0.9018 -0.2835
  188SAPI   HO421585   2.116   1.102   6.326  2.4291 -0.7858  0.1745
  188SAPI   C1521586   1.901   1.212   6.542 -0.3795 -0.2462  0.1172
  188SAPI    H521587   1.951   1.308   6.565 -2.0057  0.6996 -0.0984
  188SAPI    O521588   1.950   1.117   6.639  0.4796  0.4466 -0.1516
  188SAPI   HO521589   2.035   1.147   6.671  0.1609  1.1924  0.0041
  188SAPI   C1621590   1.755   1.213   6.541  0.2611 -0.2540 -0.0826
  188SAPI    H621591   1.722   1.109   6.521 -0.0046 -0.4114  1.1159
  188SAPI    O621592   1.707   1.242   6.668 -0.2558  0.5196 -0.3028
  188SAPI   HO621593   1.614   1.224   6.687 -0.3319  1.2697  0.0822
  188SAPI   C1121594   1.711   1.318   6.443 -0.2580 -0.3316  0.5582
  188SAPI    H121595   1.761   1.414   6.464 -1.4739  0.9029 -1.7926
  188SAPI     P21596   1.497   1.482   6.405 -0.3183  0.0598 -0.3940
  188SAPI   O1321597   1.383   1.460   6.313 -0.2978  0.0666 -0.5246
  188SAPI   O1421598   1.598   1.584   6.355  0.2134 -0.5356  0.2440
  188SAPI   O1221599   1.574   1.336   6.438  0.4784  0.0355 -0.1121
  188SAPI   O1121600   1.444   1.534   6.544 -0.5833  0.3969  0.5010
  188SAPI    C121601   1.376   1.449   6.639  0.0529 -0.0112  0.0589
  188SAPI    HA21602   1.324   1.364   6.590 -2.6931  1.7162 -0.2166
  188SAPI    HB21603   1.445   1.405   6.714 -2.1940 -0.2797  2.0703
  188SAPI    C221604   1.272   1.529   6.724  0.4766 -0.1951  0.1170
  188SAPI    HS21605   1.225   1.609   6.663 -0.6954  1.4390  2.9481
  188SAPI   O2121606   1.344   1.584   6.835  0.4528  0.5434  0.5527
  188SAPI   C2121607   1.312   1.701   6.879  0.7443  0.2820  0.0346
  188SAPI   O2221608   1.210   1.763   6.845 -0.6359 -0.4187 -0.5164
  188SAPI   C2221609   1.401   1.734   6.997  0.7327  0.1782  0.1470
  188SAPI   H2R21610   1.442   1.638   7.035 -0.5190 -0.4249  0.0119
  188SAPI   H2S21611   1.486   1.795   6.957  0.3592 -0.2026 -1.2810
  188SAPI    C321612   1.157   1.433   6.774  0.5994  0.3190  0.3348
  188SAPI    HX21613   1.204   1.353   6.836  2.7155  0.6435 -0.7501
  188SAPI    HY21614   1.117   1.379   6.685  0.6337 -1.9226  1.5920
  188SAPI   O3121615   1.047   1.489   6.843  0.8674 -0.1516 -0.3997
  188SAPI   C3121616   0.952   1.549   6.766  1.1361  0.7508  0.4104
  188SAPI   O3221617   0.955   1.559   6.648 -0.0489  0.4815  0.4287
  188SAPI   C3221618   0.841   1.592   6.863  0.2056  0.7691  0.4302
  188SAPI   H2X21619   0.785   1.501   6.891  0.1297  0.0765 -1.7653
  188SAPI   H2Y21620   0.777   1.661   6.803  1.0619  2.0906  0.9798
  188SAPI   C2321621   1.324   1.813   7.098 -0.0056  0.1738 -0.0647
  188SAPI   H3R21622   1.234   1.760   7.137  0.1715 -1.9237 -2.2911
  188SAPI   H3S21623   1.302   1.911   7.051  0.8625  0.2175 -0.3918
  188SAPI   C2421624   1.413   1.842   7.224 -0.0354  0.0159 -0.0281
  188SAPI   H4R21625   1.366   1.930   7.272 -2.3668 -1.6845  1.0090
  188SAPI   H4S21626   1.514   1.866   7.185  0.5227  1.5686  2.1692
  188SAPI   C2521627   1.414   1.721   7.322  0.1465 -0.0973 -1.3079
  188SAPI   H5R21628   1.439   1.625   7.274 -0.1000 -1.0219  0.3251
  188SAPI   C2621629   1.380   1.717   7.457 -0.1741  0.0372  0.1745
  188SAPI   H6R21630   1.371   1.620   7.508  0.0268  0.5053  1.1150
  188SAPI   C2721631   1.325   1.847   7.523  0.2621  0.2668 -0.7387
  188SAPI   H7R21632   1.217   1.855   7.548  0.3754 -1.0775  0.2987
  188SAPI   H7S21633   1.357   1.935   7.463  2.1959  0.5710  0.6569
  188SAPI   C2821634   1.393   1.849   7.660  0.2355 -0.8334  0.5330
  188SAPI   H8R21635   1.487   1.907   7.664 -0.0586  0.0010 -2.5356
  188SAPI   C2921636   1.347   1.795   7.772 -0.4021  0.4269  0.0997
  188SAPI   H9R21637   1.404   1.819   7.863 -1.3933  0.4713  0.7212
  188SAPI  C21021638   1.223   1.714   7.785  0.5146  0.1875  0.3979
  188SAPI  H10R21639   1.196   1.678   7.684 -0.3765  1.4131  0.1708
  188SAPI  H10S21640   1.134   1.771   7.821  0.7142 -0.2751  1.6993
  188SAPI  C21121641   1.249   1.596   7.875 -0.4590 -1.0448  0.2837
  188SAPI  H11R21642   1.225   1.613   7.981  1.1666  0.9330  0.3961
  188SAPI  C21221643   1.297   1.478   7.843 -0.5973  0.0346  0.3506
  188SAPI  H12R21644   1.317   1.407   7.925  0.3311 -0.5900 -0.3935
  188SAPI  C21321645   1.325   1.430   7.705 -0.6481 -0.2830 -1.2062
  188SAPI  H13R21646   1.410   1.487   7.662 -0.0491 -2.6408 -3.4074
  188SAPI  H13S21647   1.246   1.457   7.631  0.3135 -0.1939 -2.2310
  188SAPI  C21421648   1.374   1.289   7.689  0.8360  0.8171 -0.2140
  188SAPI  H14R21649   1.418   1.247   7.781 -2.3829 -2.2292  0.1393
  188SAPI  C21521650   1.365   1.211   7.583 -0.8262  0.7223 -0.2627
  188SAPI  H15R21651   1.401   1.107   7.586 -3.8855 -0.7405 -4.2320
  188SAPI  C21621652   1.303   1.248   7.450 -1.0856  0.7776  0.5686
  188SAPI  H16R21653   1.317   1.357   7.431  1.1414  0.2423 -1.2992
  188SAPI  H16S21654   1.194   1.229   7.455 -0.9647  0.4591  2.8318
  188SAPI  C21721655   1.365   1.170   7.335 -0.8020 -0.4813 -0.1922
  188SAPI  H17R21656   1.349   1.061   7.341 -2.5562 -0.2096  0.5290
  188SAPI  H17S21657   1.474   1.194   7.330 -0.2728 -2.8475 -1.6070
  188SAPI  C21821658   1.312   1.210   7.192 -0.3806  0.0705  0.4428
  188SAPI  H18R21659   1.224   1.143   7.175 -0.4911 -0.1712  1.8451
  188SAPI  H18S21660   1.393   1.175   7.125  0.3062  3.6132 -0.7491
  188SAPI  C21921661   1.300   1.356   7.158  0.1017 -0.2518  0.0671
  188SAPI  H19R21662   1.332   1.362   7.052 -0.0563  1.6452  0.0827
  188SAPI  H19S21663   1.374   1.412   7.219 -1.8627 -0.1724  2.5810
  188SAPI  C22021664   1.160   1.421   7.173 -0.4883 -0.5346  0.3777
  188SAPI  H20R21665   1.143   1.436   7.282  0.6169 -0.0170  0.4904
  188SAPI  H20S21666   1.081   1.368   7.117 -2.3489  2.5177 -0.1295
  188SAPI  H20T21667   1.168   1.525   7.136  0.1979 -0.5672  0.4253
  188SAPI   C3321668   0.892   1.675   6.984 -0.2362  0.1586  0.6359
  188SAPI   H3X21669   0.963   1.747   6.938  0.8717 -0.9782  0.4909
  188SAPI   H3Y21670   0.958   1.608   7.044 -0.1683 -1.1270 -0.8355
  188SAPI   C3421671   0.778   1.726   7.087 -0.0913  0.0028 -0.1221
  188SAPI   H4X21672   0.713   1.636   7.098  1.0138 -1.1883 -2.4901
  188SAPI   H4Y21673   0.720   1.803   7.031  1.0492  0.1234 -1.1793
  188SAPI   C3521674   0.820   1.786   7.219 -0.1870 -0.6326 -0.2563
  188SAPI   H5X21675   0.732   1.825   7.273 -2.2036 -4.4025 -0.4722
  188SAPI   H5Y21676   0.890   1.871   7.203 -0.2325 -1.0228 -2.9346
  188SAPI   C3621677   0.898   1.683   7.316 -0.0710  0.1303 -0.2603
  188SAPI   H6X21678   0.964   1.624   7.249  1.2369  0.6380  0.5361
  188SAPI   H6Y21679   0.822   1.607   7.347  1.3999 -2.6080 -2.8311
  188SAPI   C3721680   0.954   1.736   7.455  0.2024  0.1617  0.1845
  188SAPI   H7X21681   1.048   1.786   7.423  0.4961 -1.5414 -1.8293
  188SAPI   H7Y21682   0.986   1.648   7.514  1.0342 -0.4120 -1.0906
  188SAPI   C3821683   0.860   1.829   7.527  0.2464 -0.1442 -0.1479
  188SAPI   H8X21684   0.759   1.783   7.531 -0.3364  1.2025  2.0000
  188SAPI   H8Y21685   0.849   1.921   7.465  1.9747 -0.0747 -0.4050
  188SAPI   C3921686   0.915   1.864   7.669  0.4849  0.6709 -0.7141
  188SAPI   H9X21687   1.026   1.872   7.673  0.4402  0.6624  1.4919
  188SAPI   H9Y21688   0.885   1.777   7.730  0.4020 -0.0956 -1.8329
  188SAPI  C31021689   0.866   1.999   7.728  0.2196 -0.6063 -0.0396
  188SAPI  H10X21690   0.880   2.005   7.838  1.2030  2.2216 -0.2316
  188SAPI  H10Y21691   0.755   1.996   7.728  0.1580  0.7299 -1.1289
  188SAPI  C31121692   0.910   2.127   7.661 -1.3470 -0.5266  0.0415
  188SAPI  H11X21693   0.886   2.223   7.711  1.0566  0.2177 -0.0819
  188SAPI  H11Y21694   0.867   2.145   7.560  0.6630  0.8123 -0.6230
  188SAPI  C31221695   1.063   2.132   7.647  0.5639 -0.3177 -0.2242
  188SAPI  H12X21696   1.097   2.230   7.607  1.7718 -0.8042 -0.4415
  188SAPI  H12Y21697   1.097   2.056   7.574 -0.2169 -1.3792  0.4942
  188SAPI  C31321698   1.135   2.117   7.781 -0.1195  0.2327  0.3591
  188SAPI  H13X21699   1.245   2.125   7.777 -0.0928  1.2781  2.2279
  188SAPI  H13Y21700   1.122   2.010   7.811 -0.9287  0.3270  0.3710
  188SAPI  C31421701   1.088   2.202   7.898  0.3398  0.2984 -0.7947
  188SAPI  H14X21702   0.979   2.211   7.918  0.1256 -1.7630 -0.8245
  188SAPI  H14Y21703   1.108   2.310   7.880 -0.5959  0.5183 -0.5484
  188SAPI  C31521704   1.153   2.162   8.027  0.2215  0.5568 -0.8266
  188SAPI  H15X21705   1.256   2.193   8.056 -1.0377  1.4892  3.3963
  188SAPI  H15Y21706   1.147   2.051   8.030  1.1062  0.5220  1.2238
  188SAPI  C31621707   1.063   2.210   8.145 -0.5558 -0.3887  0.6319
  188SAPI  H16X21708   1.098   2.144   8.227  2.9592 -2.7434 -2.4393
  188SAPI  H16Y21709   0.954   2.199   8.126 -0.3835 -0.0313 -0.6750
  188SAPI  C31721710   1.105   2.354   8.195  0.0319 -0.6700  0.3682
  188SAPI  H17X21711   1.096   2.430   8.115 -1.6945  0.0130  1.1671
  188SAPI  H17Y21712   1.214   2.357   8.218  0.5164  1.2210 -1.8121
  188SAPI  C31821713   1.029   2.405   8.319 -0.0583  0.2391  0.2940
  188SAPI  H18X21714   0.930   2.454   8.304  0.5285  2.0124  1.8879
  188SAPI  H18Y21715   1.094   2.482   8.366 -0.9271  1.8118 -0.9686
  188SAPI  H18Z21716   1.000   2.325   8.390  0.8479 -0.3594  0.0065
  189POPC     N21717   4.453   3.465  11.156 -0.1221 -0.4224 -0.2423
  189POPC   C1221718   4.604   3.479  11.166 -0.7198  0.5081  0.5586
  189POPC  H12A21719   4.648   3.392  11.119 -0.2368  1.4590 -0.8301
  189POPC  H12B21720   4.630   3.464  11.269 -2.5452  0.9775  1.1217
  189POPC   C1321721   4.391   3.566  11.244  0.0204 -0.5794 -0.0847
  189POPC  H13A21722   4.436   3.567  11.342 -0.9941  0.2376  0.3864
  189POPC  H13B21723   4.404   3.664  11.201  0.4054 -0.1636  0.9589
  189POPC  H13C21724   4.288   3.545  11.268  0.2337 -0.6643  0.7614
  189POPC   C1421725   4.406   3.502  11.025  0.0490  0.0670 -0.2167
  189POPC  H14A21726   4.302   3.476  11.006  0.4841 -1.5706 -0.5272
  189POPC  H14B21727   4.442   3.603  11.012 -0.8436  0.3988 -0.1745
  189POPC  H14C21728   4.467   3.447  10.954  2.1293 -1.1593  2.3717
  189POPC   C1521729   4.405   3.329  11.185 -0.0486  0.4818  0.0977
  189POPC  H15A21730   4.447   3.250  11.124  2.2013  2.8066 -1.5545
  189POPC  H15B21731   4.298   3.315  11.176  0.1274 -0.2869 -1.0347
  189POPC  H15C21732   4.437   3.308  11.287 -2.2059 -2.1819  0.3543
  189POPC   C1121733   4.677   3.606  11.129  0.3792 -0.3131 -0.4737
  189POPC  H11A21734   4.784   3.600  11.159  0.4772 -1.3771 -0.9790
  189POPC  H11B21735   4.642   3.699  11.179  1.0819  0.6957 -1.7959
  189POPC     P21736   4.752   3.528  10.889 -0.5543 -0.0940 -0.0771
  189POPC   O1321737   4.670   3.411  10.856 -0.1610  0.1890 -0.0296
  189POPC   O1421738   4.886   3.496  10.945  0.6073  0.2949 -0.6242
  189POPC   O1221739   4.671   3.622  10.990  0.3468  0.9520 -0.1910
  189POPC   O1121740   4.782   3.611  10.755  0.6481  0.3387  0.1440
  189POPC    C121741   4.678   3.691  10.710  0.4347  0.2566  0.1203
  189POPC    HA21742   4.678   3.783  10.771 -0.7311  0.0397  0.4838
  189POPC    HB21743   4.576   3.647  10.705 -0.1081  1.2333  1.7761
  189POPC    C221744   4.709   3.734  10.563  0.0204 -0.6514 -0.4893
  189POPC    HS21745   4.653   3.828  10.546 -0.6022 -0.5351  1.9052
  189POPC   O2121746   4.678   3.635  10.463  0.0350 -0.0038  0.0873
  189POPC   C2121747   4.552   3.619  10.434 -0.8596  0.4575  1.0089
  189POPC   O2221748   4.454   3.682  10.466 -0.2107 -0.3375 -0.5600
  189POPC   C2221749   4.536   3.505  10.323  0.2121 -0.9359 -0.8023
  189POPC   H2R21750   4.429   3.518  10.298  0.4352  1.5613 -0.6452
  189POPC   H2S21751   4.559   3.413  10.382  0.8356  0.5655  1.4186
  189POPC    C321752   4.860   3.769  10.546  0.7839  0.2805 -1.0483
  189POPC    HX21753   4.916   3.673  10.553  0.4456  0.0167 -1.8304
  189POPC    HY21754   4.881   3.828  10.638  0.9456 -1.5268  0.1149
  189POPC   O3121755   4.883   3.836  10.424 -0.0452 -0.1061  0.3843
  189POPC   C3121756   4.963   3.775  10.337 -0.2632  0.0833  0.4434
  189POPC   O3221757   5.009   3.660  10.340 -0.4248 -0.0988 -0.1547
  189POPC   C3221758   4.994   3.870  10.211 -0.8794 -0.7028 -0.2465
  189POPC   H2X21759   5.099   3.899  10.229 -1.1832  0.7072 -0.6142
  189POPC   H2Y21760   4.937   3.965  10.221  1.4595  0.7418 -0.0751
  189POPC   C2321761   4.635   3.534  10.207  0.3253  0.5103  0.4647
  189POPC   H3R21762   4.739   3.542  10.244  1.5111  1.5828 -2.7754
  189POPC   H3S21763   4.615   3.631  10.158 -1.2025 -0.5947 -1.2711
  189POPC   C2421764   4.648   3.420  10.103 -0.1910 -0.4562 -0.3631
  189POPC   H4R21765   4.696   3.330  10.148  0.0890 -0.0246  0.2124
  189POPC   H4S21766   4.707   3.463  10.019 -1.4202 -0.2667 -1.1532
  189POPC   C2521767   4.522   3.379  10.036 -0.1599  0.9385  0.6548
  189POPC   H5R21768   4.475   3.473   9.999  2.4149  1.4828 -1.5322
  189POPC   H5S21769   4.453   3.310  10.088  0.6153 -0.5968 -0.2765
  189POPC   C2621770   4.556   3.288   9.919 -0.1757  0.0881 -0.4116
  189POPC   H6R21771   4.568   3.184   9.956 -0.7282 -0.2143 -1.0603
  189POPC   H6S21772   4.651   3.313   9.869  0.1236 -1.7233 -0.8354
  189POPC   C2721773   4.442   3.294   9.818 -1.0054 -0.0113 -0.0124
  189POPC   H7R21774   4.452   3.393   9.770  0.9725  0.2672  0.8817
  189POPC   H7S21775   4.351   3.285   9.883  0.0460 -1.2377  1.3787
  189POPC   C2821776   4.451   3.180   9.723 -0.2819  0.1547  0.5869
  189POPC   H8R21777   4.434   3.077   9.763  0.5636 -0.0903  0.3541
  189POPC   H8S21778   4.556   3.177   9.687 -1.0053  0.4778 -1.6919
  189POPC   C2921779   4.353   3.186   9.608 -0.8730 -0.7801  0.6211
  189POPC   H9121780   4.255   3.142   9.630 -1.0975 -0.7569 -0.2956
  189POPC  C21021781   4.380   3.251   9.491 -0.3019  0.2699 -0.5807
  189POPC  H10121782   4.298   3.259   9.417 -1.2649  0.6048  0.5042
  189POPC  C21121783   4.516   3.315   9.465  0.1441 -0.3732 -0.0559
  189POPC  H11R21784   4.600   3.253   9.500  0.0572 -0.1577  0.5563
  189POPC  H11S21785   4.532   3.409   9.522 -1.2337  0.0289 -0.2953
  189POPC  C21221786   4.525   3.341   9.317 -0.3672  0.1055  0.3176
  189POPC  H12R21787   4.501   3.246   9.264 -0.4103  0.3539 -0.1135
  189POPC  H12S21788   4.626   3.379   9.291  0.2329 -2.1336 -0.8796
  189POPC  C21321789   4.431   3.447   9.249 -0.3671 -0.5895 -0.3245
  189POPC  H13R21790   4.454   3.540   9.306  3.0906 -1.6855  0.3087
  189POPC  H13S21791   4.328   3.419   9.280  0.4221  0.8321  4.3396
  189POPC  C21421792   4.451   3.471   9.098  0.1702 -0.0346 -0.6497
  189POPC  H14R21793   4.550   3.518   9.080  0.1648  0.1682 -0.1744
  189POPC  H14S21794   4.370   3.537   9.060 -0.5440  1.6648  3.2925
  189POPC  C21521795   4.440   3.339   9.017  0.1581 -0.1899 -0.2192
  189POPC  H15R21796   4.351   3.284   9.054  0.6979 -0.8882  0.0719
  189POPC  H15S21797   4.529   3.273   9.033 -0.3123 -0.9877 -0.8240
  189POPC  C21621798   4.417   3.359   8.860 -0.3939 -0.5740  0.1070
  189POPC  H16R21799   4.339   3.437   8.847 -0.9078 -1.1692 -0.4530
  189POPC  H16S21800   4.374   3.266   8.816 -1.9311  0.1824 -0.0256
  189POPC  C21721801   4.546   3.398   8.794 -0.5726 -0.1361  0.0534
  189POPC  H17R21802   4.586   3.474   8.864 -0.2119  1.2276 -1.5586
  189POPC  H17S21803   4.524   3.446   8.696  1.0765 -0.5428 -0.5570
  189POPC  C21821804   4.636   3.285   8.767  0.3024  0.5164 -0.3457
  189POPC  H18R21805   4.738   3.307   8.730  0.3769 -0.3894 -0.7158
  189POPC  H18S21806   4.596   3.211   8.694  1.2091 -0.3797  0.0227
  189POPC  H18T21807   4.660   3.223   8.857  2.2759  0.9682 -0.5092
  189POPC   C3321808   4.981   3.797  10.081  0.2620 -0.6115 -0.1692
  189POPC   H3X21809   5.023   3.695  10.096 -0.3044 -0.4270  3.8106
  189POPC   H3Y21810   5.032   3.857  10.003 -1.6909  0.3451 -0.7806
  189POPC   C3421811   4.837   3.771  10.038  0.1132  0.3141  0.2460
  189POPC   H4X21812   4.776   3.864  10.044 -2.7050 -1.4918  1.6320
  189POPC   H4Y21813   4.797   3.694  10.107 -1.8110  2.0378  1.1731
  189POPC   C3521814   4.837   3.728   9.897  0.4532 -0.0696  0.1088
  189POPC   H5X21815   4.891   3.632   9.894  0.7870  0.1240 -0.1249
  189POPC   H5Y21816   4.893   3.802   9.835 -0.5389  0.0503 -0.6701
  189POPC   C3621817   4.700   3.699   9.829  0.1718  0.3105  0.2405
  189POPC   H6X21818   4.654   3.797   9.805  1.5567  0.6978 -0.9418
  189POPC   H6Y21819   4.636   3.642   9.900  0.0586 -1.3435 -1.1039
  189POPC   C3721820   4.710   3.626   9.690  0.2964 -0.6379 -0.1863
  189POPC   H7X21821   4.606   3.596   9.663  0.1321 -0.5615  0.3427
  189POPC   H7Y21822   4.770   3.533   9.700 -0.1015 -0.8631  0.1431
  189POPC   C3821823   4.771   3.707   9.582 -0.9000 -0.7264  0.0427
  189POPC   H8X21824   4.879   3.685   9.594 -1.3150 -3.1580 -0.3074
  189POPC   H8Y21825   4.738   3.813   9.594  0.7898 -0.3437  1.7206
  189POPC   C3921826   4.747   3.671   9.432 -0.4425 -0.1427  0.0160
  189POPC   H9X21827   4.638   3.680   9.408  0.1871  0.2334 -3.1903
  189POPC   H9Y21828   4.777   3.568   9.405 -0.9061  0.1744 -1.8452
  189POPC  C31021829   4.807   3.770   9.332 -1.1900 -0.0281  0.0239
  189POPC  H10X21830   4.915   3.747   9.318 -1.3017 -1.7006  1.5303
  189POPC  H10Y21831   4.796   3.878   9.356  3.0709  0.9256 -1.3682
  189POPC  C31121832   4.742   3.753   9.199  0.3159  0.3214  0.5947
  189POPC  H11X21833   4.635   3.774   9.219  0.1661 -0.2778  0.4398
  189POPC  H11Y21834   4.751   3.649   9.159  1.3013  0.7401 -0.3131
  189POPC  C31221835   4.786   3.852   9.092  0.0918 -0.4781 -0.3514
  189POPC  H12X21836   4.883   3.804   9.067  0.4789 -0.2456  0.6417
  189POPC  H12Y21837   4.810   3.956   9.123 -1.7641  0.6191 -2.3942
  189POPC  C31321838   4.692   3.849   8.969 -0.4340  0.5138 -0.6860
  189POPC  H13X21839   4.670   3.740   8.961  2.0433 -0.0263 -0.8834
  189POPC  H13Y21840   4.758   3.866   8.882  1.9398 -0.3290  0.8385
  189POPC  C31421841   4.581   3.959   8.982 -1.2220 -0.1303  0.1607
  189POPC  H14X21842   4.641   4.049   9.004 -1.9816  0.5117 -0.3270
  189POPC  H14Y21843   4.506   3.926   9.058  0.6587 -1.3338  1.5701
  189POPC  C31521844   4.507   3.979   8.851  0.7285 -0.7389  0.9011
  189POPC  H15X21845   4.436   4.060   8.877  0.2878 -1.5545  2.3790
  189POPC  H15Y21846   4.450   3.885   8.841  2.5546 -2.0640  2.2563
  189POPC  C31621847   4.593   4.006   8.730 -0.1763  0.0596 -0.2449
  189POPC  H16X21848   4.539   4.031   8.637 -0.2252  1.7912  0.2253
  189POPC  H16Y21849   4.667   3.925   8.713  1.9633  1.9689 -0.4503
  189POPC  H16Z21850   4.656   4.094   8.754  0.0873  0.2180 -1.4405
  190POPC     N21851   0.771   6.633  11.272 -0.0939 -0.0618 -0.0481
  190POPC   C1221852   0.727   6.708  11.147  0.0610 -0.0403  0.2991
  190POPC  H12A21853   0.813   6.758  11.105 -0.7596 -0.2213 -1.6941
  190POPC  H12B21854   0.661   6.789  11.175  1.4049  1.1689  0.1208
  190POPC   C1321855   0.878   6.535  11.244 -0.4613 -0.3296 -0.3059
  190POPC  H13A21856   0.974   6.582  11.231 -0.4899 -0.7509 -2.3916
  190POPC  H13B21857   0.881   6.449  11.309  2.5125  0.0923  0.2685
  190POPC  H13C21858   0.847   6.493  11.149 -1.4210 -0.3424  0.0061
  190POPC   C1421859   0.831   6.728  11.372  0.1477 -0.2378 -0.4903
  190POPC  H14A21860   0.757   6.805  11.390 -1.5643 -1.5201 -1.7245
  190POPC  H14B21861   0.855   6.671  11.460  0.9614  1.4045  0.4105
  190POPC  H14C21862   0.921   6.769  11.331 -1.1273  1.1948 -1.9972
  190POPC   C1521863   0.649   6.569  11.333 -0.4245 -0.2131 -0.1444
  190POPC  H15A21864   0.585   6.649  11.368  1.1920  0.9287  0.3522
  190POPC  H15B21865   0.684   6.502  11.410  2.3521  1.8303  0.5525
  190POPC  H15C21866   0.598   6.509  11.259  0.3658  1.8678 -2.5077
  190POPC   C1121867   0.665   6.629  11.032 -0.4438  0.2141 -0.1136
  190POPC  H11A21868   0.734   6.553  10.991  2.1538  1.5887  1.4432
  190POPC  H11B21869   0.661   6.718  10.965  4.3328 -0.4138 -1.5620
  190POPC     P21870   0.403   6.672  11.055 -0.2264  0.1776 -0.0603
  190POPC   O1321871   0.398   6.784  11.152 -0.3580  0.5714  0.2512
  190POPC   O1421872   0.289   6.579  11.058  0.7517  1.1325 -1.0224
  190POPC   O1221873   0.534   6.582  11.072  0.4586  0.2568  0.4033
  190POPC   O1121874   0.417   6.735  10.910 -0.1613  0.5090  0.0975
  190POPC    C121875   0.433   6.648  10.798  0.1308  0.4258  0.0909
  190POPC    HA21876   0.362   6.562  10.792 -1.7202  1.9901 -1.8036
  190POPC    HB21877   0.530   6.593  10.798  0.0237  0.1900  1.5705
  190POPC    C221878   0.426   6.718  10.660 -0.7218 -0.1273  0.0720
  190POPC    HS21879   0.408   6.637  10.587  2.1459 -1.5206  0.7936
  190POPC   O2121880   0.550   6.785  10.639 -0.0998  0.7213 -0.1336
  190POPC   C2121881   0.642   6.720  10.576 -0.7771  0.0190 -0.2698
  190POPC   O2221882   0.625   6.613  10.516 -0.6225  0.0192 -0.0847
  190POPC   C2221883   0.769   6.807  10.583 -0.0342  0.4091 -0.1763
  190POPC   H2R21884   0.824   6.775  10.674  0.2289  0.7605 -0.2070
  190POPC   H2S21885   0.735   6.912  10.600 -1.5345 -0.0698 -0.0836
  190POPC    C321886   0.317   6.828  10.658  0.6952  0.0174 -0.3168
  190POPC    HX21887   0.340   6.898  10.741 -1.3477 -1.5080  1.6523
  190POPC    HY21888   0.222   6.778  10.687  1.3837 -0.7522  0.6812
  190POPC   O3121889   0.313   6.895  10.531  0.6868 -0.3995 -0.6651
  190POPC   C3121890   0.267   6.821  10.427  0.1925 -0.7828 -0.0245
  190POPC   O3221891   0.217   6.714  10.441 -0.4300  0.2764  0.8515
  190POPC   C3221892   0.298   6.891  10.293 -0.1062  0.5691 -1.1099
  190POPC   H2X21893   0.404   6.923  10.294 -0.4861  1.8659 -0.7361
  190POPC   H2Y21894   0.257   6.994  10.295 -1.3378  0.1162 -1.7236
  190POPC   C2321895   0.864   6.785  10.468  0.0874 -0.3750 -0.0876
  190POPC   H3R21896   0.873   6.676  10.449  0.6526 -0.1011 -1.4994
  190POPC   H3S21897   0.964   6.803  10.512  0.0839 -3.1322  1.2821
  190POPC   C2421898   0.848   6.885  10.349  0.7642 -0.1794 -0.0209
  190POPC   H4R21899   0.933   6.878  10.278  1.7299 -1.0644  1.1811
  190POPC   H4S21900   0.843   6.993  10.376  1.1153  1.1518 -4.4169
  190POPC   C2521901   0.713   6.865  10.276  0.1844  0.1271  0.1181
  190POPC   H5R21902   0.631   6.851  10.350  1.9046  0.1534  2.1136
  190POPC   H5S21903   0.713   6.771  10.215  2.1080  0.4040 -0.3712
  190POPC   C2621904   0.691   6.988  10.187  0.7568 -0.5971 -0.3905
  190POPC   H6R21905   0.670   7.070  10.259  0.6568 -1.2110  0.2843
  190POPC   H6S21906   0.605   6.975  10.117  0.1075 -1.5622  0.5583
  190POPC   C2721907   0.812   7.010  10.093 -0.1153 -0.1593  0.6941
  190POPC   H7R21908   0.833   6.914  10.040  0.7346  1.9736 -3.1828
  190POPC   H7S21909   0.907   7.047  10.137  1.0852  0.4871 -2.1772
  190POPC   C2821910   0.783   7.121   9.989 -0.5804  0.4091 -0.1042
  190POPC   H8R21911   0.711   7.082   9.914 -1.1136 -0.1339  0.6741
  190POPC   H8S21912   0.873   7.131   9.924  0.0672  0.0148  0.7091
  190POPC   C2921913   0.758   7.257  10.047  0.0454  0.1933 -0.1747
  190POPC   H9121914   0.747   7.255  10.156  1.9075  1.7809  0.0810
  190POPC  C21021915   0.749   7.371   9.981  0.1857 -0.0792  0.1157
  190POPC  H10121916   0.733   7.459  10.046  0.1107  1.6092 -2.0753
  190POPC  C21121917   0.751   7.391   9.831 -0.6726 -0.1111  0.2543
  190POPC  H11R21918   0.651   7.427   9.798 -0.4592  2.1475  1.8867
  190POPC  H11S21919   0.775   7.295   9.779 -3.3867 -1.5555  1.4297
  190POPC  C21221920   0.858   7.493   9.798 -0.3861  0.0665  0.6679
  190POPC  H12R21921   0.959   7.459   9.826  0.3914 -0.0752 -1.9971
  190POPC  H12S21922   0.843   7.588   9.855 -1.4243  1.4766 -1.7574
  190POPC  C21321923   0.892   7.492   9.645  0.2603 -0.2848  0.3366
  190POPC  H13R21924   0.932   7.391   9.622  0.3535  0.0774 -1.2501
  190POPC  H13S21925   0.979   7.559   9.632  0.2330 -0.1663  0.7654
  190POPC  C21421926   0.777   7.537   9.555  0.5691  0.4150 -0.7258
  190POPC  H14R21927   0.762   7.645   9.577 -1.6771 -0.3053  1.7761
  190POPC  H14S21928   0.680   7.484   9.565  0.4941  0.3962 -1.5215
  190POPC  C21521929   0.815   7.515   9.404  0.5013  0.4448  0.2350
  190POPC  H15R21930   0.800   7.410   9.371  3.4322 -0.0049  0.1307
  190POPC  H15S21931   0.924   7.536   9.401  0.3219  1.2849 -0.9216
  190POPC  C21621932   0.735   7.609   9.311  0.7491  0.1721 -0.4342
  190POPC  H16R21933   0.771   7.597   9.207  2.8425 -0.1921  0.2785
  190POPC  H16S21934   0.765   7.714   9.335 -0.4843  0.2478  0.9063
  190POPC  C21721935   0.579   7.593   9.315  0.3724  0.5105  0.2389
  190POPC  H17R21936   0.541   7.627   9.414 -0.2011  1.8348 -0.4109
  190POPC  H17S21937   0.546   7.488   9.299 -1.9729  1.4568 -1.7841
  190POPC  C21821938   0.510   7.672   9.204  0.2726  0.2254  0.3035
  190POPC  H18R21939   0.402   7.675   9.228  0.0446 -0.3664 -0.5869
  190POPC  H18S21940   0.532   7.629   9.104 -0.3990  1.2253 -0.2917
  190POPC  H18T21941   0.555   7.774   9.202  0.8597 -0.0251  0.6866
  190POPC   C3321942   0.256   6.821  10.165  0.0092  0.6074  0.0444
  190POPC   H3X21943   0.252   6.899  10.087  2.3726  0.7471  0.0059
  190POPC   H3Y21944   0.162   6.763  10.175 -0.0829  0.9672  1.5145
  190POPC   C3421945   0.360   6.710  10.124  0.0507  0.2522  0.1241
  190POPC   H4X21946   0.334   6.631  10.197  0.9122 -0.6840 -0.5723
  190POPC   H4Y21947   0.463   6.749  10.133  0.2473  0.4647 -2.4351
  190POPC   C3521948   0.336   6.648   9.982 -0.4303  0.2162  0.0209
  190POPC   H5X21949   0.235   6.601   9.993 -0.7008  1.1507  2.1633
  190POPC   H5Y21950   0.400   6.558   9.972 -1.0822 -0.0980 -1.6515
  190POPC   C3621951   0.350   6.728   9.847  0.2836 -0.4529  0.4702
  190POPC   H6X21952   0.272   6.805   9.834  1.5345  0.6281 -1.0245
  190POPC   H6Y21953   0.345   6.647   9.772  5.1261 -1.2411  0.6432
  190POPC   C3721954   0.484   6.800   9.825 -1.1929 -0.2025 -0.3301
  190POPC   H7X21955   0.553   6.715   9.809  1.9435  1.9005  1.0441
  190POPC   H7Y21956   0.518   6.858   9.914  0.7492 -0.2962 -0.9758
  190POPC   C3821957   0.470   6.899   9.710  0.0608  0.4637 -0.6130
  190POPC   H8X21958   0.441   6.999   9.750 -0.5975  1.3614 -3.1730
  190POPC   H8Y21959   0.397   6.861   9.635 -1.0110  0.7566  0.2531
  190POPC   C3921960   0.614   6.930   9.653  0.5526 -0.1305  0.5652
  190POPC   H9X21961   0.646   6.839   9.598  2.1930 -0.5402  2.1153
  190POPC   H9Y21962   0.681   6.950   9.739 -2.2394  0.9148  2.6287
  190POPC  C31021963   0.612   7.054   9.562  0.1397 -0.0687  0.4402
  190POPC  H10X21964   0.708   7.057   9.506  0.1073  2.1572  0.4105
  190POPC  H10Y21965   0.607   7.149   9.620 -0.4606  1.7749 -2.3965
  190POPC  C31121966   0.510   7.072   9.443 -0.4036  0.7653 -0.4636
  190POPC  H11X21967   0.530   7.168   9.392 -0.3051  1.7735  1.3932
  190POPC  H11Y21968   0.412   7.058   9.494  1.5288 -4.7767  2.6958
  190POPC  C31221969   0.527   6.954   9.344  0.0356 -0.6933  0.5906
  190POPC  H12X21970   0.484   6.863   9.391 -0.1066 -0.9327  0.0037
  190POPC  H12Y21971   0.632   6.922   9.331 -0.0042 -0.2450 -1.0429
  190POPC  C31321972   0.460   6.968   9.208  0.0144 -0.6362  0.1625
  190POPC  H13X21973   0.522   7.032   9.142 -0.9446  0.6082  0.4409
  190POPC  H13Y21974   0.360   7.015   9.219  0.7779  1.1212 -0.0643
  190POPC  C31421975   0.432   6.838   9.137  0.2694 -0.2984 -0.5129
  190POPC  H14X21976   0.329   6.804   9.161  0.3346 -0.2646 -0.1738
  190POPC  H14Y21977   0.498   6.759   9.178 -0.2782 -0.7742 -0.5408
  190POPC  C31521978   0.436   6.843   8.980 -0.3421 -0.1673 -0.1069
  190POPC  H15X21979   0.524   6.906   8.954  0.1308 -0.8418 -0.1406
  190POPC  H15Y21980   0.345   6.890   8.936 -1.6420 -2.1392  0.3595
  190POPC  C31621981   0.444   6.705   8.913  0.4120  0.0110  0.6689
  190POPC  H16X21982   0.401   6.628   8.980  0.6269 -0.0196  0.7743
  190POPC  H16Y21983   0.547   6.671   8.888  0.0356  0.1241 -1.0969
  190POPC  H16Z21984   0.395   6.718   8.815  1.0996  1.0310  0.4327
  191POPC     N21985   3.451   6.690   6.066  0.0211  0.0580  0.1173
  191POPC   C1221986   3.523   6.626   6.187 -0.2544  0.0454  0.0242
  191POPC  H12A21987   3.623   6.664   6.194 -0.3008  0.1741 -0.0182
  191POPC  H12B21988   3.545   6.521   6.170  2.0013  0.3669  0.7098
  191POPC   C1321989   3.420   6.838   6.089  0.6785 -0.4796 -0.0200
  191POPC  H13A21990   3.356   6.849   6.175  0.2128  1.5944 -0.5830
  191POPC  H13B21991   3.506   6.901   6.105 -0.4694  0.6272  2.2364
  191POPC  H13C21992   3.360   6.872   6.006  2.0886  1.1321 -0.4419
  191POPC   C1421993   3.535   6.675   5.945 -0.1665 -0.1021 -0.2261
  191POPC  H14A21994   3.581   6.577   5.950  0.8452  0.4001  0.9030
  191POPC  H14B21995   3.485   6.690   5.850  0.0854 -2.4953 -0.8141
  191POPC  H14C21996   3.618   6.744   5.950 -0.1805 -0.1912  1.6009
  191POPC   C1521997   3.325   6.616   6.050 -0.5768  0.4412  0.2747
  191POPC  H15A21998   3.339   6.510   6.056  0.3145  0.5114 -0.4450
  191POPC  H15B21999   3.270   6.630   5.958 -0.8690 -0.5276  0.2978
  191POPC  H15C22000   3.251   6.638   6.126  0.1352  1.9799  0.5728
  191POPC   C1122001   3.457   6.651   6.324  0.3208  0.2365 -0.1353
  191POPC  H11A22002   3.456   6.758   6.356 -0.0116  0.2337 -0.1277
  191POPC  H11B22003   3.528   6.596   6.389  3.3676  0.4149 -3.0321
  191POPC     P22004   3.298   6.447   6.376 -0.2970  0.3494  0.0829
  191POPC   O1322005   3.415   6.378   6.316 -1.0300  0.1910 -0.3650
  191POPC   O1422006   3.168   6.406   6.316 -0.6205 -0.3460 -0.4853
  191POPC   O1222007   3.320   6.602   6.348  0.0512 -0.4112  0.7763
  191POPC   O1122008   3.286   6.423   6.531 -0.1906 -0.5910  0.0412
  191POPC    C122009   3.203   6.499   6.623  0.0665 -0.5356 -0.2118
  191POPC    HA22010   3.212   6.447   6.721 -0.2809  0.4587  0.3593
  191POPC    HB22011   3.096   6.499   6.593 -0.1671  1.7461  0.4929
  191POPC    C222012   3.257   6.643   6.644 -0.1173 -0.6530 -0.3272
  191POPC    HS22013   3.254   6.703   6.550 -0.0873  0.7012  0.5091
  191POPC   O2122014   3.394   6.626   6.689  0.4826 -0.4008 -0.0286
  191POPC   C2122015   3.461   6.739   6.682  0.3732  0.0378 -0.3404
  191POPC   O2222016   3.428   6.844   6.621 -0.2363  0.5273  0.4783
  191POPC   C2222017   3.587   6.719   6.765  0.8286  0.0009 -0.0160
  191POPC   H2R22018   3.639   6.817   6.769 -1.1401  1.0786  3.2957
  191POPC   H2S22019   3.660   6.653   6.715  2.1521  0.6605  0.9806
  191POPC    C322020   3.172   6.716   6.749 -0.5412  0.7714  0.3891
  191POPC    HX22021   3.068   6.716   6.708  0.4793 -1.0814 -2.5267
  191POPC    HY22022   3.203   6.821   6.763 -3.5467  1.5776  1.9280
  191POPC   O3122023   3.175   6.656   6.878  0.0046  0.1166 -0.2832
  191POPC   C3122024   3.060   6.614   6.918 -0.3639 -0.0003  0.3378
  191POPC   O3222025   2.960   6.597   6.853 -0.0255  0.5776 -0.2988
  191POPC   C3222026   3.079   6.589   7.063 -0.0537 -0.3558 -0.6531
  191POPC   H2X22027   3.164   6.645   7.106 -1.1165 -0.4127  1.6802
  191POPC   H2Y22028   3.093   6.480   7.078 -1.8862 -0.6250 -0.6232
  191POPC   C2322029   3.559   6.663   6.907  0.2892 -0.5835  0.7833
  191POPC   H3R22030   3.656   6.624   6.944  1.2503  3.0986  2.6199
  191POPC   H3S22031   3.479   6.586   6.911 -1.0706  0.7476  0.2695
  191POPC   C2422032   3.511   6.767   7.013  0.3671 -0.0450  0.2158
  191POPC   H4R22033   3.419   6.821   6.982  0.8768  0.5341 -0.3310
  191POPC   H4S22034   3.589   6.841   7.039  0.2236  0.7089 -1.4096
  191POPC   C2522035   3.478   6.687   7.143  0.2091  0.5711 -0.0066
  191POPC   H5R22036   3.570   6.640   7.184 -0.1425  0.3270  0.5232
  191POPC   H5S22037   3.403   6.611   7.114 -0.5518  1.3700 -0.1776
  191POPC   C2622038   3.402   6.772   7.255  0.5201  0.4106  0.2098
  191POPC   H6R22039   3.323   6.833   7.207 -1.5140  0.2836  3.1702
  191POPC   H6S22040   3.481   6.837   7.299  1.0957 -1.6919  2.5578
  191POPC   C2722041   3.337   6.685   7.367 -0.2537 -0.6189  0.3316
  191POPC   H7R22042   3.248   6.630   7.330  0.2310 -1.0489 -0.2068
  191POPC   H7S22043   3.290   6.759   7.435 -0.8370  1.9980 -2.6590
  191POPC   C2822044   3.438   6.611   7.457 -0.1717 -0.0226  0.6469
  191POPC   H8R22045   3.502   6.545   7.395 -0.7570  0.7840 -0.8605
  191POPC   H8S22046   3.377   6.543   7.521  0.5021 -0.8950  0.3817
  191POPC   C2922047   3.524   6.698   7.542  0.2902 -0.7112  0.4722
  191POPC   H9122048   3.592   6.763   7.484  0.3338 -2.0684 -1.0851
  191POPC  C21022049   3.513   6.727   7.672  0.2533 -0.0613  0.0996
  191POPC  H10122050   3.585   6.799   7.713  1.0175 -1.2852  0.9823
  191POPC  C21122051   3.416   6.657   7.764 -0.3068  0.5355  0.6228
  191POPC  H11R22052   3.475   6.638   7.856  1.5012 -1.7951 -0.8752
  191POPC  H11S22053   3.400   6.551   7.733  0.0608  0.3765  0.9724
  191POPC  C21222054   3.287   6.731   7.800  0.1650  0.4971  0.1749
  191POPC  H12R22055   3.252   6.686   7.895 -0.8756 -2.1813 -1.3630
  191POPC  H12S22056   3.213   6.737   7.717  1.2510  0.6975 -0.8072
  191POPC  C21322057   3.308   6.883   7.825  0.5993 -0.1627 -0.4140
  191POPC  H13R22058   3.341   6.937   7.734 -2.3440  4.1415  0.7443
  191POPC  H13S22059   3.390   6.895   7.899  1.2412 -0.8634 -1.0057
  191POPC  C21422060   3.183   6.962   7.873 -0.1829 -0.2974  0.3948
  191POPC  H14R22061   3.127   6.913   7.956  1.5007 -0.5929  1.4022
  191POPC  H14S22062   3.124   6.972   7.780  2.1236  3.8995 -0.8849
  191POPC  C21522063   3.220   7.103   7.914 -0.2469  0.2952  0.5465
  191POPC  H15R22064   3.251   7.167   7.829 -1.5168  1.5786  1.0076
  191POPC  H15S22065   3.302   7.105   7.989  1.2070 -2.1617 -0.8745
  191POPC  C21622066   3.107   7.178   7.972  0.1055  0.4671  0.5323
  191POPC  H16R22067   3.078   7.124   8.064  0.9287 -1.2450 -0.1686
  191POPC  H16S22068   3.024   7.178   7.897  3.1107  2.6426 -3.1407
  191POPC  C21722069   3.139   7.329   7.992 -0.4186  0.7457 -0.4306
  191POPC  H17R22070   3.189   7.360   7.898 -0.8957 -2.4783 -1.8643
  191POPC  H17S22071   3.213   7.330   8.075  0.3833 -1.7444 -1.0184
  191POPC  C21822072   3.019   7.425   8.006 -0.0772  0.0672 -0.6510
  191POPC  H18R22073   2.947   7.423   7.921 -0.3248  0.0535 -0.4436
  191POPC  H18S22074   3.058   7.529   8.012  0.2270 -0.0253 -0.9786
  191POPC  H18T22075   2.967   7.401   8.101  2.1682  1.5976  1.0782
  191POPC   C3322076   2.954   6.632   7.141 -0.4375 -0.1147  0.8325
  191POPC   H3X22077   2.861   6.606   7.086  1.0790 -1.5024 -1.2375
  191POPC   H3Y22078   2.948   6.742   7.151  1.0185 -0.1371  2.4822
  191POPC   C3422079   2.952   6.569   7.280  0.4728 -0.0728 -0.2566
  191POPC   H4X22080   3.042   6.582   7.345 -0.4055 -1.9913  1.4724
  191POPC   H4Y22081   2.946   6.460   7.257 -0.0416 -0.2942  0.8384
  191POPC   C3522082   2.836   6.612   7.377 -0.0041  0.2343  0.3405
  191POPC   H5X22083   2.737   6.619   7.326  0.6733 -1.8209 -1.4233
  191POPC   H5Y22084   2.857   6.708   7.428  1.1707 -0.5379  1.3827
  191POPC   C3622085   2.815   6.516   7.494 -0.7832  0.3291 -0.2437
  191POPC   H6X22086   2.810   6.413   7.453  2.0277 -0.1807  0.4570
  191POPC   H6Y22087   2.720   6.537   7.549 -0.5500 -0.3808  0.4441
  191POPC   C3722088   2.927   6.507   7.604  0.4412 -0.5313 -0.0103
  191POPC   H7X22089   2.942   6.601   7.662 -1.3938 -0.6819  0.8165
  191POPC   H7Y22090   3.027   6.493   7.559  0.7281 -0.5592  0.6167
  191POPC   C3822091   2.887   6.408   7.719 -0.0765  0.6176  0.0532
  191POPC   H8X22092   2.863   6.309   7.676  1.6257  0.8778 -1.6656
  191POPC   H8Y22093   2.796   6.446   7.769  0.7185  0.3762  1.7375
  191POPC   C3922094   2.983   6.372   7.833  0.2413  0.5060  0.7365
  191POPC   H9X22095   3.080   6.335   7.795 -0.8239  0.3947 -2.1663
  191POPC   H9Y22096   2.951   6.278   7.885  1.7499 -0.8355 -0.6462
  191POPC  C31022097   3.003   6.490   7.929 -0.5478 -0.2252  0.0327
  191POPC  H10X22098   2.912   6.523   7.984  0.1233 -0.0208  1.0443
  191POPC  H10Y22099   3.020   6.585   7.873 -3.3043  0.4957  0.2304
  191POPC  C31122100   3.112   6.459   8.028  0.1308  0.5586  0.1870
  191POPC  H11X22101   3.205   6.447   7.969 -0.4873 -0.1146 -0.6775
  191POPC  H11Y22102   3.084   6.363   8.076  1.8994  0.0048  0.1943
  191POPC  C31222103   3.142   6.564   8.132  0.3076  0.1910 -0.0419
  191POPC  H12X22104   3.067   6.578   8.213 -0.6067  2.1158 -1.1424
  191POPC  H12Y22105   3.136   6.668   8.093 -2.6027 -0.0159 -0.3940
  191POPC  C31322106   3.279   6.534   8.196  0.2059  0.2563 -0.4256
  191POPC  H13X22107   3.357   6.562   8.122  0.8649  2.6326  1.0700
  191POPC  H13Y22108   3.287   6.426   8.223  2.5809  0.5297  0.1710
  191POPC  C31422109   3.302   6.623   8.322 -0.3397  0.0402 -0.2472
  191POPC  H14X22110   3.221   6.629   8.398  1.1919  3.4893  1.3520
  191POPC  H14Y22111   3.298   6.730   8.290 -1.0530 -0.0940 -0.6287
  191POPC  C31522112   3.439   6.608   8.391 -0.0519  0.0369 -0.2158
  191POPC  H15X22113   3.510   6.637   8.312  0.9007  0.1004  0.6409
  191POPC  H15Y22114   3.460   6.508   8.435 -2.5289 -0.1501  0.7480
  191POPC  C31622115   3.463   6.712   8.500  0.4991  0.0035 -0.1171
  191POPC  H16X22116   3.377   6.707   8.570  0.4329 -0.5166 -0.2345
  191POPC  H16Y22117   3.464   6.811   8.449 -1.3415 -0.0481 -0.3175
  191POPC  H16Z22118   3.563   6.714   8.548  1.8678  0.6290 -2.7812
  192POPC     N22119   2.674   3.446   6.059 -0.3060 -0.6287 -0.3369
  192POPC   C1222120   2.771   3.333   6.054  0.2201 -0.0949 -0.2381
  192POPC  H12A22121   2.847   3.344   5.978  1.8454 -2.0709  1.0047
  192POPC  H12B22122   2.719   3.240   6.034  0.0960 -0.1208  0.2104
  192POPC   C1322123   2.574   3.426   6.171  0.8666 -0.7818  0.5079
  192POPC  H13A22124   2.494   3.359   6.144 -0.7137  0.7637  1.1487
  192POPC  H13B22125   2.619   3.390   6.262  0.2200  1.3103  1.7246
  192POPC  H13C22126   2.525   3.521   6.184  0.3037 -0.8592 -0.8379
  192POPC   C1422127   2.748   3.577   6.091 -0.0851 -1.2473 -0.1613
  192POPC  H14A22128   2.712   3.660   6.032  2.9110  0.3422  0.0723
  192POPC  H14B22129   2.744   3.611   6.194 -0.5287 -0.5976 -0.3887
  192POPC  H14C22130   2.852   3.559   6.069 -0.2679 -1.5594 -0.7850
  192POPC   C1522131   2.603   3.458   5.931  0.3645 -0.6346  0.2782
  192POPC  H15A22132   2.659   3.486   5.843  0.9698  0.8092  1.0900
  192POPC  H15B22133   2.527   3.535   5.941  1.9940  1.3945 -1.8434
  192POPC  H15C22134   2.547   3.367   5.921  0.9923 -1.0265  0.3225
  192POPC   C1122135   2.844   3.297   6.190  0.8937  0.2136  0.0338
  192POPC  H11A22136   2.881   3.384   6.247  0.3994  0.4155  0.0475
  192POPC  H11B22137   2.933   3.236   6.161  0.0574 -0.1336 -1.9952
  192POPC     P22138   2.741   3.063   6.251 -0.2692 -0.3641  0.0942
  192POPC   O1322139   2.851   3.004   6.169 -0.4162 -0.0374 -0.7948
  192POPC   O1422140   2.608   3.051   6.191  0.1706  0.3395  0.1578
  192POPC   O1222141   2.765   3.217   6.280  0.2958  0.4200  0.2865
  192POPC   O1122142   2.750   2.995   6.393 -0.2468 -0.3010 -0.2086
  192POPC    C122143   2.862   3.016   6.477 -0.1918 -0.1490  0.7374
  192POPC    HA22144   2.903   3.118   6.465 -0.1361 -0.0947  1.3691
  192POPC    HB22145   2.945   2.949   6.445  0.3408  1.4640 -1.4859
  192POPC    C222146   2.837   2.990   6.624 -0.0658  0.0534  0.4125
  192POPC    HS22147   2.816   2.882   6.639 -2.4469 -0.0652 -2.9413
  192POPC   O2122148   2.722   3.069   6.670  0.1919 -0.1089  0.0195
  192POPC   C2122149   2.627   3.004   6.738 -0.4815 -0.0866  0.3848
  192POPC   O2222150   2.641   2.895   6.785  0.0183  0.5283 -0.0891
  192POPC   C2222151   2.510   3.096   6.743  0.6583 -0.3563 -0.2060
  192POPC   H2R22152   2.445   3.087   6.653  0.5281  0.0676 -0.1547
  192POPC   H2S22153   2.548   3.200   6.751  0.1567  0.2218 -3.6769
  192POPC    C322154   2.964   3.028   6.718  0.2441  0.7325  0.6248
  192POPC    HX22155   2.978   3.133   6.686  0.8537  0.7356  0.8916
  192POPC    HY22156   3.053   2.967   6.690 -0.2482 -0.3534  1.3438
  192POPC   O3122157   2.935   3.011   6.860 -0.0590  0.5433  0.2687
  192POPC   C3122158   2.948   2.884   6.904 -0.1775  0.0910  0.3066
  192POPC   O3222159   2.982   2.789   6.832 -0.0342 -0.6800 -0.6056
  192POPC   C3222160   2.926   2.866   7.056 -0.0042 -0.0018 -0.2326
  192POPC   H2X22161   2.919   2.969   7.097 -0.7586 -0.1900  0.1294
  192POPC   H2Y22162   3.023   2.822   7.089  0.8527  0.9570 -1.3727
  192POPC   C2322163   2.420   3.061   6.862 -0.1171  0.1106 -0.0781
  192POPC   H3R22164   2.406   2.950   6.865  3.2722 -0.4150  0.1853
  192POPC   H3S22165   2.318   3.102   6.849  0.4838  1.7495  0.1600
  192POPC   C2422166   2.484   3.115   6.990  0.3185 -0.9386  0.1980
  192POPC   H4R22167   2.510   3.222   6.979 -1.5394 -0.4584  0.2086
  192POPC   H4S22168   2.575   3.057   7.015  0.7062 -0.4404 -0.0570
  192POPC   C2522169   2.385   3.110   7.110  0.5019 -0.2295  0.0730
  192POPC   H5R22170   2.379   3.001   7.131  0.2203  0.0683  1.7254
  192POPC   H5S22171   2.285   3.148   7.081  0.7222 -0.5519 -1.1435
  192POPC   C2622172   2.427   3.167   7.249  0.8625 -0.7991  0.0664
  192POPC   H6R22173   2.347   3.152   7.325 -1.7650 -0.3214 -2.4460
  192POPC   H6S22174   2.434   3.278   7.250  0.4808 -0.7780  0.8535
  192POPC   C2722175   2.538   3.088   7.310  0.3972 -0.4828 -0.5031
  192POPC   H7R22176   2.603   3.035   7.237 -1.6479 -0.3752 -2.5013
  192POPC   H7S22177   2.502   2.993   7.356  2.4916 -2.2429 -2.2643
  192POPC   C2822178   2.619   3.174   7.418 -0.1981 -0.1541 -0.1209
  192POPC   H8R22179   2.685   3.244   7.361 -0.1298  0.2773  0.4764
  192POPC   H8S22180   2.678   3.101   7.478  0.4858  1.5606  1.3821
  192POPC   C2922181   2.529   3.254   7.512 -0.2841  0.2520  0.2662
  192POPC   H9122182   2.495   3.346   7.461  3.7259  1.0936 -1.3392
  192POPC  C21022183   2.483   3.226   7.631  0.2113 -0.1560 -0.3803
  192POPC  H10122184   2.425   3.300   7.688  1.7755  1.2069 -0.5127
  192POPC  C21122185   2.518   3.097   7.712 -0.0543 -0.1035  0.1050
  192POPC  H11R22186   2.577   3.023   7.654 -1.3709 -0.5493 -0.7023
  192POPC  H11S22187   2.433   3.029   7.732 -0.1738 -0.6138 -1.9192
  192POPC  C21222188   2.595   3.129   7.838  0.0628  0.5842 -0.1948
  192POPC  H12R22189   2.551   3.221   7.882 -0.5114  0.7576 -1.1143
  192POPC  H12S22190   2.702   3.149   7.816  0.3347 -0.5446  0.0271
  192POPC  C21322191   2.589   3.008   7.945 -0.3218  0.5655  0.3886
  192POPC  H13R22192   2.622   2.912   7.899 -1.1936  0.0602  0.7928
  192POPC  H13S22193   2.483   2.986   7.970  0.0271 -3.1663 -0.8619
  192POPC  C21422194   2.658   3.032   8.081  0.0696  0.7239  0.0296
  192POPC  H14R22195   2.617   3.123   8.130  2.1678  1.2141  0.9892
  192POPC  H14S22196   2.768   3.048   8.075  0.1153  0.2316 -0.6198
  192POPC  C21522197   2.627   2.913   8.174 -0.0454 -0.0186  0.6743
  192POPC  H15R22198   2.648   2.818   8.120 -0.5833 -0.7653  1.7405
  192POPC  H15S22199   2.519   2.923   8.198 -1.1112  0.1042 -3.3991
  192POPC  C21622200   2.712   2.909   8.304  0.0350  0.2751  0.0377
  192POPC  H16R22201   2.688   3.001   8.361  0.7323 -0.3323  1.3578
  192POPC  H16S22202   2.818   2.931   8.281 -0.0954  1.5965  0.6458
  192POPC  C21722203   2.686   2.783   8.382 -0.0624  0.2452 -0.0041
  192POPC  H17R22204   2.590   2.730   8.360 -0.2391 -1.6582  4.3866
  192POPC  H17S22205   2.677   2.817   8.487 -0.7937  3.5509 -1.0095
  192POPC  C21822206   2.805   2.691   8.374 -0.1550  0.4286 -0.2706
  192POPC  H18R22207   2.858   2.663   8.280  0.7376 -0.9137  0.6012
  192POPC  H18S22208   2.768   2.594   8.413  1.9374  0.1014  0.9972
  192POPC  H18T22209   2.876   2.730   8.450 -0.5733 -0.2412  0.4714
  192POPC   C3322210   2.813   2.778   7.111  0.7958  0.3579 -0.0916
  192POPC   H3X22211   2.830   2.675   7.073  0.6831  0.9288 -1.8160
  192POPC   H3Y22212   2.713   2.800   7.068  1.6666  0.6411 -2.1262
  192POPC   C3422213   2.796   2.782   7.259 -0.1950 -0.3072  0.0916
  192POPC   H4X22214   2.696   2.748   7.294  0.1186 -1.1628  0.1841
  192POPC   H4Y22215   2.822   2.886   7.289 -1.4307  0.4780 -1.4700
  192POPC   C3522216   2.887   2.679   7.325 -0.3481 -0.4795 -0.1699
  192POPC   H5X22217   2.988   2.692   7.281  0.5307 -0.1962  1.8359
  192POPC   H5Y22218   2.854   2.578   7.291 -1.1114  0.3572 -2.0125
  192POPC   C3622219   2.874   2.674   7.479 -0.9873  0.7111 -0.5218
  192POPC   H6X22220   2.769   2.648   7.504 -0.3937  0.8167  2.4145
  192POPC   H6Y22221   2.886   2.772   7.531  2.2361  0.4014 -0.5012
  192POPC   C3722222   2.961   2.562   7.538  0.4236 -0.2114  1.0517
  192POPC   H7X22223   3.065   2.586   7.566  0.5200  1.7486 -0.7184
  192POPC   H7Y22224   2.977   2.472   7.475  1.2067  1.1754 -0.8364
  192POPC   C3822225   2.888   2.515   7.662  0.6621 -0.2738  0.0840
  192POPC   H8X22226   2.781   2.486   7.655  0.3116  1.3008 -1.6942
  192POPC   H8Y22227   2.892   2.606   7.725  1.0247 -0.2038 -0.0365
  192POPC   C3922228   2.968   2.412   7.744  0.6331  0.1470 -0.5819
  192POPC   H9X22229   3.073   2.448   7.739  0.3282  0.9788 -1.3475
  192POPC   H9Y22230   2.959   2.313   7.696  1.0359 -0.9398  1.4552
  192POPC  C31022231   2.923   2.410   7.894  0.4367 -0.1825  0.1947
  192POPC  H10X22232   2.846   2.331   7.904 -1.2372  1.2171 -1.0541
  192POPC  H10Y22233   2.863   2.496   7.930  1.7536  0.9479 -0.2056
  192POPC  C31122234   3.049   2.416   7.983 -0.2072 -0.0511  0.2038
  192POPC  H11X22235   3.096   2.516   7.981  1.4336 -0.6894  2.5461
  192POPC  H11Y22236   3.134   2.359   7.939  0.8998  1.2180  0.6138
  192POPC  C31222237   3.017   2.371   8.131  0.2166  0.3470  0.4908
  192POPC  H12X22238   2.986   2.265   8.124  1.0378 -0.1114  2.9029
  192POPC  H12Y22239   2.931   2.429   8.171 -0.3298 -0.9442  1.2321
  192POPC  C31322240   3.144   2.405   8.215 -0.3136  0.2208 -0.3407
  192POPC  H13X22241   3.184   2.502   8.179 -0.7014  0.1141 -1.0851
  192POPC  H13Y22242   3.225   2.334   8.188 -3.3550 -3.3845 -0.9300
  192POPC  C31422243   3.125   2.411   8.368 -0.0073  0.0900 -0.1778
  192POPC  H14X22244   3.036   2.474   8.394 -0.4507 -1.5980  2.8816
  192POPC  H14Y22245   3.216   2.466   8.399  0.8200 -0.4951 -1.4796
  192POPC  C31522246   3.115   2.275   8.440 -0.0881 -0.0082 -0.0965
  192POPC  H15X22247   3.205   2.216   8.414 -1.1152 -2.0905  0.8297
  192POPC  H15Y22248   3.029   2.218   8.398  0.5946 -0.8006 -0.4377
  192POPC  C31622249   3.102   2.280   8.589 -0.2552  0.0458  0.1474
  192POPC  H16X22250   3.188   2.340   8.628 -0.6081 -0.3289  1.5668
  192POPC  H16Y22251   3.104   2.181   8.639  1.5346 -1.1398 -2.0611
  192POPC  H16Z22252   3.015   2.336   8.629 -0.9984 -1.0906  0.1591
  193SOD    SOD22253   2.995   2.410   5.997 -0.1361 -0.1365 -0.0345
  194SOD    SOD22254   0.890   2.231   2.121 -0.4922 -0.0963  0.2674
  195SOD    SOD22255   6.577   1.670  10.728  0.2478  0.1004 -0.0196
  196SOD    SOD22256   2.319   0.197   4.956  0.0814 -0.4954  0.5159
  197SOD    SOD22257   3.571   5.151  16.445 -0.1568 -0.3527  0.3724
  198SOD    SOD22258   4.989   1.657   6.253 -0.0311  0.1658 -0.4000
  199SOD    SOD22259   0.754   0.651   3.385 -0.0958  0.5367  0.1013
  200SOD    SOD22260   4.114   5.689   5.931  0.0149 -0.5111 -0.1281
  201SOD    SOD22261   4.750   3.802   0.991 -0.2610  0.0681 -0.1955
  202SOD    SOD22262   2.653   0.259   2.765  0.2509 -0.2577 -0.0819
  203SOD    SOD22263   2.558   3.805   2.196  0.1325 -0.2729  0.0840
  204SOD    SOD22264   3.378   2.686   2.134  0.3616 -0.4008 -0.1211
  205SOD    SOD22265   3.822   0.477  13.826 -0.2039  0.3710  0.0009
  206SOD    SOD22266   5.114   0.747  15.117 -0.5287  0.4208  0.2217
  207SOD    SOD22267   4.580   5.623  11.367  0.2080  0.5156 -0.2160
  208SOD    SOD22268   0.964   6.363  14.815 -0.2315 -0.4309 -0.1308
  209SOD    SOD22269   3.208   3.888  11.274  0.0457 -0.5273 -0.3090
  210SOD    SOD22270   5.964   0.246  14.512 -0.0954 -0.1572  0.1536
  211SOD    SOD22271   1.147   5.614   5.002  0.1779 -0.5095 -0.0441
  212SOD    SOD22272   0.123   5.443  10.857 -0.3380 -0.4103  0.1558
  213SOD    SOD22273   2.815   6.453  11.356  0.3277 -0.0111  0.5039
  214SOD    SOD22274   2.666   6.326  13.399 -0.2152 -0.3709  0.3109
  215SOD    SOD22275   5.870   2.760  11.868  0.1966 -0.8534  0.0509
  216SOD    SOD22276   0.948   2.894  11.610  0.3317 -0.7427  0.3016
  217SOD    SOD22277   0.244   3.233   6.148  0.1497  0.3010 -0.4009
  218SOD    SOD22278   2.265   5.602   0.667  0.1044 -0.7831 -0.0467
  219SOD    SOD22279   1.806   1.350   4.744  0.0073  0.4021 -0.1740
  220SOD    SOD22280   5.416   0.071  16.290  0.0196 -0.1968  0.1518
  221SOD    SOD22281   6.572   0.667  11.018 -0.0803 -0.4279 -0.1110
  222SOD    SOD22282   4.713   5.373   4.733  0.1798  0.4576 -0.0926
  223SOD    SOD22283   3.882   0.547  10.793  0.1636  0.5721 -0.4837
  224SOD    SOD22284   3.447   0.519   1.381  0.0511  0.2883  0.1756
  225SOD    SOD22285   5.306   6.033   4.763  0.0934 -0.3315  0.2956
  226SOD    SOD22286   4.129   1.486  14.775 -0.1801  0.8358 -0.2559
  227SOD    SOD22287   3.722   6.598  13.746 -0.0951 -1.2026  0.1315
  228SOD    SOD22288   5.847   5.545   4.224 -0.4901  0.3292  0.1292
  229SOD    SOD22289   6.372   4.565  13.709  0.1922 -0.0214 -0.1725
  230SOD    SOD22290   0.208   4.219   2.251 -0.1011  0.1909  0.0872
  231SOD    SOD22291   1.788   2.119   3.464  0.1000 -0.3277 -0.1832
  232SOD    SOD22292   3.344   0.472   1.999  0.5143  0.3516 -0.5609
  233SOD    SOD22293   1.613   5.470  16.433 -0.2333 -0.4085  0.1443
  234SOD    SOD22294   1.602   0.517  10.507  0.1827  0.1773 -0.0319
  235SOD    SOD22295   4.172   6.215   6.538  0.2568 -0.5802  0.4266
  236SOD    SOD22296   6.657   0.223  11.375  0.0674 -0.4121 -0.2104
  237SOD    SOD22297   6.582   2.751  10.699  0.0373  0.3367  0.3393
  238SOD    SOD22298   5.066   6.641   1.823 -0.5047  0.0742 -0.1733
  239SOD    SOD22299   1.176   3.532   6.089  0.2377  0.6684 -0.3308
  240SOD    SOD22300   5.550   6.477  12.558 -0.3837  0.0174 -0.4524
  241SOD    SOD22301   1.055   4.332  14.676  0.3761 -0.5127 -0.3599
  242SOD    SOD22302   5.566   2.790  16.049  0.3625  0.1062  0.4495
  243SOD    SOD22303   3.670   1.972  13.247  0.4593  0.0780 -0.1146
  244SOD    SOD22304   4.893   2.901  15.480  0.3684 -0.5012  0.2773
  245SOD    SOD22305   6.628   5.490   1.875  0.9296  0.8195  0.2883
  246SOD    SOD22306   4.329   1.815  14.992 -0.4996 -0.3934 -0.2984
  247SOD    SOD22307   6.402   3.063  13.103 -0.2220  0.5143  0.1776
  248SOD    SOD22308   4.985   6.144   5.798  0.1218 -0.3012  0.0136
  249SOD    SOD22309   1.876   4.584   5.686  0.0947  0.7755  0.6049
  250SOD    SOD22310   2.003   5.220   4.900 -0.2808 -0.3488 -0.0564
  251SOD    SOD22311   6.205   3.114  15.596  0.6356 -0.3307  0.0419
  252SOD    SOD22312   0.447   1.130  14.862 -0.1807  0.0951  0.2410
  253SOD    SOD22313   5.980   5.022   1.096  0.0424 -0.0317 -0.2135
  254SOD    SOD22314   0.378   6.451  15.959  0.3555 -0.3088 -0.2275
  255SOD    SOD22315   6.053   0.641   6.301 -0.1427  0.3323  0.1951
  256SOD    SOD22316   6.128   3.285   2.575 -0.3045  0.2538 -0.2963
  257SOD    SOD22317   0.019   2.876   1.763  0.3100 -0.1848  0.1160
  258SOD    SOD22318   4.932   4.967  12.369 -0.0053 -0.0952 -0.4576
  259SOD    SOD22319   1.217   5.041   4.064  0.0019  0.0386  0.0055
  260SOD    SOD22320   2.793   5.011   4.286 -0.1551  0.0766  0.0600
  261SOD    SOD22321   2.060   2.849  14.788  0.7797 -0.2405  0.3852
  262SOD    SOD22322   4.421   1.022  13.566 -0.2063 -0.1020 -0.3803
  263SOD    SOD22323   6.702   1.876  15.373  0.1964 -0.0053 -0.0362
  264SOD    SOD22324   0.054   4.879  11.677 -0.1775  0.4822  0.3484
  265SOD    SOD22325   4.844   0.085  15.928  0.1824 -0.1324 -0.1820
  266SOD    SOD22326   3.885   4.750   4.551  0.6013 -0.1430  0.4884
  267SOD    SOD22327   4.987   3.400   2.288 -0.1721  0.0203 -0.5637
  268SOD    SOD22328   2.268   4.855   5.960 -0.3289  0.0185 -0.1188
  269SOD    SOD22329   3.933   4.370  12.194 -0.2865  0.4069  0.2088
  270CLA    CLA22330   2.743   0.057   5.587  0.2734 -0.4126 -0.0099
  271CLA    CLA22331   0.795   4.802   3.540  0.2348  0.1544 -0.0112
  272CLA    CLA22332   1.116   4.554   3.853 -0.2657 -0.3032 -0.1052
  273CLA    CLA22333   5.504   0.226  16.077 -0.1995  0.3788 -0.3892
  274CLA    CLA22334   2.334   2.517  17.008  0.3560  0.2176 -0.3467
  275CLA    CLA22335   0.454   4.100   2.226 -0.2923 -0.1761 -0.0580
  276CLA    CLA22336   3.946   6.255  12.858  0.2471 -0.2117 -0.0073
  277CLA    CLA22337   0.425   5.258  13.399  0.0397 -0.1992  0.3809
  278CLA    CLA22338   3.950   0.179  15.543  0.2748  0.4370  0.2002
  279CLA    CLA22339   6.182   5.622   2.855  0.1821 -0.0109 -0.1113
  280CLA    CLA22340   4.032   3.744   0.396  0.0398 -0.5536 -0.0838
  281CLA    CLA22341   0.744   2.719  14.496 -0.0603  0.1381  0.3762
  282CLA    CLA22342   2.500   4.086  15.320 -0.0017  0.3432 -0.2521
  283CLA    CLA22343   4.547   5.188  13.176 -0.3003  0.4320 -0.2416
  284CLA    CLA22344   5.967   3.379  15.083  0.2876  0.3605 -0.0290
  285CLA    CLA22345   3.844   2.208   5.240 -0.0001 -0.0927  0.2077
  286CLA    CLA22346   0.362   0.429   5.267 -0.3260  0.1372 -0.3485
  287CLA    CLA22347   1.892   1.025   4.315  0.4274 -0.0462  0.1809
  288CLA    CLA22348   3.610   1.396  12.616  0.4881  0.1629  0.0767
  289CLA    CLA22349   3.024   4.804   2.657 -0.0778 -0.2071  0.0637
  290CLA    CLA22350   1.679   3.631   0.984 -0.1944  0.0479  0.0043
  291CLA    CLA22351   5.381   3.586   1.967  0.0367  0.2464 -0.0525
  292CLA    CLA22352   5.058   5.901   0.038  0.2204 -0.1734 -0.3028
  293CLA    CLA22353   0.515   2.819   0.261  0.0324  0.1461  0.2518
  294CLA    CLA22354   6.088   3.092   1.385 -0.1947  0.3517  0.3899
  295CLA    CLA22355   4.382   5.053  15.901 -0.0783  0.0511 -0.2318
  296CLA    CLA22356   1.423   0.125  16.437 -0.0683  0.2196  0.3046
  297CLA    CLA22357   6.023   4.532  14.844 -0.1296 -0.5070  0.3626
  298CLA    CLA22358   0.202   3.135   3.956 -0.2805  0.3411  0.3395
  299CLA    CLA22359   2.639   1.994  13.608  0.0370 -0.3282 -0.5445
  300CLA    CLA22360   0.800   1.414   5.441  0.4064 -0.1342 -0.0142
  301CLA    CLA22361   1.834   5.869   4.140 -0.1744 -0.0727 -0.3133
  302CLA    CLA22362   5.095   5.310   4.111 -0.1585  0.1556 -0.1382
  303CLA    CLA22363   6.080   2.274  17.073  0.4005  0.3488 -0.0220
  304CLA    CLA22364   6.082   5.142   2.019  0.4770 -0.5394 -0.3488
  305CLA    CLA22365   1.287   5.642   1.442  0.0399 -0.3646  0.2002
  306CLA    CLA22366   4.800   1.324   3.518  0.1369 -0.2792  0.2935
  307CLA    CLA22367   6.557   1.759  14.651 -0.4073 -0.4167 -0.1124
  308CLA    CLA22368   4.667   1.284  14.173 -0.4116 -0.0492 -0.1231
  309CLA    CLA22369   2.463   0.165  13.693  0.0749 -0.1419  0.1167
  310CLA    CLA22370   3.330   1.185   2.321 -0.2589 -0.0861 -0.2649
  311CLA    CLA22371   2.592   0.713  14.480  0.1250  0.2322 -0.2268
  312CLA    CLA22372   5.312   2.421  15.776 -0.3260  0.1174  0.1635
  313CLA    CLA22373   0.649   0.729   2.893  0.0162  0.0929 -0.0012
  314CLA    CLA22374   5.375   6.400  11.647 -0.1676 -0.5193  0.1425
  315CLA    CLA22375   4.257   3.671  11.860 -0.7060 -0.2999 -0.0619
  316CLA    CLA22376   3.612   0.694   2.733  0.3072  0.0033  0.0312
  317CLA    CLA22377   5.981   6.639  13.187 -0.3416 -0.1589 -0.0497
  318CLA    CLA22378   3.414   5.580  16.309 -0.2395  0.0202 -0.0402
  319CLA    CLA22379   1.624   3.961  14.874  0.1908 -0.0503  0.4722
  320CLA    CLA22380   5.873   5.141   4.588 -0.5207  0.1634 -0.1896
  321CLA    CLA22381   1.205   3.701  12.793 -0.0942  0.3730  0.0211
  322CLA    CLA22382   6.297   1.419   1.276 -0.5554  0.1985  0.3464
  323TIP3   OH222383   2.096   1.637   3.037 -0.3457 -0.3623 -0.1235
  323TIP3    H122384   2.186   1.657   3.062 -0.0877 -0.7822 -0.6939
  323TIP3    H222385   2.091   1.541   3.037 -1.6473 -0.4002  2.8455
  324TIP3   OH222386   3.511   5.447  15.247 -0.3931  0.6514 -0.4013
  324TIP3    H122387   3.450   5.455  15.174  1.7909  0.6154 -2.3808
  324TIP3    H222388   3.491   5.520  15.305 -2.5184  0.3993 -0.7560
  325TIP3   OH222389   1.070   4.518  17.219 -0.0311 -0.3803  0.5064
  325TIP3    H122390   1.095   4.452  17.155 -0.6300 -0.9616  0.8630
  325TIP3    H222391   1.077   4.473  17.303  0.5593  0.3166  0.8398
  326TIP3   OH222392   2.759   3.240  15.095  0.2461  0.3848  0.3434
  326TIP3    H122393   2.738   3.298  15.168 -0.2629 -0.7669  1.1396
  326TIP3    H222394   2.683   3.246  15.037 -0.5450 -0.6949  1.2284
  327TIP3   OH222395   3.274   4.061  12.598 -0.0467 -0.4540  0.2303
  327TIP3    H122396   3.184   4.044  12.571 -0.7891  1.8847  0.9699
  327TIP3    H222397   3.266   4.105  12.683  1.5802  2.4592 -0.9855
  328TIP3   OH222398   3.685   3.096  14.934 -0.0478  0.1767 -0.0738
  328TIP3    H122399   3.612   3.128  14.882  0.5156  1.8313  0.0915
  328TIP3    H222400   3.749   3.064  14.869 -0.5421 -0.4923 -0.2459
  329TIP3   OH222401   5.178   0.589  10.889  0.3690  0.7123 -0.5096
  329TIP3    H122402   5.126   0.548  10.957 -2.4629  0.7005 -2.5168
  329TIP3    H222403   5.147   0.679  10.885  0.1725  0.6019 -2.0288
  330TIP3   OH222404   5.959   5.646   3.765  0.6195 -0.0728 -0.4631
  330TIP3    H122405   5.915   5.611   3.843 -0.3318  0.4068 -0.7599
  330TIP3    H222406   6.051   5.623   3.777  0.1380 -2.1118 -0.3675
  331TIP3   OH222407   4.223   6.579   2.602 -0.3012  1.0660 -0.3923
  331TIP3    H122408   4.191   6.668   2.586  0.5719  1.4772  0.1029
  331TIP3    H222409   4.149   6.523   2.577 -2.0769  2.0163  2.1990
  332TIP3   OH222410   6.463   1.984  17.094 -0.6055  0.1758  0.2217
  332TIP3    H122411   6.496   1.926  17.163 -1.1941 -0.3750  0.0477
  332TIP3    H222412   6.471   2.072  17.132 -2.8228 -0.2391  1.8304
  333TIP3   OH222413   3.153   4.076  11.430 -0.3037  0.1946 -1.0117
  333TIP3    H122414   3.186   4.165  11.418 -0.0028  0.3926  0.9504
  333TIP3    H222415   3.059   4.088  11.448 -0.3910  0.0596 -1.3763
  334TIP3   OH222416   0.037   5.426  15.921 -0.4390  0.7462 -0.2271
  334TIP3    H122417   0.016   5.469  15.838  2.8505 -0.6719 -1.9618
  334TIP3    H222418   0.132   5.434  15.929 -0.5895  0.3816  3.2165
  335TIP3   OH222419   2.703   3.605   3.956 -0.4938  0.3297  0.0114
  335TIP3    H122420   2.779   3.617   4.012  0.3589 -0.2281 -0.9929
  335TIP3    H222421   2.673   3.694   3.937 -0.1280  0.5503  0.4517
  336TIP3   OH222422   1.941   2.114   3.890 -0.1788 -0.2647  0.1694
  336TIP3    H122423   2.017   2.123   3.833 -0.1212 -1.0391  0.1186
  336TIP3    H222424   1.899   2.032   3.862 -1.9741  0.9428 -0.9335
  337TIP3   OH222425   1.459   2.005   3.011 -0.3971 -0.0468 -0.5619
  337TIP3    H122426   1.432   1.918   3.040  1.1433 -0.1423  0.7801
  337TIP3    H222427   1.546   1.991   2.972  0.0590  0.9168  0.0635
  338TIP3   OH222428   4.657   5.119   4.718 -0.1723 -0.5588  0.5270
  338TIP3    H122429   4.580   5.161   4.681  1.6253  1.0618 -1.7340
  338TIP3    H222430   4.688   5.060   4.648  1.6403  0.2680  0.5720
  339TIP3   OH222431   3.028   2.737  15.453  0.3456 -0.2627 -0.2439
  339TIP3    H122432   2.981   2.820  15.464 -2.2866 -1.7047  0.3679
  339TIP3    H222433   3.119   2.758  15.474 -0.2427  2.4341 -0.0254
  340TIP3   OH222434   5.507   6.062   0.810 -0.4619  0.3161 -0.4277
  340TIP3    H122435   5.582   6.100   0.765 -0.2449 -0.3323 -0.6326
  340TIP3    H222436   5.434   6.122   0.791  0.4177  2.1103  1.5322
  341TIP3   OH222437   4.365   1.420  13.632  0.3391 -0.4728  0.0646
  341TIP3    H122438   4.424   1.490  13.661 -0.2036  0.4576 -0.9864
  341TIP3    H222439   4.418   1.341  13.635  1.1691  0.0814  0.6547
  342TIP3   OH222440   5.602   5.710   5.325  0.0965 -1.2653  0.5893
  342TIP3    H122441   5.654   5.705   5.245 -0.3446  0.1619  0.1863
  342TIP3    H222442   5.643   5.779   5.377 -2.4394  1.3901 -0.6255
  343TIP3   OH222443   1.320   2.207  12.570 -0.4535 -0.4216  0.0596
  343TIP3    H122444   1.249   2.214  12.634  1.0803  0.1060  1.8112
  343TIP3    H222445   1.344   2.298  12.552  0.2056 -0.6069  0.0002
  344TIP3   OH222446   6.349   1.506   0.257  0.0351 -0.1586  0.2847
  344TIP3    H122447   6.438   1.520   0.223  0.5013 -0.3040  1.4084
  344TIP3    H222448   6.312   1.595   0.263 -0.7553 -0.2296 -2.3163
  345TIP3   OH222449   3.404   5.005  11.310 -0.1332  0.3057 -0.5404
  345TIP3    H122450   3.387   5.070  11.241  1.4319 -0.2945 -1.5479
  345TIP3    H222451   3.433   4.927  11.262 -0.8007 -0.7487  0.7200
  346TIP3   OH222452   1.726   5.756   0.615 -0.4719 -0.0237  0.8114
  346TIP3    H122453   1.695   5.677   0.571  0.8160 -0.2462  0.2795
  346TIP3    H222454   1.676   5.827   0.574  0.5347 -0.2507 -0.9080
  347TIP3   OH222455   0.633   1.392  10.434  0.0688  0.0516 -0.2895
  347TIP3    H122456   0.707   1.331  10.440 -0.4465 -0.8315 -2.1158
  347TIP3    H222457   0.620   1.405  10.340  0.3130  3.2429 -0.0034
  348TIP3   OH222458   4.351   4.441   2.105  0.3055 -0.3806  0.2528
  348TIP3    H122459   4.428   4.493   2.127  0.0646  0.2261 -0.3243
  348TIP3    H222460   4.306   4.491   2.037 -0.8732 -0.4711  0.9437
  349TIP3   OH222461   4.338   2.727   3.654 -0.4443 -0.1059 -0.1851
  349TIP3    H122462   4.335   2.806   3.708  1.4463 -0.8143  1.0483
  349TIP3    H222463   4.268   2.672   3.689  0.1178 -0.1490  0.9167
  350TIP3   OH222464   2.632   5.658   2.304  0.6294 -0.6612  0.0960
  350TIP3    H122465   2.698   5.590   2.292  0.8634 -0.5894  0.9564
  350TIP3    H222466   2.681   5.734   2.337  0.0852 -0.6926  1.0036
  351TIP3   OH222467   2.682   4.724  15.640  0.0520 -0.6277  0.4733
  351TIP3    H122468   2.644   4.742  15.554  0.5418 -1.2485  0.1192
  351TIP3    H222469   2.775   4.743  15.630 -0.0675  0.4442  1.2071
  352TIP3   OH222470   4.886   1.915   5.983  0.0284  0.1544  0.2285
  352TIP3    H122471   4.938   1.993   6.002  1.2320 -0.8403  1.0883
  352TIP3    H222472   4.801   1.934   6.022  0.3254  0.9936  0.4984
  353TIP3   OH222473   5.882   1.991   1.691  0.1268  0.0645  0.1283
  353TIP3    H122474   5.852   2.079   1.671  0.1960 -0.2349 -1.3908
  353TIP3    H222475   5.974   2.002   1.715  0.5445  0.2621 -1.4874
  354TIP3   OH222476   5.214   3.183  12.824  0.0324  0.2586 -0.3871
  354TIP3    H122477   5.252   3.164  12.910 -0.8329 -1.2394 -0.3141
  354TIP3    H222478   5.227   3.102  12.774  0.9101  1.2471 -1.8375
  355TIP3   OH222479   4.732   4.928   4.552 -0.5035 -1.1190 -0.2916
  355TIP3    H122480   4.784   4.977   4.488 -1.3563 -0.7881 -0.7528
  355TIP3    H222481   4.689   4.860   4.499 -1.9791 -0.2413 -0.2619
  356TIP3   OH222482   5.566   3.476  10.778  0.0598 -0.3214 -0.1930
  356TIP3    H122483   5.555   3.558  10.729  0.1062 -0.2446 -0.0754
  356TIP3    H222484   5.480   3.434  10.775  0.7264 -1.7394 -2.8781
  357TIP3   OH222485   1.648   0.799  12.660  0.0059  0.5655 -0.0480
  357TIP3    H122486   1.621   0.708  12.644 -2.0876  0.8915  1.2736
  357TIP3    H222487   1.693   0.824  12.579  1.3892 -1.8687 -0.1405
  358TIP3   OH222488   3.607   5.845   5.137  0.5669  0.1144  0.1872
  358TIP3    H122489   3.543   5.840   5.208  1.1452  0.1976  0.7378
  358TIP3    H222490   3.656   5.925   5.156  2.1283 -0.9602  0.9384
  359TIP3   OH222491   3.561   1.904  17.155 -0.2242  0.1031 -0.3503
  359TIP3    H122492   3.632   1.910  17.092  0.5453 -0.1699  0.4665
  359TIP3    H222493   3.561   1.812  17.183 -0.7871  0.1369 -0.2203
  360TIP3   OH222494   4.492   2.498  11.507 -0.4538 -0.9032 -0.0503
  360TIP3    H122495   4.468   2.411  11.475 -0.5047 -0.0886 -2.4233
  360TIP3    H222496   4.422   2.555  11.475  0.7131  0.3438 -0.4642
  361TIP3   OH222497   5.389   5.838   2.857  0.6936 -0.2372  0.1159
  361TIP3    H122498   5.467   5.786   2.839  0.8066 -0.2868  0.7155
  361TIP3    H222499   5.408   5.923   2.818  0.7642 -0.4566 -0.3322
  362TIP3   OH222500   2.161   3.883  15.194  0.3378 -0.3167  0.1324
  362TIP3    H122501   2.170   3.817  15.125 -1.3446  0.8020 -1.2617
  362TIP3    H222502   2.179   3.966  15.149 -3.7163  0.7748  0.1186
  363TIP3   OH222503   4.445   0.352  13.925 -0.2155 -0.4126  0.0621
  363TIP3    H122504   4.480   0.344  14.014 -0.6814 -0.9315  0.2081
  363TIP3    H222505   4.473   0.272  13.881  1.9062  0.7972 -0.9675
  364TIP3   OH222506   0.056   2.203   1.877 -0.1829 -0.0524 -0.5751
  364TIP3    H122507   0.060   2.274   1.941 -0.1444 -0.4230 -0.1579
  364TIP3    H222508  -0.029   2.161   1.895 -0.3134  0.0371 -0.9793
  365TIP3   OH222509   1.243   5.364  12.019  0.3504 -0.0759 -0.5921
  365TIP3    H122510   1.236   5.459  12.019 -0.7303 -0.1364 -1.5515
  365TIP3    H222511   1.164   5.334  11.974 -0.8741 -1.5855  2.3412
  366TIP3   OH222512   6.659   6.651   5.939 -0.0013  0.4100  0.3595
  366TIP3    H122513   6.686   6.640   6.030  0.4577  1.2227  0.3284
  366TIP3    H222514   6.741   6.646   5.889 -0.0955  1.2828  0.1140
  367TIP3   OH222515   0.278   3.129  14.681  0.0256 -0.3405 -0.7023
  367TIP3    H122516   0.227   3.094  14.754 -0.4521 -0.0731 -0.9043
  367TIP3    H222517   0.214   3.142  14.611  0.6689 -1.7450 -1.5984
  368TIP3   OH222518   4.067   0.177   3.787  0.0787  0.1102  0.2828
  368TIP3    H122519   4.117   0.247   3.827 -0.2167  0.2320  0.4426
  368TIP3    H222520   3.982   0.179   3.831 -0.4469  0.5904 -0.7002
  369TIP3   OH222521   2.010   1.421   3.282  0.2710 -0.6159 -0.5174
  369TIP3    H122522   1.919   1.393   3.295  0.4418 -0.7850  0.3323
  369TIP3    H222523   2.024   1.413   3.187 -0.9612  0.5206 -0.8298
  370TIP3   OH222524   0.065   6.773   4.087 -0.4048  0.4576  0.0078
  370TIP3    H122525   0.134   6.745   4.147  0.4630  1.0872 -0.6716
  370TIP3    H222526   0.085   6.865   4.067 -1.4379  0.6585 -0.2077
  371TIP3   OH222527   5.215   4.366   4.176  0.2139  0.7187 -0.0797
  371TIP3    H122528   5.131   4.364   4.223  0.4346 -1.0966  0.3468
  371TIP3    H222529   5.235   4.273   4.161  0.9288  1.1863 -2.4006
  372TIP3   OH222530   6.384   4.466   3.677 -0.2317  0.1191 -0.0766
  372TIP3    H122531   6.460   4.409   3.690  0.5798  1.2633  0.3132
  372TIP3    H222532   6.402   4.510   3.594 -1.4891 -1.1164 -1.0580
  373TIP3   OH222533   1.288   5.614   4.583  0.3091 -0.1586  0.0446
  373TIP3    H122534   1.325   5.700   4.601 -0.6564  0.2404  0.1673
  373TIP3    H222535   1.203   5.632   4.542  0.1485 -1.0509 -0.0434
  374TIP3   OH222536   2.463   1.958   2.719 -0.6999 -0.7244  0.1210
  374TIP3    H122537   2.380   1.983   2.759 -0.3735 -1.6105  1.4236
  374TIP3    H222538   2.457   1.863   2.708 -0.2028 -0.6834 -0.6257
  375TIP3   OH222539   5.948   2.040   2.109 -0.1434  0.4097 -0.4659
  375TIP3    H122540   5.971   2.077   2.023  3.0228  0.2698  0.2023
  375TIP3    H222541   5.976   1.949   2.104  0.6124  0.5472  0.8662
  376TIP3   OH222542   2.967   1.854  12.168  0.2340 -0.9395 -0.7885
  376TIP3    H122543   2.994   1.944  12.189 -0.9800 -0.8455  0.5332
  376TIP3    H222544   2.974   1.807  12.251  0.8998 -2.0985 -1.4770
  377TIP3   OH222545   0.331   5.452  15.112  0.0543  0.0147 -0.0556
  377TIP3    H122546   0.288   5.535  15.132  1.1524  0.4006  0.8179
  377TIP3    H222547   0.418   5.460  15.151 -0.0557 -1.8300  0.6914
  378TIP3   OH222548   2.087   6.711   4.295 -0.2924  0.0842 -0.4321
  378TIP3    H122549   2.051   6.640   4.241 -0.7958  0.4761 -0.6199
  378TIP3    H222550   2.116   6.667   4.375 -1.8488 -0.1633  0.0329
  379TIP3   OH222551   5.154   5.336   5.205 -0.1625  0.4650 -0.1120
  379TIP3    H122552   5.134   5.426   5.183 -2.2701 -0.0027 -0.3409
  379TIP3    H222553   5.186   5.297   5.124 -0.9077  0.5734 -0.4585
  380TIP3   OH222554   0.091   5.286   3.790  0.3390 -0.3916  0.5917
  380TIP3    H122555  -0.004   5.298   3.788  0.3983  0.0081 -0.2428
  380TIP3    H222556   0.110   5.236   3.710  1.0576  1.3687 -0.3975
  381TIP3   OH222557   3.875   2.851  15.042  0.0097  0.1775  0.5182
  381TIP3    H122558   3.867   2.784  14.974 -0.4867 -0.7975  1.5227
  381TIP3    H222559   3.831   2.927  15.004  0.3943 -0.1037 -0.5476
  382TIP3   OH222560   0.719   6.080   4.917  0.0887  0.1897 -0.0216
  382TIP3    H122561   0.624   6.077   4.915  0.0295 -0.6182  2.2190
  382TIP3    H222562   0.741   6.125   4.999  1.5970 -2.3869  1.1029
  383TIP3   OH222563   4.818   2.944  15.001 -0.1382  0.0004  0.7085
  383TIP3    H122564   4.729   2.973  15.022 -1.1689 -1.6421 -1.0301
  383TIP3    H222565   4.810   2.906  14.914  2.2329 -0.4507  0.6387
  384TIP3   OH222566   4.404   6.308   3.196 -0.4374  0.3903 -0.7431
  384TIP3    H122567   4.429   6.400   3.193  0.8930  0.0926  0.1531
  384TIP3    H222568   4.356   6.299   3.279  0.3015  0.0912 -0.3409
  385TIP3   OH222569   0.538   5.858   2.191 -0.3376  0.1572 -0.3093
  385TIP3    H122570   0.501   5.778   2.229  0.9071 -0.4084 -0.2352
  385TIP3    H222571   0.602   5.827   2.127 -0.5247  1.1087 -0.9792
  386TIP3   OH222572   0.961   0.944   5.217 -0.3636  0.3098 -0.7066
  386TIP3    H122573   1.056   0.956   5.218 -0.5405  1.9552  0.2472
  386TIP3    H222574   0.925   1.032   5.230 -2.0229 -0.2999 -0.8457
  387TIP3   OH222575   2.150   2.816   3.331  0.2741 -0.1782  0.4671
  387TIP3    H122576   2.164   2.745   3.394  0.3404  1.3195  2.2346
  387TIP3    H222577   2.056   2.813   3.312  0.5786 -1.8911 -0.9801
  388TIP3   OH222578   4.604   6.369   4.763  0.2745  0.0897  0.5149
  388TIP3    H122579   4.678   6.426   4.780  0.2186  0.6446 -0.9615
  388TIP3    H222580   4.630   6.284   4.801  1.3005  0.4875  0.7371
  389TIP3   OH222581   6.665   4.724  16.780 -0.1244  0.0009  0.0490
  389TIP3    H122582   6.581   4.679  16.768  0.2361 -0.3601 -1.3065
  389TIP3    H222583   6.730   4.653  16.782  0.1582  0.2771  1.1111
  390TIP3   OH222584   1.124   5.875  11.575 -0.3439 -1.1537 -0.5688
  390TIP3    H122585   1.214   5.898  11.553 -0.1918 -0.7799  0.4083
  390TIP3    H222586   1.079   5.871  11.490  0.1513  0.5655 -0.9531
  391TIP3   OH222587   1.975   1.606   6.508  0.0316 -0.3330 -0.5419
  391TIP3    H122588   1.922   1.578   6.583 -0.2278  1.0593 -0.1668
  391TIP3    H222589   1.993   1.699   6.525  1.9131 -0.5615 -1.0730
  392TIP3   OH222590   4.534   1.927  11.072  0.4991 -0.8956  0.2594
  392TIP3    H122591   4.573   1.846  11.105  0.8895 -1.1173 -0.7092
  392TIP3    H222592   4.592   1.954  11.001  2.0045  1.7650  2.3300
  393TIP3   OH222593   1.570   2.167  17.018 -0.0853 -0.6577 -0.3060
  393TIP3    H122594   1.636   2.195  16.954  2.0125 -3.0551  0.6731
  393TIP3    H222595   1.617   2.163  17.101 -2.1811  0.0813  0.9891
  394TIP3   OH222596   4.728   0.029   5.852  0.0475  0.0466  0.4499
  394TIP3    H122597   4.819   0.060   5.849  0.1553 -0.2839  0.2101
  394TIP3    H222598   4.723  -0.037   5.782 -0.7159  0.9998 -0.4322
  395TIP3   OH222599   3.212   3.591  16.766  0.0798 -0.2414  0.2437
  395TIP3    H122600   3.172   3.529  16.826  0.4485 -1.2546 -0.5353
  395TIP3    H222601   3.291   3.622  16.811 -0.9719  0.9753  1.3436
  396TIP3   OH222602   5.908   2.443  11.402 -0.6079 -0.2814  0.2225
  396TIP3    H122603   5.993   2.440  11.445 -0.5901 -2.0555  0.1102
  396TIP3    H222604   5.850   2.393  11.459 -0.9493 -1.3307 -0.9991
  397TIP3   OH222605   1.855   4.914   6.741 -0.5185  0.1010 -0.4836
  397TIP3    H122606   1.797   4.990   6.736 -0.1843  0.3373 -0.8100
  397TIP3    H222607   1.942   4.952   6.755  0.0403 -0.0810 -3.1324
  398TIP3   OH222608   3.272   3.562   4.780  0.2354  0.1449 -0.1960
  398TIP3    H122609   3.335   3.633   4.792 -0.0384  0.2310  0.7428
  398TIP3    H222610   3.278   3.541   4.686  1.2421  0.5319 -0.2321
  399TIP3   OH222611   2.433   2.844   0.132 -0.3137 -0.4968  0.0279
  399TIP3    H122612   2.396   2.757   0.120  0.4081 -1.0016  1.2427
  399TIP3    H222613   2.493   2.835   0.206  0.1464  0.9227 -0.1292
  400TIP3   OH222614   4.008   5.203  16.513 -0.3501 -0.2976 -0.1757
  400TIP3    H122615   3.965   5.150  16.580 -0.4634 -0.2188 -0.1861
  400TIP3    H222616   3.938   5.230  16.454 -0.1247 -1.1397 -0.8515
  401TIP3   OH222617   2.410   1.003   4.484  0.1675 -0.2989  0.2873
  401TIP3    H122618   2.318   1.007   4.458  0.4880  0.7521 -0.7741
  401TIP3    H222619   2.458   1.020   4.403  1.2641  0.5320  1.0874
  402TIP3   OH222620   5.799   1.069  11.609  0.2141  0.7394  0.4249
  402TIP3    H122621   5.862   1.086  11.539 -0.8415  1.4714 -0.3941
  402TIP3    H222622   5.742   1.146  11.609 -2.0218 -0.8107 -0.3815
  403TIP3   OH222623   2.359   5.906   5.051 -0.0074  0.9659 -0.9781
  403TIP3    H122624   2.399   5.820   5.064 -0.7735  0.8265  0.7322
  403TIP3    H222625   2.299   5.894   4.977 -1.5490 -0.5375  0.4332
  404TIP3   OH222626   4.098   5.228   3.516 -0.1733  0.0428  0.1887
  404TIP3    H122627   4.166   5.189   3.461  0.2974  0.4408  0.4817
  404TIP3    H222628   4.145   5.290   3.572 -0.6656 -0.2297  0.9217
  405TIP3   OH222629   5.820   3.798   5.560 -0.2844 -0.2225 -0.0424
  405TIP3    H122630   5.818   3.761   5.472  1.6041 -4.1503  1.3317
  405TIP3    H222631   5.743   3.759   5.603  1.0610 -1.7632  1.0971
  406TIP3   OH222632   0.138   6.393   3.437 -0.5520  0.2614  0.0807
  406TIP3    H122633   0.078   6.465   3.459  0.1390  1.4982 -1.8178
  406TIP3    H222634   0.163   6.410   3.346  1.0475 -1.3953  0.1639
  407TIP3   OH222635   0.038   4.010  13.794  0.6291  0.4946 -0.4892
  407TIP3    H122636  -0.025   4.071  13.832  0.5056  1.0927 -1.5884
  407TIP3    H222637   0.106   4.002  13.860 -1.2047 -1.2594  1.3483
  408TIP3   OH222638   1.525   5.512  16.632  0.4408 -0.2076 -0.2549
  408TIP3    H122639   1.436   5.546  16.640  0.6724  0.3116  0.1412
  408TIP3    H222640   1.524   5.430  16.681  0.6931  0.7752  1.4589
  409TIP3   OH222641   4.820   3.322   2.421 -0.1471  0.2325 -0.6969
  409TIP3    H122642   4.797   3.244   2.370 -0.6418 -1.1804  1.5175
  409TIP3    H222643   4.737   3.353   2.457  0.3816 -0.0181  0.8175
  410TIP3   OH222644   3.194   5.703  15.572 -0.1673  0.1145  0.0307
  410TIP3    H122645   3.118   5.725  15.625  0.1275 -0.3600  0.6733
  410TIP3    H222646   3.164   5.711  15.482 -0.8084  0.5023  0.2720
  411TIP3   OH222647   0.251   1.166   4.876 -0.4593 -0.2201  0.2940
  411TIP3    H122648   0.196   1.239   4.905  0.3721  1.2952 -1.6392
  411TIP3    H222649   0.189   1.102   4.841 -1.0991  0.8774 -0.6525
  412TIP3   OH222650   3.097   1.266   5.200  0.0684  0.5512 -0.1054
  412TIP3    H122651   3.106   1.263   5.105  1.3695 -0.7372  0.0284
  412TIP3    H222652   3.160   1.201   5.233 -0.9499  0.3623  1.6050
  413TIP3   OH222653   1.653   2.854   4.068 -0.0742  0.0277 -0.0392
  413TIP3    H122654   1.733   2.807   4.044  0.9462  1.6608 -0.0328
  413TIP3    H222655   1.637   2.831   4.159  1.7056  1.3771  0.6667
  414TIP3   OH222656   2.175   1.424   3.706  0.5436 -0.0845  0.4731
  414TIP3    H122657   2.098   1.467   3.669  0.5705 -0.2479  0.2290
  414TIP3    H222658   2.249   1.461   3.657  0.5571 -0.5017  0.1734
  415TIP3   OH222659   4.848   0.215  14.514 -0.6877 -0.0017 -0.4908
  415TIP3    H122660   4.786   0.224  14.442 -0.7259  0.5044 -0.3994
  415TIP3    H222661   4.846   0.122  14.536  0.4279 -0.4271 -2.0955
  416TIP3   OH222662   4.585   2.933  17.108 -0.6680  0.2024  0.0295
  416TIP3    H122663   4.678   2.955  17.105 -0.6062 -0.1354 -0.7065
  416TIP3    H222664   4.574   2.886  17.191 -0.5277  1.7024  0.9232
  417TIP3   OH222665   4.159   6.487   5.318 -0.4904 -0.3994  0.0049
  417TIP3    H122666   4.244   6.493   5.361  1.4941 -2.0602 -3.2599
  417TIP3    H222667   4.124   6.576   5.320  1.3787  0.3548  1.3419
  418TIP3   OH222668   2.322   2.991   0.477  0.1087  0.3610 -0.6775
  418TIP3    H122669   2.333   3.027   0.565  2.7979 -0.4549 -0.5587
  418TIP3    H222670   2.289   2.902   0.492  1.3077 -0.0616 -0.3795
  419TIP3   OH222671   6.413   1.387  17.215  0.1834 -0.5008  0.3925
  419TIP3    H122672   6.497   1.418  17.249  0.3042 -0.4405  0.0403
  419TIP3    H222673   6.359   1.374  17.293  0.7272 -1.1577  0.6783
  420TIP3   OH222674   1.493   3.929   4.626 -0.3023 -0.0297 -0.4165
  420TIP3    H122675   1.449   3.930   4.541  0.1554 -1.5273 -0.6863
  420TIP3    H222676   1.494   3.837   4.652  0.7906  0.2378  0.5712
  421TIP3   OH222677   2.569   6.589  11.687  0.5909  0.3463 -1.0474
  421TIP3    H122678   2.604   6.671  11.651 -1.3785  0.9803 -1.6569
  421TIP3    H222679   2.474   6.603  11.689  0.4111 -0.5818  2.1584
  422TIP3   OH222680   5.077   6.532   3.040 -0.0432 -0.3606 -0.2700
  422TIP3    H122681   5.167   6.563   3.046 -0.1325 -0.2460  0.5052
  422TIP3    H222682   5.023   6.611   3.033 -0.1117 -0.4176 -0.4090
  423TIP3   OH222683   1.861   4.240   5.201  0.5466 -0.3699  0.2416
  423TIP3    H122684   1.782   4.213   5.154  0.4081 -0.7499  0.6837
  423TIP3    H222685   1.905   4.158   5.224  1.2013 -0.1572 -0.2140
  424TIP3   OH222686   2.733   4.386  16.999  0.6191  0.9263  0.2940
  424TIP3    H122687   2.772   4.300  16.985 -1.2040  0.2540 -0.9748
  424TIP3    H222688   2.722   4.422  16.911  0.2417  1.9336  0.7400
  425TIP3   OH222689   1.188   2.092   1.133  0.3598 -0.4748  0.0648
  425TIP3    H122690   1.105   2.136   1.150  0.8725  0.9825 -0.9338
  425TIP3    H222691   1.187   2.015   1.189 -1.2243  0.0510  0.8162
  426TIP3   OH222692   6.390   2.435   2.616 -0.4872 -0.0771  0.5517
  426TIP3    H122693   6.366   2.348   2.645 -2.5220  0.8451  1.7845
  426TIP3    H222694   6.425   2.478   2.694  0.3554  0.2918 -0.0079
  427TIP3   OH222695   3.703   5.297  12.361  0.4245  0.1103 -0.0580
  427TIP3    H122696   3.752   5.220  12.389 -0.2061  0.3611  1.8863
  427TIP3    H222697   3.731   5.312  12.270  2.8315 -0.6039  0.5013
  428TIP3   OH222698   1.663   0.712   1.885  0.2242  0.3450 -0.4122
  428TIP3    H122699   1.573   0.682   1.870  0.3177 -0.0210 -0.2642
  428TIP3    H222700   1.660   0.807   1.873 -0.3145  0.4136  0.2043
  429TIP3   OH222701   6.112   3.548   3.826 -0.1754  0.3261 -0.1570
  429TIP3    H122702   6.139   3.533   3.917 -0.6651  2.4248  0.3892
  429TIP3    H222703   6.041   3.485   3.811  0.2299 -0.3613  0.7586
  430TIP3   OH222704   5.449   3.917  13.634 -0.2586  0.1129 -0.1738
  430TIP3    H122705   5.465   3.836  13.585 -2.5097 -0.0113 -0.8125
  430TIP3    H222706   5.461   3.892  13.726  0.8301 -0.4662 -0.4555
  431TIP3   OH222707   2.897   0.359  14.160  0.1393 -0.1067  0.0001
  431TIP3    H122708   2.961   0.381  14.227  1.9536  0.2039 -1.7542
  431TIP3    H222709   2.838   0.296  14.203  1.6472 -0.4699  1.6516
  432TIP3   OH222710   6.646   4.612   6.626  0.7642 -0.8692  0.1773
  432TIP3    H122711   6.656   4.706   6.640  3.7070 -0.6357 -2.4831
  432TIP3    H222712   6.573   4.605   6.565  1.8465 -0.0719 -1.2572
  433TIP3   OH222713   5.945   1.305  12.054 -0.1234  0.1924  0.3961
  433TIP3    H122714   5.892   1.328  11.977 -0.6820  0.3823  0.8349
  433TIP3    H222715   6.002   1.381  12.067  0.3153 -0.0440 -0.1247
  434TIP3   OH222716   2.663   2.129  15.428  0.0965 -0.3508  0.0285
  434TIP3    H122717   2.687   2.219  15.451 -1.3565  0.8377 -2.6084
  434TIP3    H222718   2.581   2.113  15.473 -0.4800  0.3009 -0.7610
  435TIP3   OH222719   6.251   4.510  15.365  0.0110 -0.1217  0.1737
  435TIP3    H122720   6.186   4.440  15.374 -0.6423  0.4325 -0.1121
  435TIP3    H222721   6.200   4.586  15.338  1.0183 -0.1255 -1.9229
  436TIP3   OH222722   2.729   6.454  13.199 -0.3133  0.2706 -0.1010
  436TIP3    H122723   2.757   6.546  13.199  1.3667 -0.0999 -3.4679
  436TIP3    H222724   2.658   6.450  13.135  0.6966 -0.9921 -1.2015
  437TIP3   OH222725   5.311   5.862  12.438  0.2432 -0.3329  0.0082
  437TIP3    H122726   5.296   5.932  12.502 -1.1523  0.5181 -1.1673
  437TIP3    H222727   5.312   5.908  12.353  2.9805 -1.2782 -0.5884
  438TIP3   OH222728   5.600   5.693   2.822  0.1301 -0.4044 -0.1574
  438TIP3    H122729   5.684   5.739   2.821  0.3629 -0.8213 -0.0317
  438TIP3    H222730   5.623   5.600   2.822 -0.3355 -0.5416 -1.1925
  439TIP3   OH222731   3.345   3.168   4.055  0.6929 -0.5729  0.6758
  439TIP3    H122732   3.406   3.205   3.991  1.4098 -1.6232  0.7260
  439TIP3    H222733   3.260   3.172   4.012  1.1971 -1.4828 -0.4525
  440TIP3   OH222734   4.736   6.399  11.946  0.2781 -0.6123 -0.0847
  440TIP3    H122735   4.723   6.366  11.857 -0.9479 -2.6263  0.7799
  440TIP3    H222736   4.725   6.494  11.938  0.1446 -0.7556 -2.0622
  441TIP3   OH222737   3.303   4.058   3.540 -0.2294 -0.3536  0.5856
  441TIP3    H122738   3.338   3.999   3.473  0.0107 -0.0478  0.4349
  441TIP3    H222739   3.351   4.036   3.620  1.2134  0.8645  0.1159
  442TIP3   OH222740   1.149   2.740   4.365 -0.7210  0.1855  0.2568
  442TIP3    H122741   1.151   2.752   4.270  1.1909 -0.8219  0.1143
  442TIP3    H222742   1.113   2.652   4.377 -0.9057  0.2894  0.4628
  443TIP3   OH222743   2.669   3.474  16.158  0.2097 -0.2159 -0.2907
  443TIP3    H122744   2.715   3.515  16.085 -1.7823  0.9718 -0.9262
  443TIP3    H222745   2.704   3.518  16.235 -1.8655  2.8207 -0.9498
  444TIP3   OH222746   2.217   5.556  11.493  0.5683 -0.3098 -0.5525
  444TIP3    H122747   2.185   5.473  11.527  0.6111 -0.4077 -0.7497
  444TIP3    H222748   2.240   5.607  11.571 -0.7915  0.0665 -0.3609
  445TIP3   OH222749   2.007   5.741  14.705 -0.2957  0.5832  0.0941
  445TIP3    H122750   1.950   5.788  14.766 -0.9287 -0.4335  0.2984
  445TIP3    H222751   1.952   5.722  14.630 -0.3124 -0.6418  0.4033
  446TIP3   OH222752   2.005   1.997  15.658  0.3116 -0.3714 -0.3069
  446TIP3    H122753   2.022   2.040  15.742  1.2142  0.9578 -1.1275
  446TIP3    H222754   2.087   2.004  15.611 -0.6001  0.2969 -1.8799
  447TIP3   OH222755   3.698   2.442  12.490  0.4231  0.1187 -0.3877
  447TIP3    H122756   3.726   2.499  12.418  2.6096 -0.1178  0.1842
  447TIP3    H222757   3.780   2.414  12.531 -0.7060 -1.0458  1.2047
  448TIP3   OH222758   5.122   0.950   3.048 -0.6912 -0.4225 -0.1400
  448TIP3    H122759   5.186   0.940   2.978 -1.1607 -0.0337 -0.6367
  448TIP3    H222760   5.173   0.944   3.129 -0.2745 -1.8997 -0.4767
  449TIP3   OH222761   0.829   5.196  13.549 -0.2004  0.3546  0.5516
  449TIP3    H122762   0.892   5.213  13.479 -0.8449 -0.1398 -0.1530
  449TIP3    H222763   0.766   5.136  13.511 -0.1590 -0.5018  1.7811
  450TIP3   OH222764   6.354   4.401  11.726  0.1932  0.0609 -0.3194
  450TIP3    H122765   6.370   4.406  11.632 -1.2117  0.4598 -0.5630
  450TIP3    H222766   6.360   4.308  11.747 -1.1272 -0.2478 -1.1535
  451TIP3   OH222767   6.080   4.347   3.511 -0.4693 -0.0643  0.0490
  451TIP3    H122768   6.008   4.361   3.450 -2.6348 -1.7188  2.0321
  451TIP3    H222769   6.097   4.434   3.547 -0.5385  0.5731 -1.3920
  452TIP3   OH222770   1.237   3.162  13.169 -0.0893  0.0521 -0.1097
  452TIP3    H122771   1.302   3.184  13.236  0.2265  0.4661 -0.5534
  452TIP3    H222772   1.286   3.114  13.102 -0.7399 -2.0131  0.7993
  453TIP3   OH222773   0.189   6.283  16.382 -0.0626 -0.4110  0.2220
  453TIP3    H122774   0.269   6.236  16.359  0.3309  0.8483 -1.1192
  453TIP3    H222775   0.199   6.305  16.474  0.8492 -0.8280  0.2327
  454TIP3   OH222776   2.840   4.635  11.866  0.2020  0.6402  0.1550
  454TIP3    H122777   2.834   4.544  11.838  1.9810  0.5353 -0.0457
  454TIP3    H222778   2.818   4.686  11.788 -2.9004  0.4648  0.8114
  455TIP3   OH222779   4.547   0.187   2.035 -0.3570  0.6459 -0.0666
  455TIP3    H122780   4.629   0.144   2.060 -1.6016 -1.3288  0.7746
  455TIP3    H222781   4.569   0.281   2.035  2.0030  0.1584 -0.3264
  456TIP3   OH222782   1.762   3.010  12.283  0.3529 -1.1771 -0.3253
  456TIP3    H122783   1.738   2.951  12.355  3.3383 -2.9336 -0.6169
  456TIP3    H222784   1.776   3.094  12.326  0.7472 -1.8662  0.9630
  457TIP3   OH222785   4.766   0.387   0.221 -0.5479  0.0448  0.8520
  457TIP3    H122786   4.805   0.391   0.134  0.5828 -0.5087  1.3106
  457TIP3    H222787   4.762   0.293   0.242 -0.3846  0.1907  1.5766
  458TIP3   OH222788   6.437   4.134   1.203  0.4519 -0.4804  0.0407
  458TIP3    H122789   6.361   4.087   1.236  0.3314 -0.5908 -0.4013
  458TIP3    H222790   6.508   4.070   1.206  1.0283  0.1544  2.3528
  459TIP3   OH222791   2.809   0.234   4.871  0.0204  0.2032  0.1446
  459TIP3    H122792   2.789   0.327   4.873 -0.0655  0.1778  0.5290
  459TIP3    H222793   2.798   0.205   4.961  3.3072  0.5105  0.7750
  460TIP3   OH222794   3.186   5.310  12.866 -0.5544 -0.3213  0.6243
  460TIP3    H122795   3.140   5.348  12.791 -0.4472 -0.1293  0.6545
  460TIP3    H222796   3.275   5.346  12.860 -0.7990  0.4544  1.3776
  461TIP3   OH222797   0.787   0.438  14.187  0.0939 -0.4628  0.4266
  461TIP3    H122798   0.812   0.527  14.165 -1.5516  0.4794  2.0447
  461TIP3    H222799   0.737   0.407  14.111  0.2028  0.1954  0.0845
  462TIP3   OH222800   0.596   4.920   0.755  0.2427 -0.0073 -0.0887
  462TIP3    H122801   0.604   4.832   0.791 -1.3379 -0.4037 -0.6476
  462TIP3    H222802   0.645   4.917   0.673  1.4265  0.0849  0.5891
  463TIP3   OH222803   6.244   1.960  15.985 -0.3989 -0.2415 -0.0888
  463TIP3    H122804   6.270   1.971  15.894  0.1560 -1.4987 -0.0970
  463TIP3    H222805   6.322   1.984  16.035  0.0026 -1.6005 -0.0304
  464TIP3   OH222806   0.110   1.814   2.842  0.1049  0.2347  0.0415
  464TIP3    H122807   0.149   1.809   2.930 -1.1275  2.3656  0.7727
  464TIP3    H222808   0.127   1.728   2.804  0.6529 -0.7712  2.3726
  465TIP3   OH222809   4.304   4.924   0.535 -0.1313  0.4561 -0.3889
  465TIP3    H122810   4.334   4.833   0.537 -2.4419 -0.3727  0.9081
  465TIP3    H222811   4.310   4.953   0.626 -1.8048  0.7008 -0.3282
  466TIP3   OH222812   5.781   1.060  15.035  0.0788  0.0743 -0.2360
  466TIP3    H122813   5.827   1.077  15.117  0.4095 -0.0182 -0.4024
  466TIP3    H222814   5.693   1.094  15.049 -0.0963 -0.6302  0.4356
  467TIP3   OH222815   0.725   4.957   5.203 -1.0904 -0.0190  0.8998
  467TIP3    H122816   0.814   4.974   5.175 -1.5562  1.9081  0.3680
  467TIP3    H222817   0.704   5.032   5.260 -2.9555  0.5870 -0.4977
  468TIP3   OH222818   6.512   3.472   4.366 -0.1411 -0.3054 -0.0836
  468TIP3    H122819   6.521   3.556   4.320 -0.7499  0.6598  1.4801
  468TIP3    H222820   6.542   3.491   4.455  0.2489 -1.9089  0.1458
  469TIP3   OH222821   3.757   4.544   1.058 -0.0280 -0.1432  0.2172
  469TIP3    H122822   3.678   4.518   1.010  1.1334  0.0043 -1.8837
  469TIP3    H222823   3.730   4.621   1.108 -0.4645  2.0091 -3.0729
  470TIP3   OH222824   5.854   6.322   0.474 -0.1859 -0.3908  0.1619
  470TIP3    H122825   5.919   6.359   0.535  1.6767  0.2285 -2.0386
  470TIP3    H222826   5.858   6.379   0.398 -1.4881 -1.8594 -1.0776
  471TIP3   OH222827   5.351   2.955  13.424  0.0627  0.2146 -0.2329
  471TIP3    H122828   5.261   2.963  13.392 -0.0820  0.2764  0.1838
  471TIP3    H222829   5.352   3.005  13.506  0.6283  0.7120 -0.5321
  472TIP3   OH222830   3.998   5.524   6.350 -0.4359 -0.2936  0.4208
  472TIP3    H122831   4.080   5.516   6.399 -0.5839  0.1301  0.7433
  472TIP3    H222832   3.957   5.603   6.385 -2.1049 -1.7551  1.9547
  473TIP3   OH222833   4.566   2.360  12.346 -0.2378 -0.1423  0.2658
  473TIP3    H122834   4.560   2.385  12.254 -0.4377 -0.4281  0.2001
  473TIP3    H222835   4.479   2.326  12.367 -0.0718 -0.4535  0.4496
  474TIP3   OH222836   3.886   6.462  16.651 -0.0243  0.3278  0.3206
  474TIP3    H122837   3.871   6.556  16.638 -0.1556  0.0536 -1.8984
  474TIP3    H222838   3.955   6.457  16.716  2.3474  2.1206 -1.8593
  475TIP3   OH222839   5.781   1.014   1.028  0.3750  0.6884 -0.2135
  475TIP3    H122840   5.752   1.011   1.119 -1.3844 -0.7351 -0.7729
  475TIP3    H222841   5.807   1.105   1.014 -0.2157  1.1417  1.4269
  476TIP3   OH222842   1.828   5.021   4.025 -0.2978 -0.0340 -0.9873
  476TIP3    H122843   1.905   5.075   4.006 -1.4751  1.9890 -0.4004
  476TIP3    H222844   1.765   5.045   3.957 -0.2530 -2.1392 -1.8485
  477TIP3   OH222845   3.170   6.590   0.611 -0.1197  0.1275  0.0241
  477TIP3    H122846   3.259   6.577   0.579 -0.7683  0.8336 -2.3067
  477TIP3    H222847   3.114   6.566   0.537 -1.8260  0.7060  1.0552
  478TIP3   OH222848   5.964   3.682   1.586 -0.1157 -0.3660 -0.0883
  478TIP3    H122849   6.032   3.697   1.652  0.2873  0.8737 -0.7392
  478TIP3    H222850   5.918   3.604   1.616  0.4453 -0.1851  1.3297
  479TIP3   OH222851   4.529   2.635   1.973 -0.0487 -0.4123  0.6063
  479TIP3    H122852   4.585   2.703   1.937 -0.6971  0.4327  1.1463
  479TIP3    H222853   4.469   2.682   2.031 -0.8981 -1.3689  0.5305
  480TIP3   OH222854   5.081   3.938  13.695 -0.1729  0.2204 -0.1064
  480TIP3    H122855   5.107   4.009  13.755  1.7888  0.3498 -1.0371
  480TIP3    H222856   5.055   3.867  13.753  0.0041  0.9332  0.8853
  481TIP3   OH222857   0.908   6.633   6.340 -0.5754  0.4051  0.2716
  481TIP3    H122858   0.908   6.634   6.436  1.8282  2.1062  0.3337
  481TIP3    H222859   0.982   6.577   6.317 -1.0335  0.1419 -0.6017
  482TIP3   OH222860   6.573   5.097   3.534  0.0377 -0.0706  0.3910
  482TIP3    H122861   6.643   5.036   3.556  1.5504  1.8901  1.3172
  482TIP3    H222862   6.542   5.129   3.619  0.0431  1.2603 -0.0963
  483TIP3   OH222863   5.033   4.241  15.779 -0.5621 -0.1024  0.1498
  483TIP3    H122864   4.977   4.199  15.845 -1.7066  0.4319 -0.4492
  483TIP3    H222865   5.000   4.331  15.773 -0.4432 -0.1222 -1.0937
  484TIP3   OH222866   6.009   1.918  12.839  0.2356  0.2651 -0.3533
  484TIP3    H122867   6.034   2.001  12.881 -1.3559  0.6481 -0.0856
  484TIP3    H222868   5.944   1.944  12.773  0.8695 -0.6172 -1.3640
  485TIP3   OH222869   5.492   3.045   6.235  0.6184 -0.3521 -0.4638
  485TIP3    H122870   5.503   2.974   6.299 -0.6620  1.2107  1.6064
  485TIP3    H222871   5.403   3.033   6.202  1.5604 -1.6666 -2.7222
  486TIP3   OH222872   0.130   1.613  13.391 -0.5969  0.0679 -0.1365
  486TIP3    H122873   0.192   1.550  13.357 -0.7047 -0.7757  1.1618
  486TIP3    H222874   0.162   1.634  13.479 -0.3595  2.1050 -0.6457
  487TIP3   OH222875   0.494   1.625   6.557  0.5980  0.1136 -0.2759
  487TIP3    H122876   0.521   1.565   6.488 -0.5801  0.2405 -0.8668
  487TIP3    H222877   0.402   1.643   6.539  0.3939  0.5233  1.0605
  488TIP3   OH222878   1.313   3.987  16.470  0.2152 -0.4747 -0.9112
  488TIP3    H122879   1.331   4.016  16.559  0.9789 -1.8903 -0.5889
  488TIP3    H222880   1.265   3.905  16.480 -1.8906  0.5344 -1.8126
  489TIP3   OH222881   2.068   5.831   3.049  0.2962  0.3071  0.0708
  489TIP3    H122882   2.090   5.810   2.958  0.3815 -0.8858  0.3455
  489TIP3    H222883   2.062   5.927   3.051  1.8012  0.4567 -0.8521
  490TIP3   OH222884   2.383   4.193  12.718  0.1282  0.0570  0.0932
  490TIP3    H122885   2.359   4.128  12.652  0.9686 -1.1730  0.9563
  490TIP3    H222886   2.348   4.158  12.800  0.3352  0.8564  0.5296
  491TIP3   OH222887   5.081   0.434   0.081  0.0852  0.0662  0.3653
  491TIP3    H122888   5.024   0.510   0.071 -0.1658  0.0569  1.5470
  491TIP3    H222889   5.164   0.470   0.111  0.0981 -0.0897  0.5206
  492TIP3   OH222890   5.750   2.188   1.116  0.4682  0.1001 -0.4833
  492TIP3    H122891   5.760   2.200   1.210 -1.3920 -1.7166  0.0270
  492TIP3    H222892   5.742   2.276   1.080  2.5615  0.8852  0.8396
  493TIP3   OH222893   1.715   5.740   0.030  0.3692 -0.1968 -0.1618
  493TIP3    H122894   1.648   5.805   0.048 -0.2474 -0.6882 -0.6424
  493TIP3    H222895   1.683   5.660   0.073  1.0059 -0.2498  0.2336
  494TIP3   OH222896   1.923   1.337  12.130 -0.8000 -0.2481 -0.5985
  494TIP3    H122897   1.887   1.373  12.211 -0.9248  0.9692 -1.1825
  494TIP3    H222898   1.895   1.397  12.062  0.9834 -0.1525 -1.2999
  495TIP3   OH222899   3.585   4.490  15.272 -0.3884 -0.2104 -0.0248
  495TIP3    H122900   3.601   4.574  15.229  0.9274  0.1287  1.0415
  495TIP3    H222901   3.521   4.446  15.217 -0.1978  0.9941 -1.2533
  496TIP3   OH222902   5.386   2.048  14.810 -0.1503  0.5958 -0.3788
  496TIP3    H122903   5.478   2.070  14.825  0.2950 -1.1158 -0.4376
  496TIP3    H222904   5.355   2.016  14.895 -0.6688  1.0462 -0.3931
  497TIP3   OH222905   0.980   6.093  13.175 -0.2880 -0.0718 -0.0146
  497TIP3    H122906   1.019   6.180  13.164 -1.8120  0.7356  0.6214
  497TIP3    H222907   0.904   6.108  13.231 -0.7395 -1.7867 -0.1106
  498TIP3   OH222908   0.633   3.370  15.178  0.0988  0.1957 -0.7032
  498TIP3    H122909   0.695   3.418  15.232 -1.2372  0.4057  0.7258
  498TIP3    H222910   0.682   3.294  15.146  1.1524  0.4947  0.1438
  499TIP3   OH222911   1.063   0.825   1.332 -0.0813 -0.7707 -0.0722
  499TIP3    H122912   1.075   0.733   1.309 -2.3510 -1.2878  0.5510
  499TIP3    H222913   1.063   0.827   1.428  2.1452  0.2580 -0.0456
  500TIP3   OH222914   3.110   5.901   0.675  0.1766  0.6005  0.7746
  500TIP3    H122915   3.086   5.812   0.699  1.0140 -0.1016 -0.8452
  500TIP3    H222916   3.126   5.945   0.759  0.5874 -1.0073  1.5728
  501TIP3   OH222917   1.220   6.143   3.869  0.0852  0.4240  0.4309
  501TIP3    H122918   1.287   6.185   3.924 -0.1047 -0.3876  1.3143
  501TIP3    H222919   1.169   6.090   3.930 -0.1386 -0.5087 -0.5304
  502TIP3   OH222920   0.687   1.217  13.995  0.8281  0.3782  0.0688
  502TIP3    H122921   0.699   1.238  13.902  0.4349  0.6465  0.0776
  502TIP3    H222922   0.771   1.239  14.035 -0.6456  6.2530  0.8752
  503TIP3   OH222923   1.382   4.873   3.186  0.0745 -0.2372  0.3608
  503TIP3    H122924   1.343   4.866   3.274  0.1219  0.8747  0.4858
  503TIP3    H222925   1.450   4.806   3.185  1.1507  0.7440  1.7769
  504TIP3   OH222926   0.401   1.039  16.076 -0.2395  0.1015 -0.5006
  504TIP3    H122927   0.403   1.127  16.114 -2.5616  0.9453 -2.1222
  504TIP3    H222928   0.468   0.991  16.124  0.1726  2.3632  1.3705
  505TIP3   OH222929   2.483   1.557  16.069 -0.5188  0.1046 -0.0159
  505TIP3    H122930   2.492   1.651  16.053  0.0893 -0.0688 -0.7544
  505TIP3    H222931   2.399   1.548  16.113 -0.5245  1.0073  0.1811
  506TIP3   OH222932   1.641   2.196  12.457  0.7081 -0.2028  0.5706
  506TIP3    H122933   1.651   2.191  12.362  1.9329  1.5184  0.5696
  506TIP3    H222934   1.685   2.117  12.489 -2.2607 -2.4003 -0.3460
  507TIP3   OH222935   4.402   1.945  15.165 -0.5160  0.1626  0.4003
  507TIP3    H122936   4.437   2.034  15.164 -1.5738  0.5861 -0.3503
  507TIP3    H222937   4.392   1.924  15.258 -0.4913  0.9189  0.5767
  508TIP3   OH222938   0.665   5.140  12.687  1.0294  0.0990 -0.1779
  508TIP3    H122939   0.577   5.138  12.725  0.8095 -0.4016 -0.7111
  508TIP3    H222940   0.684   5.234  12.676  0.2900  0.1936 -0.6902
  509TIP3   OH222941   0.900   1.480  16.877 -0.2825 -0.5139  0.2569
  509TIP3    H122942   0.945   1.519  16.802 -2.4514 -0.6825 -1.2126
  509TIP3    H222943   0.960   1.495  16.951  0.8594  1.8435 -1.0141
  510TIP3   OH222944   1.285   3.537  14.892 -0.2666  0.2962 -0.4568
  510TIP3    H122945   1.327   3.612  14.932  3.7131 -1.6602 -0.4922
  510TIP3    H222946   1.254   3.484  14.965  0.3030  0.2263 -0.2639
  511TIP3   OH222947   4.789   5.173   1.251  0.1987 -0.2225  0.0445
  511TIP3    H122948   4.855   5.217   1.197 -0.0120 -0.7609 -0.6718
  511TIP3    H222949   4.759   5.100   1.197  1.1517 -1.7724  1.5307
  512TIP3   OH222950   2.194   6.377  17.230 -0.2385  0.0305  0.0061
  512TIP3    H122951   2.213   6.348  17.319  2.5657 -2.5250 -1.2820
  512TIP3    H222952   2.098   6.379  17.226 -0.5453 -3.2511  2.0997
  513TIP3   OH222953   4.738   0.440   1.562  0.0528  0.4084  0.2684
  513TIP3    H122954   4.774   0.506   1.622 -0.1808 -0.4028  1.3399
  513TIP3    H222955   4.779   0.358   1.590 -0.9822 -0.1822  0.1079
  514TIP3   OH222956   5.843   1.176  14.764  0.3082  0.5304 -0.0559
  514TIP3    H122957   5.817   1.101  14.817  0.7420  0.3468 -0.1071
  514TIP3    H222958   5.781   1.245  14.789 -2.2976 -0.7570 -2.4171
  515TIP3   OH222959   0.179   1.000   3.396  0.6770 -0.2025 -0.6334
  515TIP3    H122960   0.126   1.064   3.347  0.9518 -0.4148 -1.2177
  515TIP3    H222961   0.154   1.013   3.487 -0.3723 -0.2809 -0.8954
  516TIP3   OH222962   5.817   4.787   4.093 -0.1444  0.0995  0.6656
  516TIP3    H122963   5.902   4.770   4.134 -0.0719  0.0026  0.4722
  516TIP3    H222964   5.778   4.855   4.148  1.3631  2.4561 -0.9851
  517TIP3   OH222965   3.347   3.503   0.620 -0.6660 -0.3881 -0.0201
  517TIP3    H122966   3.327   3.445   0.548  0.4355  0.1283 -0.7673
  517TIP3    H222967   3.413   3.457   0.672  0.8819  0.5114 -1.1103
  518TIP3   OH222968   5.661   2.174   3.930  0.4620  0.7230  0.2582
  518TIP3    H122969   5.617   2.096   3.896  1.7504 -0.5978  1.4650
  518TIP3    H222970   5.610   2.247   3.896  0.0227 -0.5787 -2.0904
  519TIP3   OH222971   2.578   5.958   6.484  0.0980 -0.2673 -0.0080
  519TIP3    H122972   2.633   5.901   6.431 -0.7472 -0.7729 -0.3706
  519TIP3    H222973   2.624   6.042   6.486  0.2939 -0.3278 -1.2974
  520TIP3   OH222974   0.168   3.001  12.216 -0.5337  0.4612  0.1772
  520TIP3    H122975   0.093   3.046  12.253 -0.7335 -0.6508  1.1855
  520TIP3    H222976   0.135   2.915  12.191 -0.2698  0.9760 -2.1208
  521TIP3   OH222977   6.324   1.995  16.859 -0.2349 -0.2645  0.1174
  521TIP3    H122978   6.287   1.912  16.887 -0.4070 -0.4404 -0.6063
  521TIP3    H222979   6.401   2.008  16.915 -0.2057 -0.9124  0.2307
  522TIP3   OH222980   0.539   1.212   4.837 -0.6978  0.4133 -0.4761
  522TIP3    H122981   0.516   1.203   4.745 -0.1776  1.3652 -0.7089
  522TIP3    H222982   0.473   1.270   4.874 -0.7309  0.2761 -0.3140
  523TIP3   OH222983   5.376   3.547   0.318 -0.0685 -0.2267 -0.0324
  523TIP3    H122984   5.434   3.473   0.298  0.4163  0.4687 -1.3079
  523TIP3    H222985   5.289   3.508   0.325  0.6247 -1.5511  3.4313
  524TIP3   OH222986   1.670   0.801  16.867 -0.1731  0.2672 -0.1606
  524TIP3    H122987   1.754   0.845  16.876  0.0886 -0.1514 -0.5665
  524TIP3    H222988   1.677   0.750  16.786 -0.4338 -0.5947  0.3427
  525TIP3   OH222989   5.745   1.707  14.467  0.1332 -0.1404 -0.2427
  525TIP3    H122990   5.833   1.692  14.432  0.3828  2.4782 -0.9469
  525TIP3    H222991   5.756   1.775  14.534 -1.4079  0.9004 -0.9638
  526TIP3   OH222992   2.777   6.779   5.027  0.1515 -0.1415 -0.6693
  526TIP3    H122993   2.870   6.800   5.020  0.1753  0.0037  0.0373
  526TIP3    H222994   2.773   6.683   5.019  0.3208 -0.1195 -1.0554
  527TIP3   OH222995   5.038   5.466  12.164  0.3169  1.0139  0.4953
  527TIP3    H122996   5.003   5.471  12.075  2.0401 -0.0171 -0.3097
  527TIP3    H222997   5.093   5.544  12.173  2.2483 -0.1596 -0.3945
  528TIP3   OH222998   2.797   4.507  12.876  0.3770 -0.1662  0.5402
  528TIP3    H122999   2.729   4.573  12.889 -0.3193 -0.4917 -1.1618
  528TIP3    H223000   2.750   4.426  12.857  1.0977 -0.0059 -2.6147
  529TIP3   OH223001   0.374   1.774  16.263 -0.4456  0.0475  0.4702
  529TIP3    H123002   0.313   1.707  16.295 -0.4457  0.8370  2.2168
  529TIP3    H223003   0.335   1.857  16.290  0.8787  0.6172  0.6879
  530TIP3   OH223004   3.852   1.130   5.706  0.1143 -0.3934 -0.2036
  530TIP3    H123005   3.803   1.048   5.695 -1.7948  0.7542 -0.7188
  530TIP3    H223006   3.792   1.188   5.752  1.1467  0.9760 -0.5039
  531TIP3   OH223007   5.789   5.701  11.198 -0.6912 -0.0955 -0.3773
  531TIP3    H123008   5.832   5.654  11.127  1.3883  1.3253 -0.1566
  531TIP3    H223009   5.720   5.642  11.228 -1.0692 -1.0987 -2.9584
  532TIP3   OH223010   4.609   2.952   4.413  0.1929  0.0587 -0.2471
  532TIP3    H123011   4.586   2.888   4.481 -1.5617  3.0828  2.2474
  532TIP3    H223012   4.681   2.911   4.365 -1.2505 -4.0288  0.6821
  533TIP3   OH223013   5.463   1.881   5.594  0.3839  0.3281 -0.4257
  533TIP3    H123014   5.471   1.965   5.640 -2.2351  0.8348 -0.6991
  533TIP3    H223015   5.442   1.818   5.663 -2.8274  0.9563 -0.6642
  534TIP3   OH223016   6.767   6.064   4.262 -0.6384  0.3209 -0.6374
  534TIP3    H123017   6.775   6.133   4.196 -3.6423 -0.2470 -1.7858
  534TIP3    H223018   6.727   6.108   4.338  1.2368  0.6154  0.2312
  535TIP3   OH223019   5.936   5.668  11.679 -0.4370 -0.2588 -0.0456
  535TIP3    H123020   5.900   5.587  11.644 -0.8667 -0.3085  0.5041
  535TIP3    H223021   5.866   5.705  11.732 -0.4627  0.7727 -0.7624
  536TIP3   OH223022   0.306   2.724  14.325 -0.0580 -0.7024  0.7602
  536TIP3    H123023   0.329   2.665  14.397 -1.7575 -0.7585  1.3009
  536TIP3    H223024   0.241   2.783  14.362  0.1005  0.1993 -0.3563
  537TIP3   OH223025   0.417   3.712   2.546  0.7248 -0.7376  0.4473
  537TIP3    H123026   0.496   3.719   2.493  1.8569 -0.3026  2.0978
  537TIP3    H223027   0.397   3.803   2.571  0.3447 -0.9426  0.9156
  538TIP3   OH223028   3.048   1.776  11.757 -0.1494 -0.2800  0.9634
  538TIP3    H123029   3.045   1.855  11.703  0.4500  0.4648  1.9879
  538TIP3    H223030   3.019   1.706  11.698 -0.6736  0.6884  0.0284
  539TIP3   OH223031   2.850   0.555  13.825  0.2077 -0.0856  0.3998
  539TIP3    H123032   2.787   0.490  13.795  0.0946 -0.5367  1.5651
  539TIP3    H223033   2.893   0.514  13.900 -1.0015  1.7423  2.2026
  540TIP3   OH223034   2.000   5.779  14.091 -0.3389  0.0638  0.1474
  540TIP3    H123035   1.963   5.693  14.074 -0.6565  0.5845 -2.0715
  540TIP3    H223036   2.046   5.770  14.175 -0.5340 -2.1788  0.0500
  541TIP3   OH223037   4.874   1.796   0.066 -0.6879 -0.4576 -0.1952
  541TIP3    H123038   4.855   1.702   0.072 -0.2572 -0.4510  2.7959
  541TIP3    H223039   4.927   1.815   0.144  0.0982  2.1011 -1.2383
  542TIP3   OH223040   4.882   4.980   1.014 -0.2781  0.2137 -0.0986
  542TIP3    H123041   4.878   5.075   1.024  0.8391  0.4293 -1.4154
  542TIP3    H223042   4.975   4.959   1.020 -0.4259 -0.6800 -0.6978
  543TIP3   OH223043   3.750   5.278   4.026  0.1529  0.2143  0.5321
  543TIP3    H123044   3.815   5.222   4.070  0.8697  0.0057 -0.7409
  543TIP3    H223045   3.700   5.217   3.972  0.8198  0.7400 -0.7255
  544TIP3   OH223046   3.290   2.469   2.990 -0.0637  0.3735  0.3521
  544TIP3    H123047   3.286   2.473   3.086 -0.4801  0.4262  0.3336
  544TIP3    H223048   3.259   2.382   2.968  0.3870  0.2259  0.2789
  545TIP3   OH223049   3.766   2.882  12.962  0.6410  0.1261  0.0444
  545TIP3    H123050   3.755   2.950  13.028 -0.7181 -0.6833  0.6864
  545TIP3    H223051   3.836   2.827  12.996 -0.2054 -0.4153  0.9423
  546TIP3   OH223052   3.173   6.746   0.950  0.0783  0.3709  0.1023
  546TIP3    H123053   3.227   6.671   0.925 -0.6996  0.4010 -1.7610
  546TIP3    H223054   3.103   6.709   1.003  1.0428  0.1501  1.3009
  547TIP3   OH223055   5.593   1.862  11.334 -0.1986  0.2105 -0.6072
  547TIP3    H123056   5.633   1.922  11.271 -0.0428  2.0508  1.1172
  547TIP3    H223057   5.499   1.873  11.321 -0.2372 -1.7997 -2.5715
  548TIP3   OH223058   0.720   3.809  14.981 -0.4010  0.4738  0.2634
  548TIP3    H123059   0.654   3.760  15.030 -1.5691 -0.2116 -1.8484
  548TIP3    H223060   0.675   3.838  14.902  1.9024 -0.4779 -1.5424
  549TIP3   OH223061   4.800   5.731  12.537  0.4500  0.2048 -0.5193
  549TIP3    H123062   4.836   5.685  12.613 -1.2792 -0.0329  0.2043
  549TIP3    H223063   4.794   5.663  12.469  0.3883 -0.0098 -0.3018
  550TIP3   OH223064   3.988   4.818  11.506  0.1465  0.1192 -0.2953
  550TIP3    H123065   3.912   4.865  11.542 -0.7908  0.1020 -2.1105
  550TIP3    H223066   3.986   4.839  11.412  0.6281 -2.2759 -0.8960
  551TIP3   OH223067   2.861   3.020  11.511  0.6902  0.5109 -0.3176
  551TIP3    H123068   2.955   3.032  11.522  0.4687  1.0594  1.3123
  551TIP3    H223069   2.838   2.954  11.577 -0.0595  0.3074 -0.7698
  552TIP3   OH223070   1.022   1.535  11.874  0.2052  0.3084 -0.5619
  552TIP3    H123071   1.017   1.526  11.970 -0.5877  0.1933 -0.6094
  552TIP3    H223072   0.949   1.483  11.841 -0.9762  2.2117 -1.1225
  553TIP3   OH223073   3.131   6.691  16.610 -0.2908 -0.1495  0.8715
  553TIP3    H123074   3.185   6.612  16.611 -0.6340 -0.3788  0.9502
  553TIP3    H223075   3.186   6.756  16.564 -0.1279 -0.5111  0.5520
  554TIP3   OH223076   2.673   0.936  12.112 -0.1609 -0.5846 -0.2637
  554TIP3    H123077   2.630   0.896  12.037 -0.7589  0.0352 -0.2623
  554TIP3    H223078   2.636   1.024  12.117  0.4035 -0.3700  0.3233
  555TIP3   OH223079   0.915   3.836   1.084  0.0409 -0.1474 -0.3964
  555TIP3    H123080   0.945   3.806   0.999 -0.0003  0.7323 -0.7329
  555TIP3    H223081   0.995   3.865   1.129  0.0190 -0.2749 -0.2755
  556TIP3   OH223082   6.552   4.654  12.190  0.1500 -0.0096 -0.0431
  556TIP3    H123083   6.620   4.587  12.193  0.6910  0.2932 -2.7593
  556TIP3    H223084   6.531   4.662  12.097 -0.6105  2.8650  0.2915
  557TIP3   OH223085   6.260   5.374  15.320  0.3235 -0.1807 -0.1840
  557TIP3    H123086   6.354   5.357  15.329 -0.2612 -3.7632  0.8668
  557TIP3    H223087   6.234   5.323  15.243 -0.9492 -0.4437  0.3867
  558TIP3   OH223088   6.297   4.017   0.544 -0.0935  0.2298  0.9042
  558TIP3    H123089   6.232   4.003   0.475  0.9414  2.1604 -0.5596
  558TIP3    H223090   6.258   4.085   0.599 -0.2777 -0.2442  1.3623
  559TIP3   OH223091   4.170   3.479   5.998 -0.1184  0.0761  0.0957
  559TIP3    H123092   4.165   3.549   5.932  0.2188  0.3998  0.4038
  559TIP3    H223093   4.144   3.521   6.080  0.4731 -0.0480  0.3588
  560TIP3   OH223094   2.792   5.182  15.116  0.2264  0.1978  0.0784
  560TIP3    H123095   2.853   5.110  15.131 -0.0052 -0.1063 -0.4116
  560TIP3    H223096   2.709   5.151  15.151  0.2609  0.4525  0.3847
  561TIP3   OH223097   5.193   1.963   5.808 -0.4615  0.0574 -0.1753
  561TIP3    H123098   5.187   1.917   5.892 -0.7501  0.1793 -0.1264
  561TIP3    H223099   5.223   1.896   5.747  1.6526  0.4249  0.3779
  562TIP3   OH223100   1.013   0.343   2.960 -0.4902  0.6251 -0.1655
  562TIP3    H123101   1.108   0.328   2.953 -0.6760 -0.0357 -1.4833
  562TIP3    H223102   0.974   0.264   2.923 -1.5628  1.3890 -0.6837
  563TIP3   OH223103   1.336   4.573   4.799 -0.1433 -0.4605  0.0743
  563TIP3    H123104   1.257   4.613   4.762 -0.1581  0.1498  0.7392
  563TIP3    H223105   1.309   4.483   4.820 -1.2037  0.2256  1.8749
  564TIP3   OH223106   6.718   3.549  15.065  0.0202 -0.1798 -0.2643
  564TIP3    H123107   6.648   3.490  15.036 -0.8144  0.2900  0.7444
  564TIP3    H223108   6.752   3.586  14.984 -1.7545  0.5323 -0.7362
  565TIP3   OH223109   0.623   3.360  14.728  0.2554 -0.0907  0.1077
  565TIP3    H123110   0.655   3.304  14.798  0.6775 -0.6645 -0.5306
  565TIP3    H223111   0.630   3.307  14.649 -0.1865  0.5520 -0.3800
  566TIP3   OH223112   1.620   3.692  13.187  0.0891 -0.5602 -0.1874
  566TIP3    H123113   1.709   3.725  13.171 -0.5637  1.8095  0.6724
  566TIP3    H223114   1.575   3.705  13.104 -0.0286  0.3862  0.0049
  567TIP3   OH223115   5.155   4.772  16.762  0.0611 -0.1124 -0.1570
  567TIP3    H123116   5.111   4.807  16.685 -1.9477 -2.7048 -0.3015
  567TIP3    H223117   5.124   4.826  16.835  0.9111  1.4638 -0.8887
  568TIP3   OH223118   0.208   5.252  11.411 -0.5778  0.1087  0.2889
  568TIP3    H123119   0.253   5.314  11.468  0.6266 -1.3805  1.0492
  568TIP3    H223120   0.116   5.278  11.414 -0.0464  2.1348  0.1517
  569TIP3   OH223121   2.704   0.318  17.090  0.9907 -0.2245 -0.4974
  569TIP3    H123122   2.638   0.266  17.044  0.8903 -0.7115  0.1768
  569TIP3    H223123   2.768   0.342  17.022  0.6744 -0.6462 -0.9508
  570TIP3   OH223124   0.364   6.126  15.612 -0.2159  0.3346 -0.1291
  570TIP3    H123125   0.381   6.215  15.641 -0.3123  0.6421 -1.0087
  570TIP3    H223126   0.329   6.082  15.690  1.0692  0.6922  0.6641
  571TIP3   OH223127   6.381   5.709   3.510 -0.0129  0.4168  0.0471
  571TIP3    H123128   6.468   5.724   3.473  2.1925 -3.7135  2.7041
  571TIP3    H223129   6.344   5.639   3.456  0.1795 -0.6603  1.2447
  572TIP3   OH223130   1.405   6.681  15.561 -0.3249  0.1370  0.0580
  572TIP3    H123131   1.492   6.670  15.598 -0.0778 -1.7845 -0.9504
  572TIP3    H223132   1.412   6.642  15.473 -2.4201 -0.9544  0.3211
  573TIP3   OH223133   1.182   4.765   6.318  0.1091 -0.0100  0.1468
  573TIP3    H123134   1.110   4.814   6.356  1.3697  1.1195  1.1884
  573TIP3    H223135   1.261   4.812   6.346  1.2301 -0.7986 -1.5049
  574TIP3   OH223136   0.006   3.732   4.149  0.1939  0.2889 -0.5460
  574TIP3    H123137   0.053   3.795   4.204  0.0574  0.0060 -0.0977
  574TIP3    H223138   0.067   3.711   4.078  0.2070  0.9846 -0.7437
  575TIP3   OH223139   0.327   5.769   1.941 -0.0917 -0.2587  0.3566
  575TIP3    H123140   0.401   5.823   1.911 -1.5590  0.7689 -1.6532
  575TIP3    H223141   0.315   5.704   1.872 -2.6742  1.2686 -0.7799
  576TIP3   OH223142   6.086   3.038  10.836 -0.3932 -0.3446  0.5349
  576TIP3    H123143   6.084   3.038  10.741 -3.5064 -0.0441  0.4698
  576TIP3    H223144   5.996   3.062  10.861  1.1508  3.2363  3.5446
  577TIP3   OH223145   4.183   0.851   4.390 -0.0538  0.8355 -0.0718
  577TIP3    H123146   4.272   0.860   4.357 -0.7359  0.6600 -2.1150
  577TIP3    H223147   4.183   0.766   4.435  0.3434 -0.0872 -1.7483
  578TIP3   OH223148   4.675   1.590   5.492  0.0801 -0.7660 -0.4057
  578TIP3    H123149   4.604   1.597   5.428 -0.1242  0.4363 -0.0698
  578TIP3    H223150   4.716   1.677   5.492  0.7901 -1.0855  0.2855
  579TIP3   OH223151   0.082   6.357  13.562  0.4966 -0.1579  0.2091
  579TIP3    H123152   0.157   6.417  13.554 -0.3626  1.0390  0.8547
  579TIP3    H223153   0.120   6.270  13.549  1.9160  0.4589  0.0219
  580TIP3   OH223154   1.901   6.225  11.173  0.1817 -0.2412 -0.3827
  580TIP3    H123155   1.854   6.154  11.128 -0.7475  1.0690 -1.5966
  580TIP3    H223156   1.835   6.294  11.183  0.8689  0.2040  1.4203
  581TIP3   OH223157   6.339   4.594  13.934  0.6896  0.5191  0.5939
  581TIP3    H123158   6.358   4.660  14.000  1.4015 -0.7450  1.6859
  581TIP3    H223159   6.317   4.516  13.983  0.7203 -0.3131 -0.6665
  582TIP3   OH223160   4.598   5.320  10.551 -0.6963 -0.5370 -0.2250
  582TIP3    H123161   4.650   5.312  10.470  0.0144  0.2825  0.1369
  582TIP3    H223162   4.635   5.396  10.596  0.4895 -2.3121  2.0033
  583TIP3   OH223163   4.611   0.039  12.117  0.5364 -0.5695 -0.1510
  583TIP3    H123164   4.574  -0.006  12.193  0.3861 -0.4454 -0.1515
  583TIP3    H223165   4.546   0.028  12.048  0.5279 -0.4026 -0.1688
  584TIP3   OH223166   2.505   1.312   4.820 -0.5085  0.6388 -0.7608
  584TIP3    H123167   2.507   1.321   4.725  2.2835 -2.7572 -1.2186
  584TIP3    H223168   2.490   1.219   4.836 -1.5339  1.1858  2.1997
  585TIP3   OH223169   3.417   0.981  14.576 -0.1413  0.1868  0.8649
  585TIP3    H123170   3.425   1.015  14.487  0.9009 -0.0990  0.8363
  585TIP3    H223171   3.360   1.043  14.621  0.7809  1.3308  0.4921
  586TIP3   OH223172   2.658   0.014   6.496 -0.1599 -0.5346  0.1565
  586TIP3    H123173   2.687  -0.034   6.574 -0.2190  0.3777  0.7497
  586TIP3    H223174   2.714   0.091   6.492 -1.4325  0.4417  0.4309
  587TIP3   OH223175   1.977   0.817   1.634 -0.1505  0.2273  0.2235
  587TIP3    H123176   1.910   0.882   1.614  0.9305  1.0839 -0.7844
  587TIP3    H223177   2.024   0.805   1.551 -0.4286 -2.0053  0.3216
  588TIP3   OH223178   2.152   1.112  12.424 -0.0177  0.3126 -0.3899
  588TIP3    H123179   2.100   1.145  12.497 -1.8306 -1.1708 -0.9575
  588TIP3    H223180   2.197   1.035  12.459 -0.2212  0.0967 -0.5988
  589TIP3   OH223181   6.039   1.942  16.495 -0.3223 -0.1393  0.6455
  589TIP3    H123182   6.035   1.907  16.406 -0.1027 -0.2767  0.6886
  589TIP3    H223183   6.072   2.031  16.484  0.1829 -0.3259  0.6295
  590TIP3   OH223184   2.663   3.772  14.187  0.2845  0.2888  0.5606
  590TIP3    H123185   2.632   3.832  14.255 -0.6324  0.2872  0.1518
  590TIP3    H223186   2.591   3.768  14.123 -0.1832 -2.1729  1.1438
  591TIP3   OH223187   3.800   2.370  12.167  0.0235  0.5386  0.3706
  591TIP3    H123188   3.875   2.383  12.109  0.6854 -0.3402  0.9935
  591TIP3    H223189   3.774   2.458  12.193  0.8187  0.8594  0.1253
  592TIP3   OH223190   6.592   3.226   3.024  0.2784  0.2802 -0.6949
  592TIP3    H123191   6.594   3.130   3.018  1.4119  0.3818 -2.6184
  592TIP3    H223192   6.523   3.252   2.963 -1.3412  0.6782  1.1789
  593TIP3   OH223193   2.645   6.672   4.689 -0.3286 -0.4596 -0.2307
  593TIP3    H123194   2.623   6.762   4.713 -0.0270  0.2019 -2.2302
  593TIP3    H223195   2.738   6.664   4.711 -0.4050 -0.3573  0.1381
  594TIP3   OH223196   6.349   4.882  11.203 -0.6360  0.1563 -0.1842
  594TIP3    H123197   6.371   4.803  11.252 -1.5330 -0.1222 -0.2163
  594TIP3    H223198   6.262   4.865  11.167 -0.1720  0.5155 -1.5419
  595TIP3   OH223199   4.627   2.190  14.108  0.8779 -0.1857 -0.2277
  595TIP3    H123200   4.668   2.203  14.194  2.3047 -0.7097 -0.8121
  595TIP3    H223201   4.670   2.253  14.051 -0.3521  0.4416 -0.4986
  596TIP3   OH223202   3.855   3.094   2.040 -0.2113 -0.3584  0.2531
  596TIP3    H123203   3.937   3.133   2.068 -0.4701  1.3216 -1.1439
  596TIP3    H223204   3.804   3.082   2.120  0.2585  1.3688  0.8395
  597TIP3   OH223205   2.584   0.168   3.918  0.4834  0.6093  0.0178
  597TIP3    H123206   2.661   0.224   3.912  2.0627 -1.3805  0.3207
  597TIP3    H223207   2.596   0.121   4.000 -1.9453  1.3967  0.9049
  598TIP3   OH223208   6.622   4.500   5.371  0.5204  0.7105 -0.0965
  598TIP3    H123209   6.714   4.518   5.391  0.5568  0.9236 -0.4436
  598TIP3    H223210   6.596   4.572   5.313  0.8037 -0.5847 -1.9255
  599TIP3   OH223211   1.789   3.038   5.189  0.0367 -0.0352  0.4125
  599TIP3    H123212   1.696   3.021   5.178  0.0570 -0.6720  1.1755
  599TIP3    H223213   1.831   2.954   5.171  0.4197  0.0959  0.6844
  600TIP3   OH223214   1.198   4.690  11.849  0.3384 -0.0945  0.4662
  600TIP3    H123215   1.194   4.645  11.765  0.3657  1.4993 -0.4342
  600TIP3    H223216   1.282   4.738  11.846  0.0945  0.3905  1.1719
  601TIP3   OH223217   0.062   4.294   6.148  0.2176 -0.6304 -0.1442
  601TIP3    H123218   0.083   4.265   6.059 -0.2991 -2.7157  0.3479
  601TIP3    H223219  -0.003   4.363   6.137  1.6681  0.5701 -1.4227
  602TIP3   OH223220   3.860   2.454   5.045 -0.1111  0.3729 -0.1397
  602TIP3    H123221   3.856   2.385   5.112  1.1019  1.5762  1.2526
  602TIP3    H223222   3.820   2.530   5.088 -0.6299  0.7853 -1.3309
  603TIP3   OH223223   2.751   6.194   6.449  0.5210 -0.0948 -0.1326
  603TIP3    H123224   2.842   6.182   6.475 -0.1382 -1.9341  1.6641
  603TIP3    H223225   2.729   6.283   6.479  1.3647 -0.1274  0.6269
  604TIP3   OH223226   2.608   2.760  11.701  0.2026  0.0262 -0.1794
  604TIP3    H123227   2.651   2.684  11.663 -0.8855 -0.4194 -0.5653
  604TIP3    H223228   2.536   2.780  11.640 -1.1804 -0.3032  1.2647
  605TIP3   OH223229   5.149   1.350   5.517  0.7337 -0.4174  0.3546
  605TIP3    H123230   5.186   1.436   5.536 -1.7715  1.1759 -1.3597
  605TIP3    H223231   5.100   1.326   5.596  1.4073 -0.2854  0.8202
  606TIP3   OH223232   3.016   6.097  15.968  0.2235 -0.8300 -0.0011
  606TIP3    H123233   3.070   6.109  15.890  0.7869 -0.6298  0.4151
  606TIP3    H223234   3.071   6.128  16.040  0.0506 -1.8438  0.5820
  607TIP3   OH223235   2.651   3.396   5.170 -0.4875  0.3895  0.1981
  607TIP3    H123236   2.639   3.378   5.077  0.3683 -0.9769  0.3241
  607TIP3    H223237   2.634   3.490   5.179  0.7163  0.8145 -1.5584
  608TIP3   OH223238   3.170   3.307  14.206 -0.0499  1.0003  0.0155
  608TIP3    H123239   3.122   3.335  14.128 -1.0185  0.5912  0.4488
  608TIP3    H223240   3.110   3.326  14.278  0.6567  0.9539  0.6211
  609TIP3   OH223241   4.594   0.143  16.271 -0.1357  0.3130  0.7430
  609TIP3    H123242   4.592   0.235  16.296 -0.9685  0.6919 -0.5902
  609TIP3    H223243   4.568   0.096  16.350  3.4229  0.9126  2.4536
  610TIP3   OH223244   5.682   4.864   2.954 -0.1349 -0.2207  0.5303
  610TIP3    H123245   5.692   4.948   2.999 -0.3182 -0.2456  0.6159
  610TIP3    H223246   5.745   4.868   2.882 -0.2812  0.0671  0.4178
  611TIP3   OH223247   1.558   6.475   5.909  0.2581 -0.1418 -0.5110
  611TIP3    H123248   1.501   6.417   5.960 -0.3669  1.0966  0.2585
  611TIP3    H223249   1.506   6.496   5.831 -0.3781  0.9816  0.1874
  612TIP3   OH223250   4.911   5.308   4.819 -0.0341  0.4746  0.6707
  612TIP3    H123251   4.999   5.346   4.817  0.3009 -0.3066 -0.0578
  612TIP3    H223252   4.926   5.214   4.823 -0.8390  0.3463  0.7519
  613TIP3   OH223253   3.700   0.899  13.595  0.0240 -0.3099 -0.5120
  613TIP3    H123254   3.621   0.896  13.540  0.3548  0.7508 -1.0747
  613TIP3    H223255   3.674   0.951  13.671 -0.7047 -2.5224  0.8559
  614TIP3   OH223256   0.841   1.513  10.787  0.1260 -0.7999 -0.0031
  614TIP3    H123257   0.802   1.575  10.726 -2.8581  0.6097  2.9909
  614TIP3    H223258   0.799   1.429  10.768 -0.7212 -0.3929  0.0339
  615TIP3   OH223259   3.026   4.120   4.983 -0.3944 -0.6412  0.1426
  615TIP3    H123260   3.083   4.053   4.945 -0.8805 -1.5123  0.9218
  615TIP3    H223261   2.946   4.073   5.008 -0.8660  0.2844  0.4366
  616TIP3   OH223262   0.885   6.407  12.036 -0.1568  0.1112  0.1155
  616TIP3    H123263   0.933   6.468  12.092 -0.5448  0.0472  0.5240
  616TIP3    H223264   0.808   6.383  12.087  1.6010 -3.3822  1.4545
  617TIP3   OH223265   3.069   1.376  17.251  0.7010  0.7354  0.3406
  617TIP3    H123266   3.122   1.324  17.191 -0.2759  0.3621 -0.2257
  617TIP3    H223267   3.064   1.323  17.330  0.2925  0.2754  0.0141
  618TIP3   OH223268   6.309   3.199  16.552 -0.9376 -0.7386  0.4724
  618TIP3    H123269   6.304   3.294  16.545  0.1247 -0.6404  0.9687
  618TIP3    H223270   6.395   3.181  16.589 -1.4431 -1.8528  1.1946
  619TIP3   OH223271   0.478   2.612  14.710  0.4822 -0.1303  0.3221
  619TIP3    H123272   0.527   2.681  14.666 -1.5803  1.2204 -0.0183
  619TIP3    H223273   0.420   2.577  14.643  0.1968 -0.9190  0.9565
  620TIP3   OH223274   2.869   3.705   5.084 -0.2045  0.3965 -0.0805
  620TIP3    H123275   2.855   3.653   5.006  0.8186 -0.3128  0.1887
  620TIP3    H223276   2.898   3.642   5.150 -1.7993  0.8422  1.1202
  621TIP3   OH223277   3.857   3.121   1.097  0.6033 -0.9858 -0.4743
  621TIP3    H123278   3.777   3.115   1.150  0.9487  1.1611  0.4082
  621TIP3    H223279   3.826   3.134   1.008 -0.1163  0.7108 -0.0263
  622TIP3   OH223280   5.830   3.340  12.605  0.5229  0.2327 -0.1387
  622TIP3    H123281   5.887   3.366  12.677  0.0850  0.0795  0.2716
  622TIP3    H223282   5.782   3.420  12.583  0.4191  0.2002 -0.0346
  623TIP3   OH223283   0.585   4.430   0.760  0.2482 -0.1482  0.7730
  623TIP3    H123284   0.657   4.401   0.704  1.6692  2.4099  1.1325
  623TIP3    H223285   0.580   4.363   0.829  1.7434 -0.8090  0.2722
  624TIP3   OH223286   1.298   1.223  14.599  0.1568 -0.0572  0.0970
  624TIP3    H123287   1.296   1.205  14.693  0.2107 -1.3656 -0.1263
  624TIP3    H223288   1.358   1.157  14.564  0.5996  0.7995 -0.7870
  625TIP3   OH223289   6.472   4.767   4.043 -0.1449 -0.2723 -0.0516
  625TIP3    H123290   6.458   4.736   4.132 -0.6710 -0.7423 -0.2918
  625TIP3    H223291   6.487   4.861   4.052  2.7006 -0.7042  0.8228
  626TIP3   OH223292   1.778   4.511  12.306 -0.3255 -0.6783  0.0386
  626TIP3    H123293   1.782   4.431  12.358 -2.7004  0.9543  3.0243
  626TIP3    H223294   1.814   4.578  12.364 -1.0406  0.9002 -1.2886
  627TIP3   OH223295   3.194   5.192  16.799  0.3455  0.3545  0.3783
  627TIP3    H123296   3.132   5.227  16.863  0.0642  0.8041 -0.1340
  627TIP3    H223297   3.180   5.245  16.721  0.0057 -0.8053 -0.3711
  628TIP3   OH223298   4.422   0.359  12.535 -0.2182 -0.4528 -0.9743
  628TIP3    H123299   4.510   0.366  12.572 -1.0750  0.5472  1.0034
  628TIP3    H223300   4.386   0.279  12.573 -1.1280  0.6168  0.5073
  629TIP3   OH223301   5.734   1.762  16.403  0.0439  0.2352  0.3296
  629TIP3    H123302   5.647   1.738  16.436 -0.5993  0.8444 -0.8763
  629TIP3    H223303   5.769   1.820  16.471 -1.0540  1.0742  0.2172
  630TIP3   OH223304   2.639   5.323   2.939  0.2701  0.5216 -0.1640
  630TIP3    H123305   2.687   5.391   2.892  0.9109  0.0100 -0.2597
  630TIP3    H223306   2.691   5.306   3.018 -0.1720  0.5215  0.1360
  631TIP3   OH223307   0.444   0.154  16.055  0.4311 -0.0168 -0.2690
  631TIP3    H123308   0.426   0.161  15.961 -0.5668  0.6507 -0.0561
  631TIP3    H223309   0.527   0.200  16.067  1.2927 -1.3457 -1.0165
  632TIP3   OH223310   6.541   3.729   2.360  0.0495 -0.6142 -0.4218
  632TIP3    H123311   6.529   3.691   2.446  1.2342  1.9878  0.9980
  632TIP3    H223312   6.458   3.772   2.340 -0.1640 -1.0682 -0.5271
  633TIP3   OH223313   4.634   3.355   0.358 -0.4550  0.7561 -0.4280
  633TIP3    H123314   4.582   3.312   0.290 -1.2505  1.5020 -0.2949
  633TIP3    H223315   4.701   3.403   0.310  0.5018 -0.6551 -0.5809
  634TIP3   OH223316   2.528   2.743   3.186  0.0795  0.3282  0.0544
  634TIP3    H123317   2.517   2.714   3.095  0.1675  1.9984 -0.5434
  634TIP3    H223318   2.490   2.673   3.239 -0.0895 -0.6285 -1.2793
  635TIP3   OH223319   6.165   0.334  14.623 -0.1155 -1.2167 -0.0077
  635TIP3    H123320   6.215   0.279  14.684  0.2109 -1.4124 -0.4428
  635TIP3    H223321   6.193   0.423  14.642  0.8129 -1.3662 -0.6058
  636TIP3   OH223322   2.896   3.698   4.394 -0.0333  0.3538 -0.1503
  636TIP3    H123323   2.941   3.620   4.362  0.7439  1.2771 -1.4076
  636TIP3    H223324   2.963   3.747   4.440 -0.4186  0.4728  0.2817
  637TIP3   OH223325   4.277   2.939  12.170  0.6130 -0.1930 -0.3154
  637TIP3    H123326   4.261   3.015  12.115 -1.8977 -0.7403 -0.4584
  637TIP3    H223327   4.298   2.869  12.109 -0.3557 -0.3699 -0.4571
  638TIP3   OH223328   1.877   3.300   4.127 -0.2864 -0.1839 -0.0317
  638TIP3    H123329   1.899   3.224   4.181  0.4329  0.5902  0.7831
  638TIP3    H223330   1.870   3.373   4.188  2.5467  1.1556 -1.1199
  639TIP3   OH223331   3.253   5.025  14.440 -0.3320  0.1347  0.6670
  639TIP3    H123332   3.189   5.063  14.500  0.2429  0.7104  0.9274
  639TIP3    H223333   3.304   5.100  14.409 -1.1696 -0.0192 -1.2388
  640TIP3   OH223334   0.173   3.815   3.432 -0.5361 -0.0967 -0.0637
  640TIP3    H123335   0.163   3.903   3.397  0.5863  0.0436 -0.0411
  640TIP3    H223336   0.083   3.787   3.452 -0.8135  1.6506  1.4231
  641TIP3   OH223337   3.176   1.864   2.908  0.4849  0.1605 -0.6421
  641TIP3    H123338   3.233   1.798   2.948 -0.7481 -0.6957 -0.2552
  641TIP3    H223339   3.225   1.946   2.917  0.7196 -0.1632  1.6828
  642TIP3   OH223340   3.753   1.490   5.995  0.1237 -0.2680  0.4276
  642TIP3    H123341   3.833   1.453   6.033  1.9317 -0.8891 -3.5233
  642TIP3    H223342   3.784   1.557   5.934 -2.1918 -1.3211 -2.1274
  643TIP3   OH223343   4.085   0.882  11.612  0.1801 -0.5458  0.2252
  643TIP3    H123344   4.111   0.969  11.580  0.8396 -1.2943 -1.3512
  643TIP3    H223345   4.015   0.854  11.553 -0.8759 -0.6027  1.4712
  644TIP3   OH223346   2.060   1.859  10.879 -0.4116  0.2801 -0.2688
  644TIP3    H123347   2.139   1.854  10.825 -0.5975 -0.8223 -0.4769
  644TIP3    H223348   2.092   1.866  10.969 -0.0950  1.2343 -0.4447
  645TIP3   OH223349   0.393   3.030  13.735 -0.0901  0.4274  0.1243
  645TIP3    H123350   0.439   3.088  13.674 -1.7846 -1.1952 -2.8939
  645TIP3    H223351   0.335   3.088  13.784 -0.1997  1.5369 -1.2871
  646TIP3   OH223352   4.790   5.281   0.511  0.7203  0.2431  0.0669
  646TIP3    H123353   4.885   5.286   0.501  0.7858 -1.0951 -0.2208
  646TIP3    H223354   4.756   5.334   0.440  1.2574  0.1266 -0.2859
  647TIP3   OH223355   2.331   6.632   0.345 -0.3014 -0.1121  0.0162
  647TIP3    H123356   2.394   6.596   0.408  1.1259  1.0592 -0.6827
  647TIP3    H223357   2.254   6.654   0.398  0.9817  1.1370  1.4747
  648TIP3   OH223358   6.242   3.981   1.321  0.1464  0.1524 -0.4856
  648TIP3    H123359   6.223   3.888   1.324 -0.0479  0.2071  0.2981
  648TIP3    H223360   6.285   3.999   1.405 -1.4352  1.1044  0.1634
  649TIP3   OH223361   1.160   5.359  13.807  0.4110  0.0381 -0.5991
  649TIP3    H123362   1.168   5.329  13.898 -0.7272  0.7137 -0.2528
  649TIP3    H223363   1.140   5.280  13.758  0.4307 -0.2384 -0.1724
  650TIP3   OH223364   4.956   4.886   1.481  0.4266 -0.1650 -0.6499
  650TIP3    H123365   4.923   4.975   1.490  0.4866 -0.2265  0.2753
  650TIP3    H223366   4.881   4.835   1.453  0.3724  0.1636 -1.1051
  651TIP3   OH223367   0.550   5.503  11.237  0.4084 -0.2869  0.4763
  651TIP3    H123368   0.502   5.425  11.263 -0.5828  0.1351 -0.0220
  651TIP3    H223369   0.482   5.570  11.226  1.3559  1.0760  2.3775
  652TIP3   OH223370   5.319   1.866  12.416 -0.0135  1.2153  0.1151
  652TIP3    H123371   5.255   1.937  12.417 -0.9277  0.4413 -0.2074
  652TIP3    H223372   5.266   1.787  12.433  1.2072  0.7664  2.1405
  653TIP3   OH223373   2.224   3.190  14.924 -0.2278 -0.7189 -0.6751
  653TIP3    H123374   2.130   3.188  14.940 -0.4770  1.5304 -1.4804
  653TIP3    H223375   2.248   3.282  14.936  1.7190 -1.1063 -1.3073
  654TIP3   OH223376   0.095   5.454   2.211  0.1380 -0.4026 -0.0100
  654TIP3    H123377   0.066   5.371   2.250 -1.5939 -0.0734 -0.5104
  654TIP3    H223378   0.099   5.436   2.117 -1.9945  0.4862 -0.3436
  655TIP3   OH223379   4.228   3.696   1.941  0.2050 -0.6271  0.1619
  655TIP3    H123380   4.296   3.760   1.922 -0.2781 -0.4550 -1.0581
  655TIP3    H223381   4.148   3.747   1.954 -0.0367 -0.9241 -0.1100
  656TIP3   OH223382   3.325   5.691   5.514  0.4695 -0.0208  0.1000
  656TIP3    H123383   3.345   5.601   5.487  1.0158 -0.4400  1.8312
  656TIP3    H223384   3.229   5.696   5.509  0.4855 -0.4067 -0.8434
  657TIP3   OH223385   4.743   1.804  13.111 -0.5172  0.2849  0.2073
  657TIP3    H123386   4.733   1.737  13.178 -0.0529 -1.5629 -1.4722
  657TIP3    H223387   4.834   1.832  13.117 -0.7157  0.7984  0.9208
  658TIP3   OH223388   4.029   6.514  11.880 -0.1733  0.1100 -0.2118
  658TIP3    H123389   4.023   6.460  11.959  0.4169 -1.1314 -0.9845
  658TIP3    H223390   3.959   6.482  11.824  0.4947 -0.2272 -0.8799
  659TIP3   OH223391   3.876   1.530   1.996  0.1899 -0.0646  0.1310
  659TIP3    H123392   3.945   1.549   2.059  0.5034 -0.1816 -0.1754
  659TIP3    H223393   3.810   1.598   2.011  0.6331  0.3917  0.0296
  660TIP3   OH223394   6.419   5.847  13.242  0.0644 -0.8134 -0.7690
  660TIP3    H123395   6.473   5.782  13.196  1.2097  0.9628 -2.0765
  660TIP3    H223396   6.483   5.903  13.287 -0.9501 -1.2334  1.3229
  661TIP3   OH223397   6.674   5.583   3.349 -0.1858  0.5521  0.0267
  661TIP3    H123398   6.704   5.630   3.427  0.5132  0.0753  0.0539
  661TIP3    H223399   6.755   5.558   3.305 -0.5809  0.7554 -0.8183
  662TIP3   OH223400   2.158   0.132  12.293  0.2069 -0.4857 -0.1926
  662TIP3    H123401   2.127   0.086  12.215  2.1344  1.7005 -2.4203
  662TIP3    H223402   2.246   0.098  12.307 -0.6363 -1.9501  2.0756
  663TIP3   OH223403   4.958   1.235  13.622  0.4629  0.0258 -0.3592
  663TIP3    H123404   4.902   1.158  13.609  2.3955 -1.3796 -0.8083
  663TIP3    H223405   4.996   1.252  13.536  2.3567 -0.4131  0.3402
  664TIP3   OH223406   1.593   5.393  17.079 -0.2686  0.1359  0.2109
  664TIP3    H123407   1.654   5.426  17.013  0.3483 -1.8533 -0.2730
  664TIP3    H223408   1.649   5.368  17.153 -0.5096 -1.2659 -0.0531
  665TIP3   OH223409   2.756   3.409  16.660 -0.1599 -0.2792  0.7314
  665TIP3    H123410   2.703   3.391  16.737  1.5210 -1.6702  1.6349
  665TIP3    H223411   2.741   3.334  16.603  0.3032 -0.3575  0.7059
  666TIP3   OH223412   1.727   0.987   6.806  0.4342 -0.2264 -0.1913
  666TIP3    H123413   1.781   1.019   6.733  0.4009  1.3611  0.4419
  666TIP3    H223414   1.654   1.049   6.810 -1.1920 -2.0073 -0.6750
  667TIP3   OH223415   3.143   4.908  16.525  0.7851  0.2208 -0.2540
  667TIP3    H123416   3.060   4.876  16.561  0.8103  0.3974 -0.0295
  667TIP3    H223417   3.132   4.905  16.431 -0.2993  2.2647 -0.2538
  668TIP3   OH223418   4.171   0.966   1.934 -0.2507 -0.0697  0.9215
  668TIP3    H123419   4.179   0.942   1.841 -2.9937  1.0643  0.2869
  668TIP3    H223420   4.243   1.028   1.948 -1.1641  1.6311 -1.2030
  669TIP3   OH223421   3.473   2.146  13.632 -0.0634  0.4970  0.0994
  669TIP3    H123422   3.419   2.224  13.640 -0.4784  0.1788  0.5088
  669TIP3    H223423   3.519   2.139  13.716 -0.7152 -0.1820  0.4180
  670TIP3   OH223424   4.093   3.686  11.135 -0.2723 -0.5412  0.0174
  670TIP3    H123425   4.025   3.747  11.104 -0.3692 -0.3096  0.6654
  670TIP3    H223426   4.175   3.722  11.101 -0.5330 -1.3497 -1.6046
  671TIP3   OH223427   5.782   5.390   0.161  0.4565 -0.0013 -0.2116
  671TIP3    H123428   5.711   5.328   0.178  0.9632 -1.3998 -2.8159
  671TIP3    H223429   5.818   5.409   0.248 -1.5722 -1.0314  0.9480
  672TIP3   OH223430   5.046   1.552  11.310  0.2435 -0.4963 -0.6414
  672TIP3    H123431   4.982   1.499  11.263 -1.9153  2.4163 -1.2501
  672TIP3    H223432   5.015   1.552  11.401 -0.8503  1.0954 -0.9772
  673TIP3   OH223433   1.553   1.383  15.640  0.3871 -0.8603 -0.3374
  673TIP3    H123434   1.465   1.383  15.602 -0.5470 -1.9679  1.6549
  673TIP3    H223435   1.611   1.408  15.568 -1.4732 -0.8005 -1.8819
  674TIP3   OH223436   4.239   3.110   0.403 -0.2572 -0.6802 -0.1206
  674TIP3    H123437   4.202   3.173   0.341  1.2259 -1.4196 -1.8655
  674TIP3    H223438   4.164   3.062   0.437 -1.1634  0.1124 -0.9449
  675TIP3   OH223439   0.051   3.345  14.858 -0.7147 -0.0648 -0.4932
  675TIP3    H123440   0.139   3.371  14.834 -0.6127 -2.1491 -2.7113
  675TIP3    H223441  -0.005   3.416  14.825  0.0591  1.3243  1.0299
  676TIP3   OH223442   2.225   3.976  14.634  0.6133  0.8192  0.6341
  676TIP3    H123443   2.251   4.069  14.635  2.3930  0.4022 -1.2884
  676TIP3    H223444   2.187   3.962  14.547  0.3227 -0.2578  0.9188
  677TIP3   OH223445   3.537   5.202   1.920 -0.3251  0.3303 -0.1116
  677TIP3    H123446   3.596   5.128   1.932  0.5682  1.1763  1.0371
  677TIP3    H223447   3.463   5.183   1.977 -0.5995 -0.1588 -0.6211
  678TIP3   OH223448   3.723   5.623   5.557  0.3021  0.7105 -0.1814
  678TIP3    H123449   3.809   5.635   5.596  0.9393  0.3270 -1.4259
  678TIP3    H223450   3.714   5.695   5.495 -0.0087  0.3987 -0.5036
  679TIP3   OH223451   2.729   5.940  16.224 -0.7461  0.0011  0.4501
  679TIP3    H123452   2.815   5.968  16.254 -0.4771 -1.7850  1.4657
  679TIP3    H223453   2.672   5.951  16.300 -1.0533 -0.3612  0.2767
  680TIP3   OH223454   6.168   3.262  14.270 -0.1000  0.5207  0.0084
  680TIP3    H123455   6.199   3.281  14.359 -0.3622  2.4507 -0.2631
  680TIP3    H223456   6.247   3.252  14.218  0.0531 -0.0382  0.3429
  681TIP3   OH223457   5.818   5.570   2.115  0.4447  0.2890  0.1904
  681TIP3    H123458   5.809   5.533   2.027  3.4586  1.3656 -0.6777
  681TIP3    H223459   5.887   5.518   2.155 -0.3557  0.3284  1.6743
  682TIP3   OH223460   0.099   0.007  15.174 -0.0106 -0.2193 -0.0435
  682TIP3    H123461   0.082   0.101  15.165  1.6085  0.1670  0.6283
  682TIP3    H223462   0.012  -0.033  15.170 -0.6655  1.2122 -1.2242
  683TIP3   OH223463   5.707   0.060  11.550  0.0403 -0.2158  0.6548
  683TIP3    H123464   5.662  -0.012  11.593 -1.4948 -0.0197 -0.5446
  683TIP3    H223465   5.667   0.139  11.586 -2.2742 -0.0391 -1.9662
  684TIP3   OH223466   2.845   6.500   5.001 -0.0448 -0.7288  0.6301
  684TIP3    H123467   2.934   6.509   4.967  0.0882 -0.1131  1.1038
  684TIP3    H223468   2.848   6.421   5.055  0.4896 -0.1910  1.4192
  685TIP3   OH223469   2.826   4.676  12.141 -0.2066 -0.3865 -0.1695
  685TIP3    H123470   2.797   4.590  12.172  0.1500 -0.3884  0.1596
  685TIP3    H223471   2.829   4.666  12.045 -0.3725 -0.6768 -0.1471
  686TIP3   OH223472   0.299   2.395   2.771 -0.2895  0.5235  0.0058
  686TIP3    H123473   0.219   2.399   2.720 -0.8099 -0.5325  0.7028
  686TIP3    H223474   0.369   2.403   2.706 -0.8368 -3.6017 -1.3765
  687TIP3   OH223475   3.200   5.367  14.508  0.4629  0.5259  0.1495
  687TIP3    H123476   3.287   5.345  14.542  0.0855  0.1399  0.8625
  687TIP3    H223477   3.158   5.415  14.579  0.1442  0.8579 -0.2566
  688TIP3   OH223478   1.140   2.878  13.445  0.1049 -0.0595  0.3197
  688TIP3    H123479   1.161   2.873  13.352  0.0917 -0.2099  0.3252
  688TIP3    H223480   1.221   2.851  13.489  0.2614  0.4703  0.3614
  689TIP3   OH223481   0.681   3.986   5.232 -0.4892  0.2598  0.0709
  689TIP3    H123482   0.631   4.026   5.303 -1.2670  0.4465 -0.5666
  689TIP3    H223483   0.615   3.950   5.173  0.1365  0.2322 -0.6323
  690TIP3   OH223484   2.377   5.603   1.750  0.1994 -0.1001  0.7072
  690TIP3    H123485   2.312   5.608   1.679 -0.1231  0.9489  1.0619
  690TIP3    H223486   2.349   5.528   1.802 -1.0356  0.6394  1.1386
  691TIP3   OH223487   4.086   3.058   4.616 -0.2819  0.1840 -0.2215
  691TIP3    H123488   4.008   3.105   4.587 -0.4552 -0.2694 -0.5109
  691TIP3    H223489   4.063   2.965   4.605 -1.3448 -0.1935  3.8192
  692TIP3   OH223490   6.692   6.392   4.652  0.3508  0.5454 -0.3300
  692TIP3    H123491   6.600   6.419   4.648  0.6141  1.5430  0.2110
  692TIP3    H223492   6.736   6.447   4.586  0.7289  0.7826  0.1185
  693TIP3   OH223493   3.963   2.446  12.581  0.2757 -0.0225 -1.0369
  693TIP3    H123494   3.984   2.355  12.561 -1.3891 -1.0123  1.2776
  693TIP3    H223495   4.004   2.462  12.665 -0.5805  0.9276 -0.7819
  694TIP3   OH223496   1.483   2.256   1.170 -0.4556  0.5702 -1.2047
  694TIP3    H123497   1.430   2.179   1.148  0.1321 -0.4692  0.7600
  694TIP3    H223498   1.553   2.256   1.105 -1.8026  0.9204 -2.7227
  695TIP3   OH223499   2.838   1.408   0.890 -0.1384 -0.5911  0.0969
  695TIP3    H123500   2.797   1.338   0.941  0.9740  0.6540  2.9041
  695TIP3    H223501   2.783   1.484   0.906  1.6536  0.4465  1.6711
  696TIP3   OH223502   6.319   4.311  12.277  0.3845 -0.1961 -0.2898
  696TIP3    H123503   6.294   4.358  12.198 -0.1621 -0.9077 -0.5540
  696TIP3    H223504   6.238   4.303  12.327  0.5226 -0.6177 -0.1270
  697TIP3   OH223505   3.948   5.154   5.625 -0.6596 -0.3948  0.0789
  697TIP3    H123506   3.969   5.220   5.691  0.6391  0.1423 -0.8407
  697TIP3    H223507   4.032   5.114   5.603 -1.1020 -0.7421 -1.0658
  698TIP3   OH223508   3.133   3.077   3.274 -0.4530  0.8900 -0.6920
  698TIP3    H123509   3.084   3.084   3.355 -0.1317  1.7261 -0.5576
  698TIP3    H223510   3.224   3.086   3.300 -0.3417  1.0543 -1.1294
  699TIP3   OH223511   5.616   1.940  11.876  0.0465  0.1826  0.1983
  699TIP3    H123512   5.574   1.899  11.952 -0.8216  0.1857 -0.2752
  699TIP3    H223513   5.683   1.997  11.915 -3.2972  3.7644  1.3458
  700TIP3   OH223514   1.509   2.916  14.316 -0.1027  0.0267 -0.0923
  700TIP3    H123515   1.488   2.905  14.223 -1.3834  0.3960  0.1311
  700TIP3    H223516   1.443   2.862  14.361 -0.8046  1.4692  0.6651
  701TIP3   OH223517   2.944   1.761  17.237 -0.1526 -0.1360  0.0672
  701TIP3    H123518   2.988   1.842  17.266 -0.0519 -0.1706  0.0119
  701TIP3    H223519   2.929   1.774  17.144 -0.3485 -0.0841  0.1053
  702TIP3   OH223520   1.601   0.782   3.534  0.7051  0.6846  0.0501
  702TIP3    H123521   1.579   0.693   3.560  1.7362 -0.2504 -2.0197
  702TIP3    H223522   1.569   0.789   3.444  0.3126  2.5636  0.2839
  703TIP3   OH223523   0.516   3.003  14.320  0.3877 -0.4927 -0.0903
  703TIP3    H123524   0.545   2.913  14.303  0.0344 -0.2649 -2.0665
  703TIP3    H223525   0.584   3.058  14.283 -0.6954  0.0370 -1.3620
  704TIP3   OH223526   6.360   6.584  17.192  0.3884 -0.2565  0.3816
  704TIP3    H123527   6.290   6.582  17.258  1.6873  1.4998  1.9379
  704TIP3    H223528   6.382   6.677  17.183  2.1996 -0.7194 -0.3851
  705TIP3   OH223529   2.222   3.520   4.614 -0.2143 -0.4462  0.4981
  705TIP3    H123530   2.130   3.544   4.625 -0.5091 -0.2517 -1.8488
  705TIP3    H223531   2.220   3.432   4.577  0.4952 -0.1488 -0.2893
  706TIP3   OH223532   3.202   2.568  11.888 -0.4115  0.3107 -0.5025
  706TIP3    H123533   3.116   2.608  11.879  0.6042  2.6496 -0.7289
  706TIP3    H223534   3.248   2.592  11.808 -0.1461 -2.6627 -1.3316
  707TIP3   OH223535   4.299   4.126   1.310  0.4388  0.0103  0.3758
  707TIP3    H123536   4.223   4.072   1.289 -1.8747  2.8131  0.8700
  707TIP3    H223537   4.340   4.144   1.225 -0.0944 -0.6271 -0.0250
  708TIP3   OH223538   0.889   3.392  14.466  0.6665 -0.1118  0.1288
  708TIP3    H123539   0.800   3.359  14.451  0.5517  1.5334 -4.2192
  708TIP3    H223540   0.931   3.324  14.519 -2.8620 -1.3146  1.7105
  709TIP3   OH223541   6.241   3.392  12.071 -0.5778  0.2640 -0.0722
  709TIP3    H123542   6.262   3.382  11.978 -1.2248 -1.0035 -0.1108
  709TIP3    H223543   6.215   3.483  12.080  0.9314  0.8046 -0.8207
  710TIP3   OH223544   3.458   5.299  12.486  0.0367 -0.6157  0.1172
  710TIP3    H123545   3.455   5.361  12.559 -1.3116 -1.3857  0.7614
  710TIP3    H223546   3.547   5.306  12.451  0.0578  1.3073  0.4827
  711TIP3   OH223547   2.239   3.870  14.870  0.3901  0.6372  0.1811
  711TIP3    H123548   2.329   3.893  14.891  0.2237  1.2809  0.2159
  711TIP3    H223549   2.219   3.920  14.791  0.0991  0.4311  0.1244
  712TIP3   OH223550   5.944   1.741   5.418  0.6254 -0.1700 -0.8753
  712TIP3    H123551   5.899   1.824   5.436  0.2664 -0.0413 -2.2545
  712TIP3    H223552   5.936   1.691   5.499 -1.4748  0.0935 -0.8638
  713TIP3   OH223553   1.562   4.691   3.076  0.1532  0.2213 -0.0741
  713TIP3    H123554   1.620   4.688   3.000 -1.4779 -0.8731 -1.3419
  713TIP3    H223555   1.598   4.626   3.137 -0.0294 -0.8549 -1.0845
  714TIP3   OH223556   1.671   1.993  14.485 -0.5680 -0.5070 -0.1123
  714TIP3    H123557   1.737   2.026  14.546 -0.8081 -1.7738  0.8880
  714TIP3    H223558   1.614   2.067  14.469 -0.1801  0.0094  0.7910
  715TIP3   OH223559   3.002   2.566   2.348 -0.2780  0.0188  0.1241
  715TIP3    H123560   3.013   2.610   2.432  0.2891 -2.5062  1.4606
  715TIP3    H223561   2.908   2.546   2.345 -0.3365  0.2971  0.0422
  716TIP3   OH223562   4.301   4.288  15.451 -0.1785 -0.4830  0.7884
  716TIP3    H123563   4.206   4.282  15.463 -0.1299  0.3676  1.6578
  716TIP3    H223564   4.317   4.242  15.368 -1.0164 -2.9473  1.9029
  717TIP3   OH223565   1.861   6.135   2.398 -0.0250 -0.0715  0.6437
  717TIP3    H123566   1.791   6.111   2.336  0.5919  0.7470 -0.3988
  717TIP3    H223567   1.885   6.224   2.374  1.8057 -0.5456  0.5724
  718TIP3   OH223568   1.419   5.339   5.063 -0.2981  0.3069 -0.0786
  718TIP3    H123569   1.459   5.266   5.016 -1.4740 -0.3999 -0.0208
  718TIP3    H223570   1.459   5.336   5.150  0.7538  0.6798 -0.5225
  719TIP3   OH223571   1.606   6.671   5.002  0.1977 -0.6929 -0.2760
  719TIP3    H123572   1.521   6.710   5.023 -0.0816 -0.7803 -1.2153
  719TIP3    H223573   1.670   6.740   5.024 -0.2875  0.3141 -1.8664
  720TIP3   OH223574   6.594   1.857   0.697 -1.0227 -0.1439  0.6549
  720TIP3    H123575   6.510   1.811   0.699 -0.3039 -1.4812  1.5364
  720TIP3    H223576   6.581   1.933   0.754 -1.4733 -0.6357  1.2170
  721TIP3   OH223577   0.056   5.992  15.453  0.1901 -0.2635 -0.1916
  721TIP3    H123578   0.120   6.025  15.390 -0.3885  1.4070  0.0564
  721TIP3    H223579   0.003   5.930  15.403  1.4665 -1.0779 -0.6041
  722TIP3   OH223580   6.610   4.130   3.261 -0.4060  0.1826 -0.4425
  722TIP3    H123581   6.652   4.121   3.175 -1.4290 -1.9676 -0.7805
  722TIP3    H223582   6.557   4.051   3.271 -1.1090  0.8417  1.7609
  723TIP3   OH223583   1.359   2.376   4.285  0.1963 -0.3806  0.2841
  723TIP3    H123584   1.279   2.393   4.333 -1.0298 -0.4074 -1.6303
  723TIP3    H223585   1.383   2.461   4.247  0.6753 -0.5186  0.2670
  724TIP3   OH223586   3.115   6.144  11.450 -0.2095 -0.5529 -0.5637
  724TIP3    H123587   3.203   6.162  11.417  0.7772  1.5600  2.6854
  724TIP3    H223588   3.124   6.060  11.497  0.6059  0.4391  1.1490
  725TIP3   OH223589   2.934   0.788   1.465  0.6522 -0.3976  0.0294
  725TIP3    H123590   2.882   0.729   1.410  2.0511 -1.1264 -0.5677
  725TIP3    H223591   3.022   0.782   1.429  1.3452  0.1023  1.5824
  726TIP3   OH223592   0.934   1.124   4.806  0.4067 -0.2599 -0.1544
  726TIP3    H123593   0.889   1.090   4.728  0.3550  1.0420 -0.7182
  726TIP3    H223594   1.009   1.172   4.771 -0.5446  1.7622  0.4553
  727TIP3   OH223595   2.129   4.282  16.678 -0.3009 -0.2721  0.3042
  727TIP3    H123596   2.143   4.330  16.760 -1.6643 -0.6118  0.7655
  727TIP3    H223597   2.217   4.255  16.651  0.2723  0.6692  1.1408
  728TIP3   OH223598   5.466   2.231  16.199 -0.4152 -0.1460  0.4053
  728TIP3    H123599   5.482   2.163  16.264 -0.0435 -0.4035  0.0455
  728TIP3    H223600   5.398   2.195  16.142 -0.3135 -0.1619  0.2947
  729TIP3   OH223601   1.724   4.482   3.215 -0.6524  0.8502  0.4715
  729TIP3    H123602   1.807   4.478   3.261 -1.0353 -1.1413  1.0688
  729TIP3    H223603   1.667   4.421   3.263 -1.2758 -0.8080 -2.1877
  730TIP3   OH223604   4.422   3.934  16.443  0.4090 -0.3950 -0.2424
  730TIP3    H123605   4.361   3.949  16.371  1.2094 -1.0238 -1.0655
  730TIP3    H223606   4.447   3.842  16.435  0.0561 -0.6496  1.2062
  731TIP3   OH223607   1.044   3.046  11.743  0.3645 -0.2259  0.1408
  731TIP3    H123608   1.131   3.067  11.710  0.3361  0.1917  0.3175
  731TIP3    H223609   1.029   3.111  11.812 -0.1739 -0.1582 -0.0358
  732TIP3   OH223610   0.987   5.100   2.102 -0.2924 -0.0788 -0.2019
  732TIP3    H123611   1.033   5.073   2.181 -0.8462  0.5252  0.3428
  732TIP3    H223612   0.965   5.192   2.117 -1.4552 -0.2847 -0.5370
  733TIP3   OH223613   2.573   3.532  12.860  0.1581 -0.2182 -0.0476
  733TIP3    H123614   2.633   3.512  12.932 -1.5717 -1.6776  1.0849
  733TIP3    H223615   2.622   3.512  12.781  1.6517  0.1009  0.7584
  734TIP3   OH223616   6.243   2.749  16.821  0.0838 -0.4136  0.0381
  734TIP3    H123617   6.197   2.702  16.891  0.7141 -1.0873  0.0148
  734TIP3    H223618   6.228   2.696  16.743  0.3128 -0.2636 -0.1093
  735TIP3   OH223619   2.316   6.592   2.098  1.0167  0.2326  0.1942
  735TIP3    H123620   2.409   6.609   2.082  1.5308 -2.1165  0.3569
  735TIP3    H223621   2.307   6.497   2.090 -1.4813  0.4345 -0.3041
  736TIP3   OH223622   2.782   3.199   3.821 -1.0908  0.7051  0.1838
  736TIP3    H123623   2.703   3.214   3.770 -0.7296 -0.0931 -0.6327
  736TIP3    H223624   2.780   3.106   3.843  0.4077  0.2946 -1.2366
  737TIP3   OH223625   3.665   6.722  14.863 -0.4976 -1.2285 -0.2918
  737TIP3    H123626   3.733   6.788  14.847 -1.3567  0.4168  2.2163
  737TIP3    H223627   3.609   6.727  14.785  0.4236 -0.2339 -0.9223
  738TIP3   OH223628   0.674   2.730  10.815  0.2963  0.1941  0.1883
  738TIP3    H123629   0.649   2.720  10.724  3.4168  0.2538 -0.7891
  738TIP3    H223630   0.626   2.661  10.861 -0.4842 -0.5648 -1.6827
  739TIP3   OH223631   0.144   5.884   4.529 -0.7451 -0.2899 -0.4858
  739TIP3    H123632   0.069   5.927   4.569 -0.8492 -0.2359 -0.7331
  739TIP3    H223633   0.189   5.841   4.601 -0.7522  0.0691 -0.2670
  740TIP3   OH223634   1.267   1.009   4.267 -0.3356 -0.1907  0.5552
  740TIP3    H123635   1.267   1.091   4.316 -0.6358  0.2356 -0.1360
  740TIP3    H223636   1.359   0.992   4.246 -0.3268  0.2587  0.2318
  741TIP3   OH223637   5.305   0.669  15.227 -0.6205  0.2218  0.2585
  741TIP3    H123638   5.376   0.720  15.267 -0.8415  0.3751  0.4569
  741TIP3    H223639   5.319   0.580  15.259 -0.7326  0.3222  0.5922
  742TIP3   OH223640   5.539   3.757  16.858  0.6773 -0.1350  0.6091
  742TIP3    H123641   5.465   3.709  16.895  0.8518  0.4134  1.7150
  742TIP3    H223642   5.614   3.728  16.909  1.0847 -0.0326  0.0783
  743TIP3   OH223643   1.175   1.380  12.763  0.0353 -0.0866  0.3452
  743TIP3    H123644   1.239   1.451  12.758 -0.6015  0.4549 -0.2292
  743TIP3    H223645   1.179   1.338  12.676  0.4780 -0.8278  0.7081
  744TIP3   OH223646   4.443   3.025  16.643  0.3084  0.2006 -0.5703
  744TIP3    H123647   4.513   3.061  16.588  2.2018 -0.4117  1.2732
  744TIP3    H223648   4.378   3.095  16.648  3.1105  2.9540  1.5729
  745TIP3   OH223649   3.944   4.984   0.984 -0.1002  0.1250  1.0773
  745TIP3    H123650   3.956   5.045   1.057 -0.2122  0.0813  1.1317
  745TIP3    H223651   3.969   5.034   0.906 -0.9648  0.4985  1.0330
  746TIP3   OH223652   5.497   1.387  12.212 -0.3886 -0.0265 -0.4862
  746TIP3    H123653   5.459   1.300  12.227  0.2891 -0.3461 -0.5900
  746TIP3    H223654   5.523   1.416  12.300 -0.3448 -0.0509 -0.4910
  747TIP3   OH223655   5.197   0.113   4.369  0.2252 -0.5060 -0.6079
  747TIP3    H123656   5.279   0.136   4.414 -0.6743 -0.6289  1.1759
  747TIP3    H223657   5.217   0.125   4.276  1.3494  2.5067 -0.0873
  748TIP3   OH223658   5.526   5.237   0.210 -0.0488  0.2315 -0.0334
  748TIP3    H123659   5.524   5.238   0.306  0.4726  0.4815 -0.0180
  748TIP3    H223660   5.442   5.274   0.183  0.2894  1.3171  0.3417
  749TIP3   OH223661   6.713   4.426  12.457 -0.2532 -0.1185 -0.0277
  749TIP3    H123662   6.775   4.451  12.525  0.0497  1.1523 -0.7417
  749TIP3    H223663   6.667   4.350  12.493  1.2143 -0.6502  0.7957
  750TIP3   OH223664   5.894   0.394   3.083 -0.2880 -0.3209 -0.2491
  750TIP3    H123665   5.810   0.429   3.054 -0.8526 -2.9535 -2.1542
  750TIP3    H223666   5.872   0.325   3.144  0.5910 -0.0568  0.3912
  751TIP3   OH223667   3.385   1.772   1.532 -0.6547  0.3720 -0.2047
  751TIP3    H123668   3.410   1.708   1.464  0.1277  0.9486 -0.4737
  751TIP3    H223669   3.429   1.853   1.505 -1.6758  1.0435  0.1067
  752TIP3   OH223670   4.860   5.962   2.636  0.1630  0.5718 -0.1122
  752TIP3    H123671   4.893   5.886   2.589 -1.7298 -1.5297  1.7277
  752TIP3    H223672   4.867   6.034   2.573  1.1482 -1.2829 -2.2638
  753TIP3   OH223673   1.672   2.327   2.582  0.6029  0.0294  0.1222
  753TIP3    H123674   1.724   2.323   2.503  1.4459 -0.7214  0.6911
  753TIP3    H223675   1.710   2.260   2.639  0.2322  0.7811  1.2866
  754TIP3   OH223676   2.167   1.859   5.078  0.3129 -0.4463  0.1264
  754TIP3    H123677   2.257   1.828   5.067  0.2919 -0.3522 -0.3254
  754TIP3    H223678   2.125   1.792   5.133  0.3529 -1.0651 -0.5884
  755TIP3   OH223679   2.933   0.060  16.838 -0.4999 -0.5433 -0.2260
  755TIP3    H123680   2.883  -0.015  16.869 -1.5916  0.3239  0.2219
  755TIP3    H223681   2.967   0.101  16.917 -0.3833 -0.2566 -0.4237
  756TIP3   OH223682   5.810   4.055  11.869  0.5097 -0.3042 -0.4132
  756TIP3    H123683   5.794   4.045  11.775 -3.0642 -2.2286  0.2133
  756TIP3    H223684   5.759   4.132  11.894  2.9349  1.3453 -0.2220
  757TIP3   OH223685   2.744   6.220   0.118  0.2062  0.7276  0.1362
  757TIP3    H123686   2.800   6.296   0.105 -0.8974  1.5511  0.0924
  757TIP3    H223687   2.799   6.145   0.093  1.2214  1.5199 -0.0602
  758TIP3   OH223688   4.900   1.478  14.672  0.5256  0.6582  0.1194
  758TIP3    H123689   4.857   1.454  14.590  1.6255  0.2703 -0.3642
  758TIP3    H223690   4.969   1.412  14.683  1.6973  1.8816  0.3098
  759TIP3   OH223691   0.879   4.341   5.330 -0.3129  0.2614  0.0903
  759TIP3    H123692   0.936   4.308   5.261  0.4738  1.6428  0.0403
  759TIP3    H223693   0.915   4.426   5.353  0.6720 -0.9091  3.6149
  760TIP3   OH223694   3.350   0.748   4.821 -0.5639 -0.4365  0.0230
  760TIP3    H123695   3.286   0.761   4.751  1.9841 -0.5833 -2.5268
  760TIP3    H223696   3.378   0.837   4.844  0.7923 -0.4553 -1.4148
  761TIP3   OH223697   6.251   3.409  13.410 -0.4921  0.1598 -0.0044
  761TIP3    H123698   6.302   3.437  13.486 -0.7548 -0.2533  0.3313
  761TIP3    H223699   6.301   3.335  13.375 -1.2339 -0.7468  0.7817
  762TIP3   OH223700   5.273   4.766   2.591 -0.3439  0.2519  0.0106
  762TIP3    H123701   5.293   4.780   2.683 -2.2530  1.8948  0.2407
  762TIP3    H223702   5.296   4.674   2.575  1.7482  0.4418  1.5997
  763TIP3   OH223703   6.069   1.406  14.563 -0.2105  0.4676  0.9428
  763TIP3    H123704   6.005   1.401  14.635  0.2861 -1.8937  1.3207
  763TIP3    H223705   6.032   1.349  14.495  0.9209 -0.0277  0.7201
  764TIP3   OH223706   2.466   4.573  15.738  0.2175 -0.4277  0.0887
  764TIP3    H123707   2.460   4.509  15.809 -0.1055  0.0193  0.4711
  764TIP3    H223708   2.557   4.601  15.738  0.1416 -0.1725  0.5586
  765TIP3   OH223709   4.967   4.897   5.632  0.4341  0.1996 -0.2244
  765TIP3    H123710   4.896   4.944   5.587 -0.1012 -0.5412 -0.1601
  765TIP3    H223711   4.990   4.826   5.572 -0.6689 -1.1435  0.8925
  766TIP3   OH223712   5.001   6.313  16.003  0.3174 -0.2027 -0.2931
  766TIP3    H123713   4.976   6.222  15.992 -0.3790  0.0312 -0.7743
  766TIP3    H223714   4.917   6.360  16.010  0.6738  0.3347  0.4928
  767TIP3   OH223715   5.832   6.697   1.609  0.2669  0.8292 -0.0676
  767TIP3    H123716   5.918   6.717   1.572 -0.1110  0.7807 -0.9879
  767TIP3    H223717   5.829   6.601   1.613  0.5213  0.8431  0.6233
  768TIP3   OH223718   3.110   2.880   3.055  0.1536 -0.2401  0.1262
  768TIP3    H123719   3.034   2.823   3.049  1.6905 -2.2432 -2.6105
  768TIP3    H223720   3.077   2.962   3.093 -2.8894 -1.6646  0.7971
  769TIP3   OH223721   3.432   3.991  13.030 -0.0857  0.0724 -0.3390
  769TIP3    H123722   3.357   3.992  13.089 -1.3261 -1.8135 -1.7382
  769TIP3    H223723   3.444   3.898  13.009 -0.2795  0.6775 -3.6679
  770TIP3   OH223724   5.854   5.473  11.475 -0.5001 -0.1412 -0.1116
  770TIP3    H123725   5.804   5.396  11.447 -0.1679 -0.2953 -0.2841
  770TIP3    H223726   5.906   5.498  11.398 -0.4482  0.1277  0.0093
  771TIP3   OH223727   3.328   2.260   5.475 -0.0869  0.4623  0.0754
  771TIP3    H123728   3.402   2.227   5.425  1.6302  1.3435  1.8561
  771TIP3    H223729   3.327   2.354   5.456  0.4707  0.7752  1.4448
  772TIP3   OH223730   0.014   6.178  12.322  0.0139 -0.5614  0.2458
  772TIP3    H123731   0.038   6.201  12.412  2.2605 -1.1706 -0.1234
  772TIP3    H223732   0.036   6.255  12.270  0.6173 -0.8904 -0.0093
  773TIP3   OH223733   3.469   3.401   2.964 -0.5408  0.1697 -0.0769
  773TIP3    H123734   3.405   3.369   3.028  0.1781 -1.6693 -0.2344
  773TIP3    H223735   3.417   3.445   2.897 -1.5011 -0.0567  0.5105
  774TIP3   OH223736   3.795   3.543  15.934  0.1478  0.2925 -0.2470
  774TIP3    H123737   3.890   3.532  15.924  0.2138  0.2873  0.3257
  774TIP3    H223738   3.784   3.566  16.027 -0.4472 -0.0937 -0.2192
  775TIP3   OH223739   0.781   4.027   5.524 -0.1916  0.5099  0.0210
  775TIP3    H123740   0.763   4.058   5.435 -0.8092 -1.2993 -0.5414
  775TIP3    H223741   0.700   4.044   5.572 -0.1850  0.6521 -0.0176
  776TIP3   OH223742   6.012   1.131  11.184 -0.0895  0.1628  0.4369
  776TIP3    H123743   5.990   1.214  11.142  0.8965 -0.1634 -0.7783
  776TIP3    H223744   6.106   1.137  11.200  0.2118 -1.1234 -0.6588
  777TIP3   OH223745   0.280   1.818   6.340  0.2795  0.0464 -0.4135
  777TIP3    H123746   0.211   1.884   6.330 -0.0510 -0.4309 -1.4002
  777TIP3    H223747   0.247   1.759   6.409 -0.1021  0.0607 -0.5829
  778TIP3   OH223748   3.242   5.832   0.084 -1.2232  0.1548  0.6138
  778TIP3    H123749   3.324   5.852   0.129 -1.1089 -1.4154  1.1680
  778TIP3    H223750   3.177   5.827   0.154 -1.2045 -1.4595  0.5658
  779TIP3   OH223751   4.376   0.962   2.293  0.0040 -0.3690 -0.3055
  779TIP3    H123752   4.305   1.026   2.288  0.5611  0.2993  0.1561
  779TIP3    H223753   4.434   0.985   2.219 -0.1725 -0.8026 -0.5780
  780TIP3   OH223754   6.546   0.950  12.316  0.1851 -0.1443  0.4205
  780TIP3    H123755   6.459   0.911  12.325 -0.7093  1.9271  1.3226
  780TIP3    H223756   6.585   0.903  12.242 -1.8522 -0.8585 -0.2817
  781TIP3   OH223757   1.439   4.778   2.111  0.0309 -0.0130 -0.3701
  781TIP3    H123758   1.441   4.809   2.202  1.0234 -0.6348 -0.1683
  781TIP3    H223759   1.519   4.813   2.072 -0.8152  0.9927 -1.2805
  782TIP3   OH223760   2.610   0.394   1.551  0.2040 -0.1291  0.1089
  782TIP3    H123761   2.638   0.394   1.643 -0.0331  0.6738  0.1935
  782TIP3    H223762   2.522   0.356   1.553 -0.7754  2.0329  0.5660
  783TIP3   OH223763   5.234   0.595   2.149 -0.1998 -0.2449  0.1611
  783TIP3    H123764   5.320   0.596   2.109 -0.6606  1.2153 -0.8901
  783TIP3    H223765   5.240   0.530   2.219  1.8504  0.1072  0.3569
  784TIP3   OH223766   5.333   1.566   1.474 -0.1191 -0.3517  0.0637
  784TIP3    H123767   5.256   1.563   1.531  0.1033 -0.8364  0.3536
  784TIP3    H223768   5.400   1.610   1.527 -0.7530  1.9288 -0.9116
  785TIP3   OH223769   1.859   6.420   2.292 -0.1915  0.3056 -0.2586
  785TIP3    H123770   1.904   6.426   2.208 -0.6887  1.5386 -0.4578
  785TIP3    H223771   1.766   6.434   2.270 -0.3662  0.3129  0.4523
  786TIP3   OH223772   0.780   2.130  15.041  0.4054  0.6260  0.1891
  786TIP3    H123773   0.722   2.080  14.984  1.9425 -0.8122 -0.1795
  786TIP3    H223774   0.729   2.208  15.065 -1.8857 -0.8435  0.3893
  787TIP3   OH223775   2.293   1.434  13.815  0.1686 -0.3152  0.0585
  787TIP3    H123776   2.305   1.500  13.747  2.1258 -0.6633  0.0222
  787TIP3    H223777   2.326   1.353  13.776 -0.2195 -0.8729  0.8601
  788TIP3   OH223778   3.507   4.864  14.500 -0.5892 -0.2133 -0.1663
  788TIP3    H123779   3.440   4.929  14.483 -0.0715  1.7616  3.9486
  788TIP3    H223780   3.584   4.915  14.525  0.5478 -2.3541  1.0696
  789TIP3   OH223781   1.594   6.389   5.093  0.4430  0.7340  0.9811
  789TIP3    H123782   1.594   6.482   5.073  1.6888  1.4572  3.9046
  789TIP3    H223783   1.555   6.382   5.180 -1.4759 -1.7521  0.0617
  790TIP3   OH223784   3.344   5.272   0.959  0.3362  0.3529  0.2189
  790TIP3    H123785   3.327   5.214   0.885 -0.0187  1.3081 -0.4599
  790TIP3    H223786   3.367   5.213   1.031  0.9015 -0.5750 -0.7026
  791TIP3   OH223787   5.146   0.179  15.083  0.0520 -0.0636 -0.1239
  791TIP3    H123788   5.051   0.174  15.084 -0.0181  0.1817 -2.2401
  791TIP3    H223789   5.174   0.119  15.153 -1.6298  0.2139  0.8475
  792TIP3   OH223790   2.912   3.187  13.052 -0.1873  1.0057 -0.2367
  792TIP3    H123791   3.001   3.200  13.018  1.0599 -2.4460  1.2052
  792TIP3    H223792   2.873   3.123  12.992 -0.1308 -0.5678  1.3049
  793TIP3   OH223793   4.828   5.567   4.338 -0.2842  0.1937  0.4731
  793TIP3    H123794   4.817   5.533   4.250  0.7518  2.4895 -0.6335
  793TIP3    H223795   4.913   5.534   4.367  0.7663  1.8161 -0.6318
  794TIP3   OH223796   0.346   5.811  11.429 -0.4339  0.0746  0.2052
  794TIP3    H123797   0.332   5.788  11.338  0.2318  0.4900 -0.0080
  794TIP3    H223798   0.378   5.901  11.427 -1.9298  0.6679  0.9530
  795TIP3   OH223799   0.788   2.159  13.331  0.7707 -0.4425 -0.1824
  795TIP3    H123800   0.773   2.158  13.236  0.6218  1.3390 -0.2197
  795TIP3    H223801   0.878   2.129  13.341  1.4923  1.2470 -1.0950
  796TIP3   OH223802   4.052   5.103  11.783 -0.2244  0.0909  0.1155
  796TIP3    H123803   3.960   5.084  11.768 -0.3530  0.8247 -0.0340
  796TIP3    H223804   4.094   5.017  11.786 -0.9015 -0.2412  0.1287
  797TIP3   OH223805   1.811   2.691   1.864 -0.0218  0.5389 -0.0627
  797TIP3    H123806   1.864   2.635   1.808 -1.9630  0.4914 -1.9932
  797TIP3    H223807   1.805   2.644   1.947  2.2633  0.2256 -0.0048
  798TIP3   OH223808   3.556   0.515  12.704 -0.3138 -0.2536 -0.3990
  798TIP3    H123809   3.575   0.430  12.744 -0.2855 -0.3178 -0.5481
  798TIP3    H223810   3.581   0.504  12.612  2.2909  0.7431  0.1036
  799TIP3   OH223811   1.751   4.497  11.198 -0.7158  0.3729  0.2459
  799TIP3    H123812   1.741   4.406  11.228  0.3045  0.4891  1.0344
  799TIP3    H223813   1.838   4.522  11.229 -1.0660  1.6935  0.2191
  800TIP3   OH223814   3.522   1.471  13.348 -0.6005 -0.5200  0.0628
  800TIP3    H123815   3.459   1.399  13.360 -0.5816 -0.3962  0.9747
  800TIP3    H223816   3.477   1.548  13.384  0.2484 -0.5297  1.2051
  801TIP3   OH223817   6.077   2.845   3.319  0.5380  0.4220  0.0438
  801TIP3    H123818   6.138   2.907   3.279  1.6273 -0.9362 -0.4948
  801TIP3    H223819   6.022   2.814   3.247 -0.9306  1.7381  0.5507
  802TIP3   OH223820   3.206   6.572   1.492  0.7153  0.3913  0.8060
  802TIP3    H123821   3.172   6.484   1.473 -0.1057  0.8012  0.3377
  802TIP3    H223822   3.139   6.611   1.549  0.1758  1.3601 -0.4580
  803TIP3   OH223823   5.714   6.007  16.826 -0.0725  0.8589 -0.1065
  803TIP3    H123824   5.752   6.084  16.869  0.3155  1.1210 -0.9032
  803TIP3    H223825   5.620   6.015  16.842  0.1905 -0.0291  2.2734
  804TIP3   OH223826   5.303   2.748  11.574 -0.2182 -0.0253  0.6012
  804TIP3    H123827   5.259   2.800  11.642 -0.9567  1.4348 -0.9286
  804TIP3    H223828   5.233   2.698  11.532  0.2415 -0.9616  0.9072
  805TIP3   OH223829   1.353   5.755   6.772  0.0141  0.0773 -0.3410
  805TIP3    H123830   1.261   5.759   6.798 -0.1873  0.4368 -1.0851
  805TIP3    H223831   1.400   5.799   6.843 -0.4900  0.7553 -0.4239
  806TIP3   OH223832   1.945   6.230  13.176  0.4751  0.3142  0.1918
  806TIP3    H123833   1.945   6.148  13.126 -0.4396 -0.0044  0.6775
  806TIP3    H223834   1.876   6.218  13.241 -2.2643  2.8692 -1.9993
  807TIP3   OH223835   0.578   3.793   4.344 -0.5848 -0.1642 -0.3784
  807TIP3    H123836   0.545   3.773   4.432 -0.4379 -1.4466 -0.5882
  807TIP3    H223837   0.671   3.809   4.356 -0.4638 -0.8546 -0.3598
  808TIP3   OH223838   0.567   3.642  15.359  0.1011  0.0894  0.4494
  808TIP3    H123839   0.656   3.619  15.334  0.0503  1.2290 -0.8770
  808TIP3    H223840   0.578   3.700  15.435  0.4750  0.0454  0.4298
  809TIP3   OH223841   1.554   4.565   5.372  0.2513  0.1126  0.1756
  809TIP3    H123842   1.647   4.581   5.354  0.1512 -0.0107 -0.4949
  809TIP3    H223843   1.552   4.476   5.408  0.2866 -0.3231 -0.8578
  810TIP3   OH223844   5.197   5.413   1.659  0.0795  0.3209 -0.2363
  810TIP3    H123845   5.129   5.411   1.726 -0.3853  0.0519 -0.7178
  810TIP3    H223846   5.278   5.394   1.706 -0.2864 -0.1642  0.1953
  811TIP3   OH223847   1.384   5.946  12.969  0.3475  0.1226  0.5662
  811TIP3    H123848   1.364   5.853  12.963  3.1266 -0.5434  0.5889
  811TIP3    H223849   1.334   5.976  13.046 -1.3428 -1.0678 -0.0175
  812TIP3   OH223850   5.142   4.383   4.968  0.2198 -0.3119  0.2418
  812TIP3    H123851   5.182   4.408   4.884 -1.7967  1.0074 -0.3969
  812TIP3    H223852   5.213   4.341   5.017  1.4872 -1.0543 -2.0730
  813TIP3   OH223853   5.751   6.705   0.985  0.0925 -0.0751  0.3249
  813TIP3    H123854   5.794   6.764   1.047  0.0521 -1.3842  1.6786
  813TIP3    H223855   5.757   6.619   1.027  0.6882 -1.1471 -1.8443
  814TIP3   OH223856   6.670   4.353   3.424  0.2584 -0.2037  0.4592
  814TIP3    H123857   6.629   4.353   3.510 -1.0446  0.7557 -0.1357
  814TIP3    H223858   6.641   4.271   3.383 -0.6339  0.2129  0.2478
  815TIP3   OH223859   0.938   0.608  13.818  0.0485  0.4508 -0.2906
  815TIP3    H123860   0.873   0.615  13.888 -0.2740 -0.1392 -0.5286
  815TIP3    H223861   1.021   0.595  13.864 -0.1531  0.1235 -0.0113
  816TIP3   OH223862   3.038   1.525  14.430 -0.3590 -0.4510  0.0630
  816TIP3    H123863   2.981   1.465  14.382 -1.3714  0.4458  0.1061
  816TIP3    H223864   2.986   1.552  14.506 -1.2889  2.9065 -1.5527
  817TIP3   OH223865   2.046   6.671  12.165 -0.3929  0.0697 -0.2077
  817TIP3    H123866   2.042   6.595  12.224 -0.4292 -0.2984 -0.6782
  817TIP3    H223867   2.096   6.640  12.090  0.0951  0.6932 -0.1479
  818TIP3   OH223868   6.287   2.091  12.932  0.1979  0.2862 -0.3255
  818TIP3    H123869   6.262   2.069  13.021 -0.8473 -1.7002 -1.0471
  818TIP3    H223870   6.307   2.007  12.890 -0.0385  1.0804 -2.1541
  819TIP3   OH223871   0.526   2.188  12.971 -0.2945 -0.0856 -0.1170
  819TIP3    H123872   0.572   2.247  13.030  0.1855 -0.2458 -0.3331
  819TIP3    H223873   0.565   2.204  12.885  1.1885 -2.0524  0.1211
  820TIP3   OH223874   1.684   3.623  16.862  0.3436  0.2776 -0.2624
  820TIP3    H123875   1.759   3.621  16.921  1.5278 -0.0869 -1.7380
  820TIP3    H223876   1.608   3.615  16.920  1.4456  0.1638  1.2186
  821TIP3   OH223877   6.680   0.507   4.643 -0.0440  0.4666  0.0057
  821TIP3    H123878   6.713   0.510   4.733  0.0065 -0.8611  0.0610
  821TIP3    H223879   6.598   0.457   4.650 -0.0339  0.3472 -0.6853
  822TIP3   OH223880   2.071   5.401   4.478 -0.5780  0.1019  0.3111
  822TIP3    H123881   1.986   5.387   4.436  0.4033 -0.7561 -1.5329
  822TIP3    H223882   2.110   5.474   4.428 -0.4951  0.9705  1.6007
  823TIP3   OH223883   3.637   5.029   0.781  0.1832 -0.3516  0.2236
  823TIP3    H123884   3.578   5.018   0.855  0.9445 -2.0023  0.6250
  823TIP3    H223885   3.655   5.123   0.778 -0.4317 -0.1742  1.6782
  824TIP3   OH223886   3.007   5.628   0.449 -0.0456 -0.1590  0.4995
  824TIP3    H123887   2.995   5.542   0.408  0.7017 -0.4341  0.8504
  824TIP3    H223888   3.102   5.640   0.453 -0.1383  0.7038  0.4192
  825TIP3   OH223889   2.676   2.335  15.750 -0.1471  0.6547  0.2726
  825TIP3    H123890   2.632   2.408  15.707  0.3711 -0.7591 -2.9432
  825TIP3    H223891   2.759   2.326  15.703  0.6425 -0.8705  1.8265
  826TIP3   OH223892   4.560   5.228   1.055 -0.1303 -0.3412 -0.1722
  826TIP3    H123893   4.525   5.184   1.133 -0.0824 -0.2623 -0.1065
  826TIP3    H223894   4.610   5.302   1.090 -0.6574  0.0814 -0.3032
  827TIP3   OH223895   5.884   0.452  14.571 -0.1776 -0.1812 -0.3913
  827TIP3    H123896   5.831   0.457  14.650  3.0229  1.5181  1.8888
  827TIP3    H223897   5.919   0.541  14.560  1.0822 -0.8688 -2.5085
  828TIP3   OH223898   1.581   4.403   5.005 -0.1192 -0.4319 -0.4048
  828TIP3    H123899   1.510   4.450   5.049  1.0422  0.1491  0.9210
  828TIP3    H223900   1.567   4.311   5.028 -1.0952 -0.4825 -1.1335
  829TIP3   OH223901   4.910   3.579   2.723  0.2158  0.1069 -0.1871
  829TIP3    H123902   4.815   3.568   2.724  0.2659 -0.3474  1.0886
  829TIP3    H223903   4.944   3.499   2.764  1.0756  0.8185  0.5200
  830TIP3   OH223904   1.583   6.772  16.842 -0.1748 -0.4264 -0.2078
  830TIP3    H123905   1.674   6.796  16.858  0.2167 -1.6493 -0.4959
  830TIP3    H223906   1.563   6.707  16.910 -0.9557  0.0893  0.0754
  831TIP3   OH223907   1.191   4.750   1.983 -0.6549  0.0318 -0.0164
  831TIP3    H123908   1.238   4.804   1.919 -0.1923 -0.0253  0.2738
  831TIP3    H223909   1.244   4.756   2.062 -1.7605  0.9610  0.6889
  832TIP3   OH223910   3.411   2.426   4.702  0.6610  0.2505  0.0590
  832TIP3    H123911   3.404   2.515   4.737  1.8190  0.0962  0.7358
  832TIP3    H223912   3.504   2.416   4.681  0.4329 -0.5972 -0.5761
  833TIP3   OH223913   2.230   0.483   0.341  0.0077  0.5913 -0.4069
  833TIP3    H123914   2.294   0.526   0.398  0.7397 -2.1504  1.0436
  833TIP3    H223915   2.160   0.547   0.330  1.0090  2.1255  1.5695
  834TIP3   OH223916   3.534   3.609  11.720 -0.1247  0.0285  0.1022
  834TIP3    H123917   3.549   3.691  11.766 -0.5576  0.2152 -0.0827
  834TIP3    H223918   3.497   3.635  11.635  1.5692 -0.2440 -0.7741
  835TIP3   OH223919   0.520   1.072  10.960  0.1172 -0.6362 -0.4996
  835TIP3    H123920   0.457   1.143  10.954 -1.9744 -2.4046 -0.7168
  835TIP3    H223921   0.583   1.088  10.890  0.0592  1.2723 -0.1587
  836TIP3   OH223922   3.170   0.464   0.497  0.3931  0.2078  0.3371
  836TIP3    H123923   3.194   0.528   0.429 -1.2038  0.6604  0.1676
  836TIP3    H223924   3.206   0.501   0.578 -0.8895  1.5868  0.3132
  837TIP3   OH223925   5.882   1.569   1.856  0.0121  0.0202 -0.1239
  837TIP3    H123926   5.921   1.603   1.776 -2.8101 -0.6297 -1.9039
  837TIP3    H223927   5.909   1.477   1.859  0.1346  0.0511 -0.3000
  838TIP3   OH223928   1.220   1.273   1.422 -0.3248 -0.4988  0.4611
  838TIP3    H123929   1.294   1.325   1.391 -1.0391  0.9268  1.0586
  838TIP3    H223930   1.256   1.220   1.493  0.2902 -0.4014  0.2267
  839TIP3   OH223931   2.874   3.045  12.790  0.4538  0.2203 -0.8263
  839TIP3    H123932   2.827   2.997  12.721  1.4510  1.7570 -2.6894
  839TIP3    H223933   2.958   3.000  12.797 -0.4973 -1.3961  1.1853
  840TIP3   OH223934   3.300   4.976  13.290  0.3643 -0.1930  0.0052
  840TIP3    H123935   3.376   4.927  13.258 -0.2446 -1.7009  0.7690
  840TIP3    H223936   3.243   4.910  13.329  0.8240  1.3829  3.7924
  841TIP3   OH223937   3.484   6.339  17.049  0.1348 -0.6522  0.8394
  841TIP3    H123938   3.510   6.378  17.133  2.2714 -2.7637  1.3154
  841TIP3    H223939   3.467   6.247  17.071 -0.8745 -0.8846 -0.8020
  842TIP3   OH223940   4.785   6.431   2.316 -0.1358 -0.2479  0.5544
  842TIP3    H123941   4.759   6.416   2.407  0.9947  0.3119  0.9867
  842TIP3    H223942   4.724   6.497   2.283 -0.2865 -0.1444  1.0404
  843TIP3   OH223943   3.379   1.647  13.507  0.2273  0.7102 -0.3789
  843TIP3    H123944   3.294   1.681  13.478 -0.6568 -0.1411  1.1113
  843TIP3    H223945   3.401   1.699  13.584  0.3944  0.0228  0.0462
  844TIP3   OH223946   1.565   6.006   1.688 -0.2284  0.2501 -0.8186
  844TIP3    H123947   1.582   5.967   1.774  1.8387  0.0542 -1.2709
  844TIP3    H223948   1.481   5.969   1.662  0.0876 -1.3259  0.2273
  845TIP3   OH223949   3.084   1.177   0.161 -0.3760 -0.4333  0.0449
  845TIP3    H123950   3.137   1.101   0.138 -1.4063 -0.9340 -0.7583
  845TIP3    H223951   3.083   1.179   0.256  2.2927  0.4537  0.1281
  846TIP3   OH223952   2.416   5.575  13.725 -0.7872  0.3935  0.2980
  846TIP3    H123953   2.326   5.580  13.759 -1.5936 -0.1546 -1.6123
  846TIP3    H223954   2.464   5.526  13.791 -1.8130  0.9675  1.5037
  847TIP3   OH223955   3.000   5.893  11.243 -0.2353  0.6298  0.1706
  847TIP3    H123956   2.954   5.934  11.316  1.7931  1.7994  0.8555
  847TIP3    H223957   3.035   5.812  11.280  2.1743  1.9828  1.0792
  848TIP3   OH223958   5.483   2.260  14.125 -0.1627 -0.3724 -0.2977
  848TIP3    H123959   5.513   2.277  14.214 -0.3304  1.9100 -0.6152
  848TIP3    H223960   5.564   2.258  14.073 -0.2306  2.8515 -0.7100
  849TIP3   OH223961   3.865   6.274   3.999  0.1988  0.1946  0.1155
  849TIP3    H123962   3.874   6.181   4.021 -0.1157 -0.3308 -1.8282
  849TIP3    H223963   3.902   6.320   4.074  0.7688 -1.5053  0.9168
  850TIP3   OH223964   0.261   2.781  15.384 -0.3447  0.0686 -0.1644
  850TIP3    H123965   0.259   2.717  15.312  0.7462 -1.3182  0.9682
  850TIP3    H223966   0.268   2.728  15.463  0.8259  1.5932  0.8237
  851TIP3   OH223967   2.026   0.084   4.731  0.1029 -0.3498  0.4982
  851TIP3    H123968   2.118   0.058   4.746  0.4685  0.8753  0.4391
  851TIP3    H223969   1.982   0.059   4.813  0.2021 -2.0950  0.0663
  852TIP3   OH223970   5.692   6.159  14.219 -0.5598  0.3987 -0.3096
  852TIP3    H123971   5.750   6.083  14.208 -0.8638 -0.0810  1.1207
  852TIP3    H223972   5.711   6.215  14.144 -1.0396 -1.5339 -1.9444
  853TIP3   OH223973   0.547   5.591  14.250  0.7744  0.0392 -0.0095
  853TIP3    H123974   0.609   5.602  14.178 -0.6949  0.9869 -1.2009
  853TIP3    H223975   0.539   5.679  14.288  0.1110 -0.0587  0.0827
  854TIP3   OH223976   6.228   0.961  12.071  0.7790 -0.5765  0.2828
  854TIP3    H123977   6.142   0.971  12.112  0.6516  0.8096 -0.2668
  854TIP3    H223978   6.288   0.948  12.144  0.2451 -0.4862  0.7420
  855TIP3   OH223979   5.694   0.846  14.435 -0.2868  0.1463 -0.1533
  855TIP3    H123980   5.688   0.751  14.427  0.3229  0.0284  0.6668
  855TIP3    H223981   5.690   0.863  14.529 -1.9059  1.0619 -0.3518
  856TIP3   OH223982   2.223   4.781   2.848 -0.4573  0.5208 -0.1459
  856TIP3    H123983   2.264   4.867   2.852 -0.2154  0.3584  2.3468
  856TIP3    H223984   2.296   4.719   2.851 -0.7210  0.2476  1.2845
  857TIP3   OH223985   1.822   4.508  10.645 -0.1348  0.0092 -0.1576
  857TIP3    H123986   1.727   4.496  10.651 -0.0166 -1.3066 -0.6395
  857TIP3    H223987   1.838   4.525  10.552  0.2511 -1.4359 -0.3784
  858TIP3   OH223988   0.587   5.465   1.500  0.3710 -0.1607  0.0350
  858TIP3    H123989   0.642   5.451   1.423  0.0920 -0.5951 -0.0899
  858TIP3    H223990   0.621   5.404   1.565 -0.3603 -0.9065 -0.2549
  859TIP3   OH223991   1.630   0.944   5.032  0.5275 -0.1350 -0.0818
  859TIP3    H123992   1.546   0.987   5.048 -0.0073 -1.2575  0.2424
  859TIP3    H223993   1.618   0.897   4.949 -0.1701 -2.5913  1.3127
  860TIP3   OH223994   3.880   5.015  15.228 -0.3201  0.1680 -0.6252
  860TIP3    H123995   3.858   5.086  15.289 -1.7786 -0.3340 -0.5374
  860TIP3    H223996   3.973   5.029  15.208  0.2238  0.2925  1.7578
  861TIP3   OH223997   6.401   5.717  16.321 -0.8912  0.3225  0.3236
  861TIP3    H123998   6.313   5.722  16.284 -1.8401  0.7195  2.4436
  861TIP3    H223999   6.395   5.645  16.384  0.5521 -0.1578 -0.0616
  862TIP3   OH224000   4.152   3.203   0.141  0.5090  0.8524  0.0043
  862TIP3    H124001   4.197   3.201   0.057  0.2122  0.2024 -0.1489
  862TIP3    H224002   4.061   3.220   0.118  0.1091 -0.9975  0.0226
  863TIP3   OH224003   3.174   2.025  14.388 -0.2971  0.1634  0.3382
  863TIP3    H124004   3.218   2.105  14.417 -1.3672  0.6372  0.7265
  863TIP3    H224005   3.112   2.005  14.459 -1.5618  0.2193 -0.7161
  864TIP3   OH224006   2.734   4.403   4.124 -0.5052 -0.5070 -0.5934
  864TIP3    H124007   2.687   4.412   4.207 -1.6955 -0.4060 -1.2611
  864TIP3    H224008   2.758   4.310   4.120 -1.3013 -0.7182 -0.5770
  865TIP3   OH224009   0.577   0.993   0.400  0.2066 -0.0809 -0.1121
  865TIP3    H124010   0.612   0.975   0.487  2.3748  0.6938 -0.7563
  865TIP3    H224011   0.540   0.909   0.371 -1.0796 -0.2170  1.7178
  866TIP3   OH224012   4.105   5.082  12.540 -0.2276  0.4067  0.0554
  866TIP3    H124013   4.196   5.096  12.513 -0.4491  1.3441 -0.2555
  866TIP3    H224014   4.109   5.005  12.596  0.6605  0.0438 -0.4698
  867TIP3   OH224015   0.037   3.150  14.558  0.0691 -0.1049  0.9162
  867TIP3    H124016  -0.042   3.133  14.609 -1.1560 -0.9108 -1.1721
  867TIP3    H224017   0.011   3.218  14.495  1.3981  0.4830  0.9572
  868TIP3   OH224018   6.095   3.639  13.363  0.0166 -0.3113 -0.3302
  868TIP3    H124019   6.177   3.686  13.348 -0.6499  0.5432 -1.4401
  868TIP3    H224020   6.119   3.546  13.357  0.5141 -0.0858 -3.1398
  869TIP3   OH224021   0.092   5.078   2.833  0.2577 -0.0612 -0.0389
  869TIP3    H124022   0.048   5.090   2.749 -0.2944 -0.4047  0.1985
  869TIP3    H224023   0.083   5.163   2.877  0.0790 -0.0404 -0.1128
  870TIP3   OH224024   2.694   1.589   0.219 -0.4665  0.2554  0.1119
  870TIP3    H124025   2.619   1.529   0.223 -1.0965  1.0620  0.9002
  870TIP3    H224026   2.730   1.576   0.131  0.6782 -2.7335  0.8807
  871TIP3   OH224027   1.854   3.228   0.853  0.8365 -1.1721 -0.4759
  871TIP3    H124028   1.818   3.222   0.764  0.9613 -0.7796 -0.5539
  871TIP3    H224029   1.894   3.315   0.857  0.3482 -0.9674  0.1449
  872TIP3   OH224030   0.040   2.370  16.877 -0.5322 -0.0714  0.2863
  872TIP3    H124031   0.098   2.447  16.876  0.1868 -0.5871 -1.2874
  872TIP3    H224032   0.020   2.357  16.969  1.0270  0.7669  0.7889
  873TIP3   OH224033   5.861   4.523  15.881  0.1666  0.1901  0.4497
  873TIP3    H124034   5.785   4.469  15.859 -0.5990  1.3796  0.0637
  873TIP3    H224035   5.931   4.460  15.896 -0.5306 -0.8917 -0.5903
  874TIP3   OH224036   0.640   2.577   0.418  0.4785 -0.0736 -0.2075
  874TIP3    H124037   0.583   2.634   0.365  1.5050  0.0118 -1.2445
  874TIP3    H224038   0.695   2.638   0.467  0.5457 -0.1596 -0.1767
  875TIP3   OH224039   3.575   2.228  15.584 -0.4681 -0.1208  0.0502
  875TIP3    H124040   3.580   2.141  15.623  0.2180 -0.9572 -1.8219
  875TIP3    H224041   3.662   2.245  15.550 -1.0921  0.4573 -1.3500
  876TIP3   OH224042   3.896   1.094   2.943 -0.3910  0.2287  0.3769
  876TIP3    H124043   3.877   1.011   2.900 -1.3608  0.6610 -0.0600
  876TIP3    H224044   3.905   1.073   3.036  0.2743 -0.4911  0.1634
  877TIP3   OH224045   5.978   0.707  14.605 -0.2119 -0.1904 -0.2110
  877TIP3    H124046   5.887   0.734  14.619 -1.0019 -0.9192 -3.2124
  877TIP3    H224047   6.024   0.788  14.584 -0.0799  0.1993  1.4365
  878TIP3   OH224048   2.042   0.251  16.895 -0.5813 -0.6588 -0.1491
  878TIP3    H124049   2.118   0.259  16.953  0.0382  0.4515 -1.0465
  878TIP3    H224050   2.080   0.245  16.807 -1.5147 -1.1797 -0.5267
  879TIP3   OH224051   3.720   5.430  14.237  0.5354  0.2485  0.6401
  879TIP3    H124052   3.742   5.416  14.145  0.5300  0.3366  0.6256
  879TIP3    H224053   3.735   5.523  14.252 -0.3404  0.4163  0.4956
  880TIP3   OH224054   3.276   4.521   5.124 -0.1274  0.3686 -0.3497
  880TIP3    H124055   3.234   4.534   5.039  0.5718 -1.9942 -1.1295
  880TIP3    H224056   3.231   4.581   5.183 -1.7154  0.9147 -2.0410
  881TIP3   OH224057   1.873   0.297  14.175 -0.5096 -0.4440  0.3745
  881TIP3    H124058   1.961   0.334  14.178 -0.9562  0.6364  0.5024
  881TIP3    H224059   1.823   0.347  14.240 -1.1907 -1.1242  0.3944
  882TIP3   OH224060   4.740   5.956  11.107 -0.3167  0.2388 -0.0591
  882TIP3    H124061   4.816   5.961  11.049 -1.4806  0.2595 -1.6592
  882TIP3    H224062   4.773   5.982  11.193  1.4496  0.3173 -0.7221
  883TIP3   OH224063   4.385   1.182  11.289 -0.2707  0.1799 -0.3801
  883TIP3    H124064   4.308   1.239  11.280 -0.1786  0.2611 -0.6624
  883TIP3    H224065   4.388   1.133  11.206 -1.3612 -1.5100  0.5275
  884TIP3   OH224066   6.697   6.505   4.985 -0.4069  0.1927 -0.2872
  884TIP3    H124067   6.671   6.423   4.944 -0.9284  0.8342 -1.2777
  884TIP3    H224068   6.760   6.479   5.052  0.3224 -0.9046 -1.3552
  885TIP3   OH224069   1.775   5.275   6.632  0.6038 -0.5947 -0.1331
  885TIP3    H124070   1.708   5.218   6.671 -1.3445  2.0569  0.6600
  885TIP3    H224071   1.726   5.334   6.575  2.4301  0.7088 -0.4461
  886TIP3   OH224072   5.725   4.303  16.991 -0.0389  0.0580 -1.1340
  886TIP3    H124073   5.681   4.357  17.056  0.4221  0.6605 -1.3190
  886TIP3    H224074   5.782   4.363  16.943  3.8870 -1.2627  1.4485
  887TIP3   OH224075   0.309   4.748   3.386 -0.2752 -0.3208 -0.0607
  887TIP3    H124076   0.248   4.675   3.395 -0.5315 -0.0598  0.2979
  887TIP3    H224077   0.365   4.742   3.464  1.4676 -1.7583 -1.3119
  888TIP3   OH224078   5.450   1.475  12.877 -0.5448 -0.3603  0.1211
  888TIP3    H124079   5.467   1.383  12.856 -0.8121 -1.0704  2.6419
  888TIP3    H224080   5.378   1.500  12.819  1.5051 -0.7107 -2.8115
  889TIP3   OH224081   2.289   0.619  14.433  0.5802 -0.1400  0.1083
  889TIP3    H124082   2.267   0.630  14.525 -1.6286 -0.5569 -0.3058
  889TIP3    H224083   2.370   0.669  14.421 -0.9402  2.9474  1.5305
  890TIP3   OH224084   0.302   5.104  12.477  0.2870  0.1964  0.5673
  890TIP3    H124085   0.233   5.088  12.541  0.1059  0.1243  0.3587
  890TIP3    H224086   0.362   5.030  12.487  0.5525  0.4725  1.0310
  891TIP3   OH224087   6.238   6.368  11.597 -0.7212 -0.1128  0.2723
  891TIP3    H124088   6.211   6.319  11.675 -2.3110  0.5134  0.1513
  891TIP3    H224089   6.270   6.452  11.631  0.1766 -0.4720  0.3448
  892TIP3   OH224090   1.247   2.024   2.620  0.8041 -0.3062 -0.2092
  892TIP3    H124091   1.183   2.050   2.687 -1.2104 -1.6716 -1.5025
  892TIP3    H224092   1.228   2.082   2.546  0.2794 -1.4410 -0.9900
  893TIP3   OH224093   5.668   0.928   6.320  0.6502 -0.1395  0.1544
  893TIP3    H124094   5.575   0.916   6.299  1.4233 -2.7888 -2.5228
  893TIP3    H224095   5.678   0.893   6.408 -0.7017 -1.3033 -0.1118
  894TIP3   OH224096   4.238   6.396   1.165 -0.1524 -0.6835 -0.0997
  894TIP3    H124097   4.229   6.328   1.098 -0.2426  0.8757 -1.7475
  894TIP3    H224098   4.153   6.397   1.210 -1.1454  0.1233 -1.8798
  895TIP3   OH224099   4.760   0.879   4.289 -0.0482 -0.0288  0.2602
  895TIP3    H124100   4.793   0.790   4.302 -0.3765 -0.3872 -1.2630
  895TIP3    H224101   4.736   0.908   4.377  2.0692 -0.6312  1.0886
  896TIP3   OH224102   5.295   4.155   5.050  0.0830  0.4128 -0.3854
  896TIP3    H124103   5.364   4.094   5.076  0.0245 -0.3014 -1.8123
  896TIP3    H224104   5.240   4.163   5.127  1.0618  0.0068  0.3748
  897TIP3   OH224105   0.266   5.048   5.183  0.0648  0.0057  0.1871
  897TIP3    H124106   0.233   5.099   5.109  2.2411  0.0495 -0.8584
  897TIP3    H224107   0.328   5.106   5.227  1.8521 -1.3059 -0.4385
  898TIP3   OH224108   5.549   4.081   2.075  0.3131  0.0095  0.2596
  898TIP3    H124109   5.560   3.991   2.043 -0.6199 -0.7315  1.9061
  898TIP3    H224110   5.530   4.132   1.997  0.0266 -1.3809 -0.6173
  899TIP3   OH224111   0.640   2.926   4.229  0.4910  0.3418  0.8608
  899TIP3    H124112   0.607   2.849   4.182  1.9428 -0.9214  1.8028
  899TIP3    H224113   0.597   3.000   4.186  0.4279 -0.8478 -1.3074
  900TIP3   OH224114   1.587   4.685   4.744 -0.5364  0.5065 -0.1791
  900TIP3    H124115   1.501   4.650   4.767  0.1596 -2.0058 -1.1183
  900TIP3    H224116   1.646   4.610   4.748  1.3028  1.8078 -1.2156
  901TIP3   OH224117   2.085   6.031   2.758 -0.5890 -0.0747  0.1096
  901TIP3    H124118   2.098   6.122   2.785 -2.8859  0.5537 -0.6478
  901TIP3    H224119   1.992   6.014   2.772 -0.2240 -2.3339  0.2282
  902TIP3   OH224120   5.423   0.371   2.530  0.3829  0.1340  0.2825
  902TIP3    H124121   5.430   0.325   2.613 -0.4510  0.9630  0.8327
  902TIP3    H224122   5.514   0.383   2.502  0.6452 -0.8772  0.6471
  903TIP3   OH224123   5.264   2.247  11.038 -0.1127 -1.2782 -0.1548
  903TIP3    H124124   5.183   2.230  10.990 -0.3839  0.8006 -0.5258
  903TIP3    H224125   5.322   2.175  11.014 -0.5075 -0.7371 -3.0553
  904TIP3   OH224126   3.467   3.616   0.265 -0.1448  0.5417  0.5664
  904TIP3    H124127   3.411   3.665   0.204  0.7971  1.3242  0.3046
  904TIP3    H224128   3.502   3.683   0.324  0.8632  0.1346  0.4393
  905TIP3   OH224129   0.561   2.749  14.241 -0.2009  0.3484  0.6417
  905TIP3    H124130   0.610   2.715  14.316 -0.1986  2.3624  1.6345
  905TIP3    H224131   0.476   2.704  14.245  0.7330 -1.5412  0.2146
  906TIP3   OH224132   4.073   3.010   3.404  0.3402 -0.3074  0.5710
  906TIP3    H124133   4.082   3.067   3.327 -1.6774 -1.7321 -0.8322
  906TIP3    H224134   4.112   2.927   3.377  0.3791 -0.5734  1.4169
  907TIP3   OH224135   2.282   3.390   3.507 -0.0198  0.2649  0.0319
  907TIP3    H124136   2.258   3.343   3.427 -0.4745  0.8596 -0.1905
  907TIP3    H224137   2.201   3.395   3.557  0.6269 -1.6639  1.3752
  908TIP3   OH224138   5.891   1.686  14.076  0.1321 -0.1573  0.2028
  908TIP3    H124139   5.808   1.651  14.107 -0.4815 -0.1309 -1.3467
  908TIP3    H224140   5.932   1.723  14.154 -1.6924  0.6212  0.8438
  909TIP3   OH224141   6.469   3.455  16.410  0.3879 -0.0750 -0.7253
  909TIP3    H124142   6.398   3.519  16.412 -1.7670 -2.3463  0.5459
  909TIP3    H224143   6.500   3.457  16.320 -1.3202  0.9498 -1.3360
  910TIP3   OH224144   1.113   6.064  14.051 -0.1743  0.1696 -0.4634
  910TIP3    H124145   1.162   6.067  13.969 -1.8131 -1.5717 -1.6145
  910TIP3    H224146   1.178   6.045  14.118  1.3691  2.6471 -1.1350
  911TIP3   OH224147   3.528   1.101  17.102 -0.2687 -0.2791  0.0741
  911TIP3    H124148   3.616   1.110  17.138 -0.5796  1.9591  0.3957
  911TIP3    H224149   3.476   1.166  17.149 -1.1337  1.4306 -2.9986
  912TIP3   OH224150   3.533   3.484   4.630 -0.3297  0.2117 -0.9882
  912TIP3    H124151   3.618   3.443   4.613 -0.4236  0.1682 -1.3786
  912TIP3    H224152   3.469   3.421   4.594 -0.6164 -0.4288  0.5617
  913TIP3   OH224153   6.399   5.773  15.698  0.0730  0.2855  0.4948
  913TIP3    H124154   6.373   5.701  15.639 -0.8226  1.5389 -0.7202
  913TIP3    H224155   6.387   5.737  15.786  0.6337 -1.3787 -0.0607
  914TIP3   OH224156   6.675   1.655   6.218 -0.2500  0.2841  0.3946
  914TIP3    H124157   6.599   1.605   6.249 -1.6598  1.6628 -0.7116
  914TIP3    H224158   6.692   1.717   6.289  0.8663 -1.0037  1.3192
  915TIP3   OH224159   6.162   2.783  15.313  0.2978  0.1269 -0.3802
  915TIP3    H124160   6.078   2.808  15.351  0.5964 -0.6494  0.8420
  915TIP3    H224161   6.165   2.688  15.321  1.3816  0.1646 -0.1955
  916TIP3   OH224162   3.048   5.075  14.607  0.4066 -0.5655  0.0998
  916TIP3    H124163   2.971   5.040  14.561 -1.1672 -1.4862  3.1337
  916TIP3    H224164   3.028   5.168  14.620  0.8969 -0.2805 -1.0275
  917TIP3   OH224165   0.969   1.965   2.981 -0.8588 -0.4776 -0.3619
  917TIP3    H124166   0.905   2.007   3.039 -0.7098 -0.5414 -0.1473
  917TIP3    H224167   0.994   1.885   3.028 -0.3062 -0.2412 -0.2467
  918TIP3   OH224168   5.135   0.219  13.846 -1.0950  0.5335  0.4822
  918TIP3    H124169   5.099   0.133  13.867  1.0777 -0.8966 -1.1489
  918TIP3    H224170   5.214   0.226  13.900 -2.8296  3.0065  2.9857
  919TIP3   OH224171   5.279   1.279   4.705 -0.3351 -0.0335  0.4004
  919TIP3    H124172   5.190   1.312   4.719 -0.1364  0.4504  0.5445
  919TIP3    H224173   5.336   1.351   4.731  0.0897 -0.0517 -0.4460
  920TIP3   OH224174   6.191   4.232   1.962 -0.2423 -0.0357  0.0126
  920TIP3    H124175   6.195   4.303   2.027 -2.4702  0.2681 -0.1083
  920TIP3    H224176   6.143   4.269   1.888 -0.9629 -1.4786 -0.2841
  921TIP3   OH224177   0.799   6.680   2.739 -0.1821  0.5636 -0.0674
  921TIP3    H124178   0.822   6.591   2.710 -1.1656  0.0892  0.5738
  921TIP3    H224179   0.773   6.725   2.659  1.0991  0.5434 -0.5290
  922TIP3   OH224180   6.208   1.834   2.302 -0.3891 -0.2529 -0.4242
  922TIP3    H124181   6.147   1.780   2.352 -2.0213  1.2397 -0.7152
  922TIP3    H224182   6.273   1.772   2.268 -1.4230 -1.8159  0.3568
  923TIP3   OH224183   5.342   3.033  11.288 -0.6232 -0.2159  0.3875
  923TIP3    H124184   5.265   3.007  11.238 -0.4143  0.6037 -0.3917
  923TIP3    H224185   5.382   2.951  11.315  0.0058 -0.7350 -1.9672
  924TIP3   OH224186   5.530   3.049   0.062  0.0340  0.1012  0.3120
  924TIP3    H124187   5.599   2.988   0.089 -1.2020 -1.9687 -0.9470
  924TIP3    H224188   5.450   2.997   0.062 -1.2070  1.9006 -0.2620
  925TIP3   OH224189   4.716   0.400   3.258  0.0399  0.0534 -0.0460
  925TIP3    H124190   4.726   0.316   3.304  0.1686  0.0819 -0.0209
  925TIP3    H224191   4.641   0.386   3.200  1.1177 -0.6878 -1.3372
  926TIP3   OH224192   0.503   0.493  15.693 -0.8380  0.2182 -0.0331
  926TIP3    H124193   0.541   0.439  15.762 -1.1995 -0.3719 -0.2846
  926TIP3    H224194   0.569   0.493  15.624 -0.2984  1.1580  0.4781
  927TIP3   OH224195   0.177   3.982   4.556  0.8527  0.2326 -0.3206
  927TIP3    H124196   0.147   3.899   4.519  3.0586 -1.0739  0.6439
  927TIP3    H224197   0.098   4.036   4.561 -0.7273 -1.9247 -0.6274
  928TIP3   OH224198   1.460   2.664   2.280 -0.3156 -0.2554  0.0679
  928TIP3    H124199   1.494   2.695   2.196  0.1061 -0.7715  0.0383
  928TIP3    H224200   1.367   2.649   2.265 -0.5102  0.8810  0.0564
  929TIP3   OH224201   4.320   2.214  10.941 -0.0356 -0.1059 -0.2572
  929TIP3    H124202   4.306   2.175  10.854  2.0218  0.4112 -0.8865
  929TIP3    H224203   4.275   2.298  10.936 -1.1157 -0.6711 -0.3089
  930TIP3   OH224204   2.624   5.450   6.339  0.0129  0.6752 -0.3383
  930TIP3    H124205   2.589   5.394   6.409  1.6320  1.5032  1.2229
  930TIP3    H224206   2.588   5.536   6.357 -0.9699  0.5594 -1.6243
  931TIP3   OH224207   6.593   1.792   3.276 -0.3202 -0.5947 -0.1390
  931TIP3    H124208   6.654   1.858   3.243 -0.0131 -0.7301  0.1501
  931TIP3    H224209   6.525   1.787   3.209 -0.6710  0.4417  0.1213
  932TIP3   OH224210   0.535   1.715   4.672  0.0723 -0.8114  0.5995
  932TIP3    H124211   0.547   1.673   4.757 -0.4407 -0.7561  0.7017
  932TIP3    H224212   0.502   1.802   4.693  0.8728 -0.4378  0.3771
  933TIP3   OH224213   2.846   1.810  12.798  0.0801 -0.0119  0.2885
  933TIP3    H124214   2.894   1.728  12.808  1.8714  1.2066  3.0105
  933TIP3    H224215   2.757   1.783  12.774  1.4719 -2.4743 -2.7512
  934TIP3   OH224216   1.082   5.769   2.898  0.5642 -0.0005 -0.3769
  934TIP3    H124217   1.022   5.823   2.847 -0.0289 -0.5320 -0.2470
  934TIP3    H224218   1.166   5.815   2.891  0.8041 -0.6583 -2.7995
  935TIP3   OH224219   3.998   5.448   5.545 -0.2798 -0.1220 -0.2452
  935TIP3    H124220   3.909   5.436   5.580 -0.8508  2.7429 -0.4240
  935TIP3    H224221   4.021   5.537   5.571  1.4986  0.1297 -2.4538
  936TIP3   OH224222   4.295   2.407   0.609 -0.2465 -0.0166  0.6344
  936TIP3    H124223   4.304   2.499   0.632 -2.8090  0.2224  0.9689
  936TIP3    H224224   4.204   2.398   0.579  0.3911 -2.1290 -0.9132
  937TIP3   OH224225   0.039   4.066   5.950 -0.3926 -0.1360 -0.6010
  937TIP3    H124226   0.077   4.024   6.027 -0.9220 -0.2290 -0.3884
  937TIP3    H224227  -0.055   4.072   5.969 -1.1849 -3.3989 -2.6595
  938TIP3   OH224228   2.276   1.435  15.100  0.6891  0.7061 -0.3211
  938TIP3    H124229   2.308   1.500  15.163 -1.9011  1.4067  0.4060
  938TIP3    H224230   2.211   1.384  15.149  0.5085 -0.4611 -1.7202
  939TIP3   OH224231   5.480   1.249   1.468 -0.3541 -0.4503  0.8924
  939TIP3    H124232   5.515   1.331   1.504  0.6482 -0.2369 -0.5050
  939TIP3    H224233   5.400   1.234   1.519 -0.2588  1.0862  1.5728
  940TIP3   OH224234   1.770   2.079  13.898 -0.4824 -0.1808 -0.5471
  940TIP3    H124235   1.792   1.992  13.865 -1.9097 -0.1226 -1.7370
  940TIP3    H224236   1.693   2.065  13.954 -1.8086  0.5022 -2.1258
  941TIP3   OH224237   3.270   3.524  14.516  0.2068  0.1865  0.7093
  941TIP3    H124238   3.197   3.468  14.488 -1.9949  1.9841  2.3640
  941TIP3    H224239   3.283   3.501  14.608  0.1333  1.4316  1.0578
  942TIP3   OH224240   2.832   4.784   4.310  0.3753  0.1074  0.0374
  942TIP3    H124241   2.898   4.770   4.378  1.5661  2.3307 -0.5330
  942TIP3    H224242   2.860   4.728   4.238  0.2662 -0.7209  0.6166
  943TIP3   OH224243   5.166   0.088   2.563 -0.2937 -0.1411 -0.1624
  943TIP3    H124244   5.188   0.133   2.644 -0.1380  0.2664 -0.4267
  943TIP3    H224245   5.077   0.055   2.577 -0.1887 -0.2548  0.2482
  944TIP3   OH224246   2.694   2.439  17.131 -0.4426  0.1117 -0.6500
  944TIP3    H124247   2.687   2.450  17.036 -2.5451 -2.8301 -0.9515
  944TIP3    H224248   2.609   2.405  17.158  0.5799 -0.5260  2.0897
  945TIP3   OH224249   0.749   4.703  14.243  0.0638  0.5489 -0.0751
  945TIP3    H124250   0.701   4.671  14.166  1.4857  1.2703 -1.3104
  945TIP3    H224251   0.739   4.633  14.308  0.1016 -0.7900 -1.4591
  946TIP3   OH224252   1.681   0.781   1.124  0.5113  0.3031  0.1700
  946TIP3    H124253   1.612   0.834   1.163 -0.2200 -0.5318  0.0355
  946TIP3    H224254   1.662   0.692   1.152  1.3664  0.0165 -0.1215
  947TIP3   OH224255   0.018   3.468   5.091 -0.7900  0.1979  0.0452
  947TIP3    H124256  -0.002   3.414   5.168 -2.8659  0.4246 -0.2811
  947TIP3    H224257  -0.014   3.555   5.114  2.2017  1.3197  0.4272
  948TIP3   OH224258   1.851   4.893   1.347  0.0540 -0.7380 -0.1272
  948TIP3    H124259   1.823   4.876   1.437 -0.8290  0.3981 -0.1701
  948TIP3    H224260   1.795   4.837   1.294 -1.2018  0.4341 -0.1100
  949TIP3   OH224261   4.179   2.617  14.564 -1.0437 -0.1891  0.3496
  949TIP3    H124262   4.223   2.540  14.601  1.1670  0.5931 -0.4937
  949TIP3    H224263   4.135   2.657  14.639  0.0856 -0.7789  1.3748
  950TIP3   OH224264   4.364   0.766  12.284  0.8355  0.2822 -0.0027
  950TIP3    H124265   4.306   0.790  12.356 -0.1734 -0.3744 -0.5835
  950TIP3    H224266   4.391   0.676  12.303  0.3530  0.0118 -0.5776
  951TIP3   OH224267   2.162   3.196   3.061 -0.1521 -0.2219  0.1180
  951TIP3    H124268   2.211   3.183   2.980 -2.2224  2.6104 -1.7624
  951TIP3    H224269   2.226   3.234   3.122  0.5710  1.4648 -1.5889
  952TIP3   OH224270   3.571   0.370   4.882 -0.7154  0.6462 -0.6509
  952TIP3    H124271   3.643   0.403   4.827 -0.7196  1.2241 -0.3149
  952TIP3    H224272   3.614   0.327   4.955 -0.7127  0.5815 -0.6901
  953TIP3   OH224273   5.089   5.843   5.412 -0.1770 -0.5374  0.1934
  953TIP3    H124274   5.165   5.811   5.364 -0.0384  0.6908 -0.4633
  953TIP3    H224275   5.125   5.894   5.484 -0.3827 -1.1775  0.7491
  954TIP3   OH224276   5.244   2.321  10.662 -0.8491  0.1211  0.2444
  954TIP3    H124277   5.282   2.409  10.667  0.9300 -0.6132  0.7164
  954TIP3    H224278   5.317   2.263  10.685 -2.0158 -1.4712  0.0760
  955TIP3   OH224279   1.200   3.528   4.248 -0.5603  0.0217  0.3018
  955TIP3    H124280   1.252   3.531   4.168 -2.8014 -3.4099 -1.5457
  955TIP3    H224281   1.146   3.450   4.238 -4.2866  1.9357  3.1489
  956TIP3   OH224282   4.958   3.751   1.049 -0.3223  0.0861  0.3107
  956TIP3    H124283   5.037   3.790   1.012 -1.4666  0.9727 -1.3264
  956TIP3    H224284   4.989   3.673   1.095  1.4884  0.3856 -0.3259
  957TIP3   OH224285   5.245   4.057  12.899  0.0615 -0.4304  0.1868
  957TIP3    H124286   5.268   3.968  12.924  1.8622 -0.0079  0.1578
  957TIP3    H224287   5.252   4.058  12.803  1.1780  0.0006  0.2531
  958TIP3   OH224288   3.247   0.797   0.874 -0.3270 -0.2730  0.3722
  958TIP3    H124289   3.169   0.841   0.839  0.4781  0.4914 -0.5331
  958TIP3    H224290   3.320   0.843   0.834  0.6397 -0.1405  2.2133
  959TIP3   OH224291   6.718   4.900  11.242  0.2261 -0.1347 -0.1430
  959TIP3    H124292   6.715   4.933  11.152 -2.1416  0.4720  0.0865
  959TIP3    H224293   6.718   4.979  11.296 -0.8796 -0.4762  0.3871
  960TIP3   OH224294   4.461   0.196  16.964 -0.5064  0.9721 -0.8251
  960TIP3    H124295   4.470   0.124  17.027  0.6165 -0.9716 -3.0445
  960TIP3    H224296   4.398   0.162  16.900 -0.9493  2.5362 -1.2496
  961TIP3   OH224297   0.884   5.584   2.847  0.3983  0.2307 -0.9362
  961TIP3    H124298   0.944   5.641   2.896  0.9224  0.0498 -1.3607
  961TIP3    H224299   0.821   5.554   2.912  0.6932  0.5255 -0.5110
  962TIP3   OH224300   2.581   5.523   5.186  0.1704  0.4461 -0.5733
  962TIP3    H124301   2.549   5.585   5.121 -0.6367 -0.0845 -0.6949
  962TIP3    H224302   2.508   5.512   5.247  0.5524  0.1449 -0.1582
  963TIP3   OH224303   3.774   6.133  12.006  0.1858 -0.3739  0.2342
  963TIP3    H124304   3.803   6.207  11.953  1.9673 -0.5770  0.8680
  963TIP3    H224305   3.772   6.059  11.946  1.8848 -0.5361  0.3291
  964TIP3   OH224306   3.442   0.657   3.218 -0.3851 -0.6466  0.2655
  964TIP3    H124307   3.524   0.613   3.238 -0.9887 -1.6532  0.6045
  964TIP3    H224308   3.397   0.599   3.157 -0.1816  0.6419 -1.1804
  965TIP3   OH224309   3.588   4.932  15.392  0.0060 -0.2293  0.1936
  965TIP3    H124310   3.660   4.887  15.349 -0.4799 -1.3460  0.5217
  965TIP3    H224311   3.592   5.022  15.358  1.3452 -0.3587 -0.0206
  966TIP3   OH224312   6.220   6.379  13.305 -0.6046 -0.0371 -0.1084
  966TIP3    H124313   6.295   6.319  13.305 -0.8654 -0.3901  0.6181
  966TIP3    H224314   6.258   6.466  13.295 -0.1972 -0.3044 -0.9417
  967TIP3   OH224315   4.503   3.924  11.021 -0.9293  0.4996 -0.5998
  967TIP3    H124316   4.595   3.921  10.997 -0.6063  3.2502 -0.0546
  967TIP3    H224317   4.503   3.921  11.117 -1.5111 -0.4743 -0.6115
  968TIP3   OH224318   3.829   6.326  11.775  0.3513  0.4518  0.2689
  968TIP3    H124319   3.832   6.241  11.731  1.3478  0.2034  0.7802
  968TIP3    H224320   3.793   6.385  11.709 -0.0755 -0.3042 -0.1959
  969TIP3   OH224321   1.096   0.085   3.668  0.1437 -0.3280 -0.1844
  969TIP3    H124322   1.158   0.018   3.699 -0.9395 -1.1484  0.2908
  969TIP3    H224323   1.057   0.046   3.590 -1.6763 -1.0214  0.9941
  970TIP3   OH224324   5.486   5.343   1.013 -0.4349 -0.0252 -0.3495
  970TIP3    H124325   5.552   5.404   1.045  0.9146 -1.2371 -0.7149
  970TIP3    H224326   5.529   5.298   0.940 -2.4773  0.7606 -2.1347
  971TIP3   OH224327   0.180   6.257   5.772 -0.0663 -0.9708  0.7694
  971TIP3    H124328   0.086   6.274   5.771 -0.1247 -1.2726  1.0541
  971TIP3    H224329   0.211   6.298   5.853 -0.2533 -2.4324  1.6054
  972TIP3   OH224330   5.290   3.152   0.647 -0.2263 -0.9170 -0.1990
  972TIP3    H124331   5.320   3.153   0.556  1.7050 -1.3673  0.3691
  972TIP3    H224332   5.315   3.238   0.681  1.2578 -1.5913  0.5073
  973TIP3   OH224333   3.483   0.868  14.304  0.3251  0.5024  0.4100
  973TIP3    H124334   3.579   0.859  14.306  0.2190 -1.3254 -0.5895
  973TIP3    H224335   3.468   0.962  14.314  2.1691  0.7376  1.5606
  974TIP3   OH224336   4.841   2.471   2.558  0.3204  0.0187 -0.4057
  974TIP3    H124337   4.777   2.454   2.488 -0.7836  0.4588  0.4585
  974TIP3    H224338   4.897   2.394   2.558  0.3812  0.0337 -1.8065
  975TIP3   OH224339   5.814   5.668   5.110 -0.4222 -0.2569  0.1107
  975TIP3    H124340   5.881   5.691   5.174 -0.8415  0.7874  0.1855
  975TIP3    H224341   5.793   5.576   5.129  0.7995 -0.5238  0.2358
  976TIP3   OH224342   2.218   4.745   3.902  0.7101 -0.6801 -0.6101
  976TIP3    H124343   2.149   4.699   3.855  0.2967  0.9216 -1.6852
  976TIP3    H224344   2.237   4.821   3.847  1.3140  0.4579  1.0835
  977TIP3   OH224345   0.281   1.541   1.477  0.4576  0.3415 -0.8275
  977TIP3    H124346   0.286   1.627   1.434 -0.9374  1.7828  1.6699
  977TIP3    H224347   0.196   1.541   1.520  1.1183 -1.6311  0.6178
  978TIP3   OH224348   5.836   3.221  17.104  0.3220 -0.0036  0.1482
  978TIP3    H124349   5.858   3.165  17.030 -2.3845 -0.0538 -0.7137
  978TIP3    H224350   5.770   3.281  17.071  1.0571  1.8466  1.8222
  979TIP3   OH224351   6.198   2.541  11.381 -0.2490 -0.3260  0.5456
  979TIP3    H124352   6.275   2.484  11.391  1.5231  1.9354  0.8238
  979TIP3    H224353   6.187   2.550  11.287  0.2498 -0.1468  0.5019
  980TIP3   OH224354   5.958   3.652   6.501  0.5009 -0.8502  0.0126
  980TIP3    H124355   6.018   3.712   6.544  0.5565 -1.9494  1.5709
  980TIP3    H224356   5.870   3.683   6.526  0.3256  0.9225 -2.4909
  981TIP3   OH224357   6.326   4.083   3.122 -0.2759 -0.3631 -0.5662
  981TIP3    H124358   6.353   3.994   3.144 -0.6833 -0.5620 -0.8634
  981TIP3    H224359   6.327   4.129   3.206 -3.0872 -1.4457  0.1644
  982TIP3   OH224360   1.329   4.680  17.020 -0.4173  0.1242  0.2285
  982TIP3    H124361   1.391   4.693  16.948 -2.4867 -0.0120 -1.7116
  982TIP3    H224362   1.344   4.589  17.048  0.3095  0.1180 -0.1584
  983TIP3   OH224363   4.387   3.736  14.361 -0.0214  0.0181  0.1762
  983TIP3    H124364   4.339   3.811  14.325  0.1461 -0.2888 -0.7078
  983TIP3    H224365   4.325   3.664  14.356  0.2866 -0.2172 -0.2940
  984TIP3   OH224366   3.532   0.538   6.130  0.5471 -0.3803  0.7257
  984TIP3    H124367   3.599   0.568   6.069  0.1657 -1.3594 -0.2064
  984TIP3    H224368   3.517   0.613   6.188 -0.4327  1.2907 -1.5449
  985TIP3   OH224369   1.866   0.096   5.887  0.0818  0.1278 -0.2951
  985TIP3    H124370   1.927   0.076   5.958  0.3933 -1.7243 -1.0275
  985TIP3    H224371   1.916   0.151   5.826 -0.0233  1.2794  0.6161
  986TIP3   OH224372   5.718   5.259  14.157 -0.1805 -0.0589  0.2394
  986TIP3    H124373   5.642   5.245  14.101 -0.5067 -1.2939  0.9547
  986TIP3    H224374   5.759   5.173  14.164  0.7811  0.4102  0.5902
  987TIP3   OH224375   5.009   2.271   2.546 -0.1987  0.1320 -0.3264
  987TIP3    H124376   5.093   2.280   2.501  0.5950  0.5631  1.1588
  987TIP3    H224377   5.030   2.228   2.629 -1.1359  1.7743  0.8470
  988TIP3   OH224378   6.469   2.158  14.413 -0.1147  0.1976  0.3773
  988TIP3    H124379   6.543   2.100  14.431 -1.5775 -1.3529  1.8100
  988TIP3    H224380   6.487   2.194  14.326  2.3230 -0.0594  0.7060
  989TIP3   OH224381   4.315   4.576   0.308  0.0206 -0.1829  0.4540
  989TIP3    H124382   4.290   4.583   0.400 -0.3449 -0.4513  0.3773
  989TIP3    H224383   4.373   4.500   0.304  2.8351  1.7339  1.0402
  990TIP3   OH224384   0.727   2.271   2.520 -0.3361  0.4019  0.1286
  990TIP3    H124385   0.770   2.264   2.605  1.6108  1.9051 -0.6642
  990TIP3    H224386   0.676   2.190   2.512  2.7210 -1.7773  0.9330
  991TIP3   OH224387   5.548   3.967   6.119  0.0139 -0.3661  0.2452
  991TIP3    H124388   5.581   4.057   6.124  0.0245 -0.1628 -2.3237
  991TIP3    H224389   5.589   3.923   6.194  2.4205  1.0273 -0.1357
  992TIP3   OH224390   3.725   5.700  17.065  0.0234 -0.2040  0.0974
  992TIP3    H124391   3.820   5.695  17.065  0.1760  1.7647 -0.5558
  992TIP3    H224392   3.699   5.661  16.981  0.1096 -1.9805  0.8491
  993TIP3   OH224393   3.816   4.792  13.547 -0.2181 -0.8151 -0.0378
  993TIP3    H124394   3.761   4.858  13.504 -1.4156 -1.3161  0.6751
  993TIP3    H224395   3.799   4.803  13.640  1.2474 -0.7094  0.2438
  994TIP3   OH224396   0.761   4.757   6.356 -0.3850 -0.0324 -0.2370
  994TIP3    H124397   0.834   4.754   6.417  0.4641 -1.1165 -1.2751
  994TIP3    H224398   0.689   4.794   6.408  0.5982  0.1047  1.0943
  995TIP3   OH224399   4.980   4.302  14.532  0.0867 -0.4656  0.2654
  995TIP3    H124400   4.913   4.349  14.483  1.7682  0.6602 -1.0612
  995TIP3    H224401   5.006   4.362  14.602  1.6632  0.3674 -0.9481
  996TIP3   OH224402   5.769   0.090   0.711  0.7378  0.9145  0.2688
  996TIP3    H124403   5.801   0.169   0.668  2.3130  0.2517  0.1549
  996TIP3    H224404   5.675   0.087   0.690  1.0813  1.6284 -1.4970
  997TIP3   OH224405   0.414   1.734  14.324  0.4283  0.3995  0.9176
  997TIP3    H124406   0.407   1.660  14.264  0.3544  0.7836  0.4510
  997TIP3    H224407   0.446   1.695  14.406  1.6583  0.0480  0.2869
  998TIP3   OH224408   4.641   6.468  10.901  0.3860 -0.2481  0.2021
  998TIP3    H124409   4.693   6.539  10.863 -0.7241  1.0133  0.9524
  998TIP3    H224410   4.550   6.492  10.883 -0.0592 -0.8776  1.4667
  999TIP3   OH224411   6.221   3.032   3.186 -0.1522 -0.2754  0.6209
  999TIP3    H124412   6.292   3.055   3.246 -0.0289 -0.7111  0.6437
  999TIP3    H224413   6.242   3.078   3.104 -0.6326  0.8091  1.0828
 1000TIP3   OH224414   0.235   3.435   4.011  0.5904 -0.3661  0.2290
 1000TIP3    H124415   0.211   3.343   4.006  0.5097 -0.3119 -0.3648
 1000TIP3    H224416   0.221   3.458   4.104 -0.2967 -0.7027  0.1901
 1001TIP3   OH224417   0.768   1.222   1.322 -0.3531  0.6953  0.4656
 1001TIP3    H124418   0.697   1.164   1.347  0.0291  0.2674  0.5679
 1001TIP3    H224419   0.725   1.297   1.281 -0.8623  0.4632  0.5781
 1002TIP3   OH224420   4.808   2.816  14.762  0.3073  0.0455 -0.6528
 1002TIP3    H124421   4.901   2.809  14.740  0.2020 -3.0779 -0.6392
 1002TIP3    H224422   4.764   2.785  14.683 -0.7534  1.2985 -0.5797
 1003TIP3   OH224423   0.364   4.358   3.828 -0.1768  0.6275  0.4760
 1003TIP3    H124424   0.292   4.357   3.765  0.4303 -1.1705 -0.2450
 1003TIP3    H224425   0.405   4.272   3.819  2.8877  2.0206 -0.0528
 1004TIP3   OH224426   6.121   5.606   4.916 -0.3877 -0.0483  0.2997
 1004TIP3    H124427   6.059   5.533   4.914  0.7209 -1.0079 -1.1754
 1004TIP3    H224428   6.067   5.684   4.903 -1.4693 -0.6931  0.7782
 1005TIP3   OH224429   1.904   4.195   0.460  0.2077  0.0029  0.0882
 1005TIP3    H124430   1.810   4.180   0.463  0.0395  0.5416 -1.5412
 1005TIP3    H224431   1.914   4.288   0.442  0.9624 -0.4340 -2.0754
 1006TIP3   OH224432   3.131   0.218   0.415 -0.2181 -0.2005  0.2892
 1006TIP3    H124433   3.168   0.163   0.484  0.9345  1.5633  1.1628
 1006TIP3    H224434   3.122   0.305   0.455 -0.6226  0.5970 -1.4203
 1007TIP3   OH224435   3.698   5.535   6.142 -0.1991 -0.3387 -0.0460
 1007TIP3    H124436   3.610   5.544   6.179 -0.6026  0.7861 -1.2067
 1007TIP3    H224437   3.736   5.622   6.152  0.1748 -0.3846 -1.0315
 1008TIP3   OH224438   4.450   0.134   0.680  0.3434 -0.2028 -0.3633
 1008TIP3    H124439   4.378   0.184   0.642 -0.1409 -0.7205 -0.1302
 1008TIP3    H224440   4.529   0.173   0.641 -0.1187 -0.5810 -1.7642
 1009TIP3   OH224441   4.867   6.590  11.194  0.6718 -0.5040  0.2328
 1009TIP3    H124442   4.904   6.546  11.270 -0.5643 -2.8967 -0.4404
 1009TIP3    H224443   4.813   6.660  11.231 -0.2690 -1.8911  1.6411
 1010TIP3   OH224444   1.723   3.639  13.558 -0.6265  0.1861  0.3733
 1010TIP3    H124445   1.819   3.632  13.554 -0.7478 -1.5240 -2.7368
 1010TIP3    H224446   1.694   3.550  13.578 -1.5603  0.0190 -1.4854
 1011TIP3   OH224447   6.521   3.506  14.653 -0.2683 -0.0523  0.9881
 1011TIP3    H124448   6.462   3.534  14.583  0.1463 -1.7230 -0.0982
 1011TIP3    H224449   6.470   3.517  14.733 -0.9113  1.4887  0.4130
 1012TIP3   OH224450   0.647   1.774   0.697  0.2714 -0.2888  0.8848
 1012TIP3    H124451   0.715   1.769   0.630 -1.9854  1.1894 -1.7163
 1012TIP3    H224452   0.684   1.831   0.765  1.3688  1.0677 -0.7784
 1013TIP3   OH224453   6.420   3.064  10.918  0.8910  0.4713 -0.2574
 1013TIP3    H124454   6.468   3.123  10.860  0.6976  0.2976 -0.5894
 1013TIP3    H224455   6.329   3.069  10.889  1.0558 -0.9499 -1.1139
 1014TIP3   OH224456   3.448   3.104   4.322 -0.5392  0.1886 -0.3506
 1014TIP3    H124457   3.401   3.147   4.250 -0.8953 -0.0182 -0.2445
 1014TIP3    H224458   3.424   3.012   4.315  0.6559 -0.1016 -0.9094
 1015TIP3   OH224459   0.956   6.069  11.693 -0.1218 -0.0688  0.4635
 1015TIP3    H124460   0.887   6.014  11.730  1.2906 -1.5293  1.0471
 1015TIP3    H224461   1.023   6.008  11.665  1.7027  1.3686  1.4802
 1016TIP3   OH224462   3.056   2.579   0.785 -0.2053 -0.4168 -0.2361
 1016TIP3    H124463   3.148   2.587   0.760 -0.4026 -1.5487 -1.4652
 1016TIP3    H224464   3.043   2.485   0.796 -1.0978 -0.2223  0.4331
 1017TIP3   OH224465   1.599   0.613  14.145  0.1027  0.1209  0.8497
 1017TIP3    H124466   1.673   0.574  14.191  0.3654  1.7556  1.8852
 1017TIP3    H224467   1.533   0.544  14.143  0.9378 -0.7274  1.6580
 1018TIP3   OH224468   2.533   0.891   5.428 -0.2612 -0.1750  0.0177
 1018TIP3    H124469   2.570   0.827   5.367 -1.2955 -1.1869  0.4155
 1018TIP3    H224470   2.547   0.851   5.514  0.8232  1.0525  0.4410
 1019TIP3   OH224471   2.056   6.745   3.686  0.3510  0.1763 -0.0938
 1019TIP3    H124472   2.005   6.809   3.735 -0.5185 -1.6070  1.4742
 1019TIP3    H224473   2.077   6.677   3.751 -0.3008 -2.0087 -2.0384
 1020TIP3   OH224474   5.434   1.733  16.750  0.0495  0.2573 -0.3637
 1020TIP3    H124475   5.526   1.722  16.772  0.2197 -1.0966 -1.5639
 1020TIP3    H224476   5.389   1.737  16.834  1.2784  2.0662  0.2647
 1021TIP3   OH224477   4.723   5.884  12.903  0.0261  0.4424  0.9047
 1021TIP3    H124478   4.662   5.828  12.856 -0.0904 -0.8296  2.4696
 1021TIP3    H224479   4.806   5.873  12.857 -0.2890 -0.0428  0.4412
 1022TIP3   OH224480   0.665   5.681   4.225 -0.0515  0.3420 -0.7721
 1022TIP3    H124481   0.601   5.725   4.169 -1.3941  0.5751  0.8922
 1022TIP3    H224482   0.699   5.609   4.171 -0.7317  1.0050 -2.1335
 1023TIP3   OH224483   1.502   4.855  15.276 -0.3567  0.8150 -0.0824
 1023TIP3    H124484   1.561   4.845  15.201  1.3842  0.4046  1.2802
 1023TIP3    H224485   1.560   4.871  15.351 -2.0015  0.6693  1.2907
 1024TIP3   OH224486   6.251   2.200  15.439  0.9027  0.3529  0.0562
 1024TIP3    H124487   6.269   2.210  15.532  2.3401  0.3614 -0.1942
 1024TIP3    H224488   6.187   2.268  15.419 -1.1242 -1.0332  1.4460
 1025TIP3   OH224489   1.403   1.546  16.392  0.6427 -0.0006 -0.1934
 1025TIP3    H124490   1.330   1.504  16.437  1.3301  0.8287  1.8278
 1025TIP3    H224491   1.371   1.562  16.303 -1.1589 -0.7992  0.2652
 1026TIP3   OH224492   2.027   1.104   3.918  0.3843 -0.8856  0.2958
 1026TIP3    H124493   1.948   1.118   3.970  0.5045 -2.9560  1.1522
 1026TIP3    H224494   2.010   1.022   3.872  1.4777 -0.6017 -0.6462
 1027TIP3   OH224495   1.836   2.080  16.409 -0.2113  0.3370 -0.2131
 1027TIP3    H124496   1.778   2.104  16.481 -1.7169  0.2404 -1.3477
 1027TIP3    H224497   1.848   2.162  16.360  2.9508  1.0611  1.5143
 1028TIP3   OH224498   3.793   0.079  15.227 -0.5532  0.2293  0.0991
 1028TIP3    H124499   3.814   0.007  15.168  0.5496 -0.4654  1.2859
 1028TIP3    H224500   3.834   0.054  15.310  0.1785  2.4010  0.4416
 1029TIP3   OH224501   0.697   3.120  11.045 -0.1234 -0.3349  0.0462
 1029TIP3    H124502   0.637   3.176  10.997  0.9386  0.5744 -0.2706
 1029TIP3    H224503   0.641   3.062  11.096 -1.2574  0.0169 -0.7637
 1030TIP3   OH224504   6.164   4.933   3.131  0.7864  0.5956  0.3622
 1030TIP3    H124505   6.163   4.901   3.221 -0.9399  2.3128  1.0407
 1030TIP3    H224506   6.187   5.026   3.139  0.2891  0.8548 -0.9370
 1031TIP3   OH224507   4.563   2.484   5.047  0.2739  0.1904 -0.0045
 1031TIP3    H124508   4.573   2.422   4.974  3.0467  1.9278 -1.2394
 1031TIP3    H224509   4.498   2.547   5.015 -0.1188 -0.2290 -0.0605
 1032TIP3   OH224510   4.993   5.231   2.803 -0.3124  0.0668  0.0794
 1032TIP3    H124511   4.954   5.279   2.875 -0.6502  2.5180 -1.5860
 1032TIP3    H224512   4.927   5.166   2.778 -3.1908  3.4262 -2.0217
 1033TIP3   OH224513   2.130   4.081   0.537  1.0571  0.7008  0.6469
 1033TIP3    H124514   2.048   4.122   0.511  0.3001 -0.2817  1.4301
 1033TIP3    H224515   2.106   3.992   0.562  2.0681  0.9249  2.5880
 1034TIP3   OH224516   1.323   3.089  15.298 -0.0393 -0.3194  0.1874
 1034TIP3    H124517   1.267   3.034  15.243  0.4586  0.0094 -0.6711
 1034TIP3    H224518   1.273   3.100  15.379 -1.0791 -0.3037 -0.4274
 1035TIP3   OH224519   0.762   4.087   3.339 -0.1419 -0.1677 -0.4379
 1035TIP3    H124520   0.845   4.128   3.365  0.0020  0.1972 -1.4171
 1035TIP3    H224521   0.787   4.023   3.273 -0.7472  0.9450 -1.8090
 1036TIP3   OH224522   4.762   1.658   6.223 -0.2006  0.3601  0.6107
 1036TIP3    H124523   4.696   1.602   6.182  1.4171  0.1747 -1.9633
 1036TIP3    H224524   4.737   1.747   6.198  1.4840  0.1728 -2.1173
 1037TIP3   OH224525   5.902   6.570   2.030 -0.3748  0.1155  0.3671
 1037TIP3    H124526   5.880   6.498   2.088 -0.8911  0.8344  1.0802
 1037TIP3    H224527   5.981   6.609   2.068 -0.2472  0.0920  0.1303
 1038TIP3   OH224528   3.698   2.421  14.475 -0.2245 -0.8042  0.0237
 1038TIP3    H124529   3.648   2.488  14.428  0.2871  2.0551  3.1765
 1038TIP3    H224530   3.734   2.366  14.406  0.1115  2.7199 -2.9696
 1039TIP3   OH224531   6.157   5.478   0.920 -0.1331  0.1552  0.0715
 1039TIP3    H124532   6.237   5.426   0.924 -0.0463  0.2148 -0.8110
 1039TIP3    H224533   6.137   5.498   1.012  0.1616 -0.9243  0.3841
 1040TIP3   OH224534   2.258   4.580  14.670  0.2241 -0.0615 -0.0333
 1040TIP3    H124535   2.185   4.594  14.730  1.2950  1.5895  0.9641
 1040TIP3    H224536   2.313   4.514  14.713  0.2104 -0.0188  0.0483
 1041TIP3   OH224537   3.840   3.740  10.699 -0.3906 -0.0808 -0.9172
 1041TIP3    H124538   3.814   3.792  10.775 -1.1278  0.9701 -1.8541
 1041TIP3    H224539   3.923   3.701  10.724 -1.1442 -0.6616  0.8502
 1042TIP3   OH224540   0.050   0.908   5.992 -0.2450 -0.3316 -0.5089
 1042TIP3    H124541   0.124   0.967   5.976  0.5591 -1.1017  0.3362
 1042TIP3    H224542   0.088   0.832   6.036 -1.5697 -0.6432  0.1356
 1043TIP3   OH224543   3.097   5.009   5.030 -0.2310  0.0849  0.7419
 1043TIP3    H124544   3.080   5.079   5.094  0.9990  1.0856  0.0174
 1043TIP3    H224545   3.016   4.957   5.030 -0.6411  0.6620  2.3442
 1044TIP3   OH224546   5.198   1.132  13.701 -0.5180 -0.2896 -0.4932
 1044TIP3    H124547   5.253   1.193  13.652  0.0415  0.1270  0.6090
 1044TIP3    H224548   5.111   1.172  13.698 -0.3001  0.2013 -0.3743
 1045TIP3   OH224549   0.856   5.406   0.183 -0.0760  0.2444 -0.2977
 1045TIP3    H124550   0.894   5.375   0.100  3.6581 -1.2321  1.6988
 1045TIP3    H224551   0.794   5.337   0.207  1.3592 -1.1195 -0.3075
 1046TIP3   OH224552   0.305   0.130   5.459  0.6274 -0.1473 -0.2751
 1046TIP3    H124553   0.209   0.127   5.458  0.4575  2.6268  0.1611
 1046TIP3    H224554   0.330   0.120   5.367  0.0309 -2.0770 -0.2665
 1047TIP3   OH224555   1.431   0.614  10.664 -0.1995 -0.2146 -0.3683
 1047TIP3    H124556   1.420   0.649  10.752  0.1609 -1.3749  0.1609
 1047TIP3    H224557   1.360   0.550  10.654  1.2400 -1.9713  0.0869
 1048TIP3   OH224558   4.123   3.811  13.599 -0.4521  0.1581  0.0075
 1048TIP3    H124559   4.146   3.720  13.617 -0.5499 -0.2604 -1.7834
 1048TIP3    H224560   4.034   3.821  13.633 -0.1126 -0.1356  1.0157
 1049TIP3   OH224561   2.762   1.974  11.730  0.2121 -0.3371  0.2902
 1049TIP3    H124562   2.828   2.010  11.788  0.3237  0.7736 -0.4969
 1049TIP3    H224563   2.788   2.003  11.643 -1.0415 -0.2899 -0.0903
 1050TIP3   OH224564   6.402   6.578  12.368  0.5203  0.2087  0.4126
 1050TIP3    H124565   6.471   6.543  12.311  0.4070  0.1497  0.3108
 1050TIP3    H224566   6.331   6.600  12.308 -0.7210 -2.4366  0.7630
 1051TIP3   OH224567   3.812   2.542  14.038 -0.2829  0.0745 -0.4951
 1051TIP3    H124568   3.886   2.602  14.030  0.4870 -0.9538 -1.4217
 1051TIP3    H224569   3.749   2.572  13.973 -0.9861  1.3210  0.7092
 1052TIP3   OH224570   5.579   6.522   1.906 -0.6580 -0.1008  0.0551
 1052TIP3    H124571   5.512   6.591   1.901  0.1578  0.6777 -0.4172
 1052TIP3    H224572   5.658   6.564   1.872  0.3838 -0.6305  1.7507
 1053TIP3   OH224573   0.776   5.410  16.937 -0.0143  0.6046 -0.0876
 1053TIP3    H124574   0.831   5.332  16.924 -0.0405  0.6119 -0.2413
 1053TIP3    H224575   0.700   5.377  16.985 -1.1828  0.0414 -2.1821
 1054TIP3   OH224576   2.151   5.017  13.112  0.1585  0.1721 -0.5172
 1054TIP3    H124577   2.240   4.991  13.088  0.9073  1.6376  0.5452
 1054TIP3    H224578   2.098   4.940  13.092  1.9730 -1.4953  0.7489
 1055TIP3   OH224579   4.982   4.537  15.757 -0.1617  0.2092  0.3212
 1055TIP3    H124580   4.917   4.543  15.687  0.6077 -1.9279 -0.6434
 1055TIP3    H224581   5.051   4.599  15.731 -0.1927 -0.0822 -0.4742
 1056TIP3   OH224582   2.927   1.550  11.516  0.0353  0.2639  0.3528
 1056TIP3    H124583   2.832   1.551  11.532 -0.1929 -0.5108 -0.8105
 1056TIP3    H224584   2.955   1.463  11.546 -0.0051 -0.3093 -1.1913
 1057TIP3   OH224585   4.025   0.956   1.203 -0.3082  0.0501  0.3173
 1057TIP3    H124586   4.014   0.918   1.116  0.1929  1.8724 -0.5949
 1057TIP3    H224587   4.112   0.996   1.200 -0.5258  0.6361  1.4618
 1058TIP3   OH224588   5.330   0.108  13.158  0.1267  0.0928  0.2835
 1058TIP3    H124589   5.400   0.050  13.129  0.4519  1.2886 -1.4609
 1058TIP3    H224590   5.355   0.134  13.247 -0.8349 -3.5843  1.7971
 1059TIP3   OH224591   5.131   5.762  11.157 -0.8191 -0.3521 -1.0345
 1059TIP3    H124592   5.038   5.743  11.145 -0.7311 -1.6117  0.0570
 1059TIP3    H224593   5.157   5.806  11.076 -2.5551  0.8491 -0.9660
 1060TIP3   OH224594   3.113   5.439   2.069 -0.3976  0.5865 -0.4493
 1060TIP3    H124595   3.089   5.360   2.019 -1.1480  0.4075  0.1653
 1060TIP3    H224596   3.041   5.500   2.053 -0.5484  0.6004  0.2440
 1061TIP3   OH224597   2.885   5.430   5.183 -0.0494 -0.4395 -0.1298
 1061TIP3    H124598   2.876   5.417   5.089 -0.8079  1.9368 -0.4531
 1061TIP3    H224599   2.818   5.495   5.204 -0.0596 -1.0917  2.1203
 1062TIP3   OH224600   6.084   6.041  16.665  0.1147 -0.5230 -0.0602
 1062TIP3    H124601   6.177   6.029  16.649  0.1344 -0.5997  0.1083
 1062TIP3    H224602   6.078   6.127  16.707  0.3316 -1.3637  1.7884
 1063TIP3   OH224603   4.823   3.492  12.732  0.5157  0.3557 -0.0718
 1063TIP3    H124604   4.895   3.444  12.773 -1.1257 -0.8976  1.5400
 1063TIP3    H224605   4.791   3.550  12.801 -0.6260  0.1518 -0.4031
 1064TIP3   OH224606   6.095   6.768  15.322  0.2322  0.0465 -0.8390
 1064TIP3    H124607   6.135   6.771  15.409  0.6661 -2.3431 -0.9008
 1064TIP3    H224608   6.092   6.860  15.294  0.7980  0.7945  1.3524
 1065TIP3   OH224609   2.894   3.943   2.120  0.7780 -0.0376  0.6222
 1065TIP3    H124610   2.986   3.953   2.147  0.6802  1.2610  0.5505
 1065TIP3    H224611   2.900   3.905   2.032  1.1950 -1.1894  1.1308
 1066TIP3   OH224612   4.018   6.160  15.419  0.1851  0.0770  0.1385
 1066TIP3    H124613   4.030   6.240  15.468 -0.9871  0.1252  0.3776
 1066TIP3    H224614   4.048   6.090  15.477  1.6242  0.3542 -0.2379
 1067TIP3   OH224615   0.954   2.384   1.636  0.1006  0.0748 -0.2538
 1067TIP3    H124616   0.908   2.316   1.587  0.9849 -0.7561  0.0509
 1067TIP3    H224617   0.935   2.465   1.588  0.8762 -0.6993 -1.9678
 1068TIP3   OH224618   1.552   3.442  11.406  0.0172 -0.0694  0.1368
 1068TIP3    H124619   1.487   3.373  11.421 -0.0144 -0.3643 -1.1970
 1068TIP3    H224620   1.563   3.444  11.311  2.2691 -0.3176  0.3351
 1069TIP3   OH224621   1.712   4.879   2.140 -0.2930  0.1805  0.1207
 1069TIP3    H124622   1.740   4.811   2.079 -0.4080  0.7511 -0.5755
 1069TIP3    H224623   1.731   4.842   2.227  0.1942 -0.4954 -0.2608
 1070TIP3   OH224624   5.093   0.006   0.031  0.1897  0.1314 -0.3309
 1070TIP3    H124625   5.048  -0.057  -0.024 -1.4700  0.4523  0.5991
 1070TIP3    H224626   5.172   0.029  -0.018 -1.1202  0.2919 -2.4913
 1071TIP3   OH224627   1.499   4.902   1.467 -0.0877 -0.5506 -0.2847
 1071TIP3    H124628   1.512   4.995   1.489  1.5536 -0.8335  0.0828
 1071TIP3    H224629   1.561   4.855   1.523  1.4395 -1.6090 -2.6900
 1072TIP3   OH224630   2.910   0.358  11.686  0.4008 -0.2030  0.5577
 1072TIP3    H124631   2.818   0.377  11.665  0.6500 -1.7597 -2.5667
 1072TIP3    H224632   2.905   0.284  11.747 -0.4870 -1.2966 -0.7791
 1073TIP3   OH224633   4.948   4.794  14.989  0.0130  0.0421 -0.1856
 1073TIP3    H124634   4.856   4.819  14.985 -0.1228 -0.0380  1.5987
 1073TIP3    H224635   4.995   4.875  15.009  0.4301  0.2177 -1.7896
 1074TIP3   OH224636   4.082   3.703   2.247  0.2936 -0.1522 -0.0176
 1074TIP3    H124637   4.046   3.744   2.168  1.2007 -0.6653 -0.7203
 1074TIP3    H224638   4.079   3.772   2.313  0.2019  0.5202 -0.7083
 1075TIP3   OH224639   1.447   2.048   5.957  0.0789 -0.1673  0.0040
 1075TIP3    H124640   1.360   2.089   5.952 -0.8635 -2.2341 -1.5682
 1075TIP3    H224641   1.475   2.065   6.047 -0.3735  3.5116 -0.3687
 1076TIP3   OH224642   6.508   4.741   2.165  0.0169 -0.1580 -0.4664
 1076TIP3    H124643   6.548   4.673   2.111  1.5271 -0.3674  0.8452
 1076TIP3    H224644   6.515   4.708   2.254 -1.9284  0.4262 -0.0585
 1077TIP3   OH224645   1.747   2.616  15.154 -0.5136  0.2094  0.0548
 1077TIP3    H124646   1.799   2.547  15.113 -2.1469 -0.6537 -0.6747
 1077TIP3    H224647   1.738   2.589  15.245 -0.9952 -0.4697 -0.1864
 1078TIP3   OH224648   1.456   5.910  12.358  0.4668 -0.3777 -0.0137
 1078TIP3    H124649   1.498   5.856  12.291  1.3255  0.5021 -0.2113
 1078TIP3    H224650   1.507   5.893  12.437 -0.1824 -0.9708  0.2810
 1079TIP3   OH224651   5.817   0.583   1.974  0.3695  0.3444  0.4812
 1079TIP3    H124652   5.793   0.577   2.067  0.2963 -2.2513  0.3763
 1079TIP3    H224653   5.903   0.543   1.969 -0.1325 -0.6665 -0.7098
 1080TIP3   OH224654   3.619   1.396   4.228  0.1284  0.0405 -0.5226
 1080TIP3    H124655   3.668   1.478   4.241  0.3148 -0.1400 -0.0560
 1080TIP3    H224656   3.652   1.338   4.297 -0.4533 -0.2209 -0.4661
 1081TIP3   OH224657   0.844   0.872  13.522 -0.0812 -0.5062 -0.0316
 1081TIP3    H124658   0.812   0.864  13.612 -0.3543 -0.1504 -0.0935
 1081TIP3    H224659   0.828   0.964  13.499 -0.2419 -0.6562 -0.5315
 1082TIP3   OH224660   0.578   3.899   3.008  0.3219  0.1386 -0.2397
 1082TIP3    H124661   0.514   3.827   3.010 -0.4919  0.8510 -0.1537
 1082TIP3    H224662   0.530   3.975   3.042  0.6535  1.1349 -1.9082
 1083TIP3   OH224663   5.202   0.439   3.555  0.4421  0.4674  0.2757
 1083TIP3    H124664   5.157   0.476   3.631  1.0720  0.9160  0.4393
 1083TIP3    H224665   5.234   0.515   3.506  0.6095  0.1663 -0.0954
 1084TIP3   OH224666   4.152   1.484  14.004  0.7904 -0.2272 -0.1316
 1084TIP3    H124667   4.234   1.447  13.973  0.9791  0.1341 -0.0750
 1084TIP3    H224668   4.157   1.479  14.099  2.5983  3.4980  0.1740
 1085TIP3   OH224669   0.669   0.468  16.877 -0.2155  0.1474  0.0611
 1085TIP3    H124670   0.624   0.393  16.837 -1.6183  0.1612  1.5051
 1085TIP3    H224671   0.684   0.441  16.968 -0.1658  1.3697  0.4300
 1086TIP3   OH224672   4.448   3.492   1.005 -0.3513  0.0244  0.1721
 1086TIP3    H124673   4.457   3.516   0.912  0.1810  2.2877  0.7475
 1086TIP3    H224674   4.531   3.518   1.044  0.0368 -2.3367  1.0631
 1087TIP3   OH224675   5.838   3.443  14.232  0.1710  0.0824 -0.6503
 1087TIP3    H124676   5.851   3.351  14.254  1.1184 -0.0175 -1.5578
 1087TIP3    H224677   5.784   3.477  14.303  0.6601 -0.9266  0.2397
 1088TIP3   OH224678   6.614   2.241  11.312 -0.5573 -0.3483  0.1139
 1088TIP3    H124679   6.590   2.174  11.376  4.2484  0.3176  3.0639
 1088TIP3    H224680   6.621   2.193  11.229 -1.2151 -2.5871  1.2774
 1089TIP3   OH224681   0.883   4.908  11.806  0.0539 -0.9092 -0.2670
 1089TIP3    H124682   0.924   4.862  11.879  0.1626 -1.3491 -0.6015
 1089TIP3    H224683   0.956   4.929  11.748  0.4624  2.1450  1.1503
 1090TIP3   OH224684   6.673   3.821  11.147 -0.2176 -0.0475  0.0741
 1090TIP3    H124685   6.601   3.829  11.210  0.4074  0.4774  0.7495
 1090TIP3    H224686   6.705   3.911  11.136 -0.9512  0.0374 -1.7990
 1091TIP3   OH224687   4.770   2.928  13.144 -0.1929  0.1170  0.2464
 1091TIP3    H124688   4.822   2.939  13.065 -3.3816 -0.4522 -2.1631
 1091TIP3    H224689   4.793   3.002  13.200  2.1874  0.5362 -1.1768
 1092TIP3   OH224690   3.545   5.824  12.736  0.3070  0.4368  0.0855
 1092TIP3    H124691   3.498   5.902  12.766  0.3694  0.9798 -1.1683
 1092TIP3    H224692   3.637   5.846  12.750  0.2678 -0.2518  1.6500
 1093TIP3   OH224693   4.522   1.475  12.695 -0.2112 -0.1868 -0.3196
 1093TIP3    H124694   4.451   1.458  12.633 -0.0512  1.9307 -1.1596
 1093TIP3    H224695   4.528   1.570  12.700  1.1957 -0.2980  1.3583
 1094TIP3   OH224696   0.155   4.131   2.460  0.2790  0.1155 -0.2382
 1094TIP3    H124697   0.184   4.145   2.550  0.8403 -0.2442 -0.3560
 1094TIP3    H224698   0.093   4.059   2.466  0.8511 -0.3859 -0.2215
 1095TIP3   OH224699   2.078   1.910   4.263 -0.4531 -0.5953 -0.4875
 1095TIP3    H124700   2.040   1.998   4.264  1.6792  0.4389 -2.2505
 1095TIP3    H224701   2.101   1.894   4.355 -0.3110  0.9760 -0.2089
 1096TIP3   OH224702   0.854   6.171  16.012 -0.3454 -0.4635 -0.3634
 1096TIP3    H124703   0.948   6.169  15.996 -0.2522 -0.8820  0.2104
 1096TIP3    H224704   0.837   6.094  16.067 -0.4419  1.5147  2.6223
 1097TIP3   OH224705   3.368   1.147   5.307  0.3163  0.3244 -0.1475
 1097TIP3    H124706   3.445   1.203   5.296  0.9231  0.2172  2.8484
 1097TIP3    H224707   3.395   1.061   5.275  0.1540  1.1083 -2.5573
 1098TIP3   OH224708   2.258   4.142  17.161 -1.1207 -0.2636  0.3712
 1098TIP3    H124709   2.210   4.077  17.213  0.2128 -1.9430 -0.4004
 1098TIP3    H224710   2.332   4.093  17.125 -0.3514  1.5930 -0.6664
 1099TIP3   OH224711   6.256   5.316   4.875  0.0686  0.3341 -0.1658
 1099TIP3    H124712   6.270   5.244   4.937 -1.5411 -0.7556 -1.0029
 1099TIP3    H224713   6.330   5.308   4.814  0.1203 -0.3722 -0.0266
 1100TIP3   OH224714   2.769   2.739  16.997 -0.1437  0.7154  0.4567
 1100TIP3    H124715   2.793   2.741  17.089  2.3534  1.1348 -0.1362
 1100TIP3    H224716   2.673   2.733  16.997 -0.1819  0.3657  3.0425
 1101TIP3   OH224717   5.282   1.529  15.445  0.1179 -0.3783 -0.4845
 1101TIP3    H124718   5.335   1.580  15.507 -0.5952  0.9735 -0.9540
 1101TIP3    H224719   5.297   1.438  15.471  0.0076  0.1374  1.5491
 1102TIP3   OH224720   4.272   6.731  12.381 -0.1544 -0.0697 -0.6522
 1102TIP3    H124721   4.201   6.725  12.317 -0.8842 -0.2933  0.1597
 1102TIP3    H224722   4.260   6.654  12.437  2.3700 -1.6899 -2.1084
 1103TIP3   OH224723   1.817   1.681   3.076  0.4708 -0.1807  0.1500
 1103TIP3    H124724   1.789   1.677   3.167  1.4877 -1.4003  0.4474
 1103TIP3    H224725   1.900   1.632   3.075  0.1895 -0.6797 -1.5307
 1104TIP3   OH224726   3.272   4.889   2.837 -0.1142 -0.2079 -0.2468
 1104TIP3    H124727   3.192   4.856   2.795  0.2671  0.1150 -1.2705
 1104TIP3    H224728   3.267   4.984   2.825  0.8437 -0.2490 -1.1366
 1105TIP3   OH224729   0.303   3.896  14.853 -0.4988 -0.1297 -0.4865
 1105TIP3    H124730   0.217   3.859  14.832  0.1321 -1.0900 -1.4828
 1105TIP3    H224731   0.293   3.990  14.837 -1.6631 -0.0599  0.4812
 1106TIP3   OH224732   3.086   1.403  15.093 -0.2632  0.4548 -0.5023
 1106TIP3    H124733   3.165   1.406  15.147 -0.5471 -1.7283  0.1102
 1106TIP3    H224734   3.014   1.418  15.154 -0.4224  0.8169 -0.7748
 1107TIP3   OH224735   5.582   0.827   3.976 -0.3035  0.0904  0.1538
 1107TIP3    H124736   5.565   0.733   3.968 -0.6209  0.2338 -1.0268
 1107TIP3    H224737   5.530   0.854   4.052 -4.7763  0.3026 -2.6308
 1108TIP3   OH224738   2.414   0.478  11.516 -0.3376 -0.1273 -0.1732
 1108TIP3    H124739   2.365   0.532  11.579  1.7226  1.7040 -0.0346
 1108TIP3    H224740   2.352   0.464  11.444 -0.9083  2.7589 -0.3738
 1109TIP3   OH224741   5.688   1.857   2.095 -0.1519  0.4951 -0.4485
 1109TIP3    H124742   5.683   1.835   2.002  1.0740 -1.0893 -0.1793
 1109TIP3    H224743   5.781   1.845   2.117 -0.5771  0.0127  1.1664
 1110TIP3   OH224744   3.997   6.619   6.490  0.3196  0.3200 -0.1054
 1110TIP3    H124745   4.027   6.650   6.575 -0.2242 -0.6084  0.4448
 1110TIP3    H224746   3.904   6.641   6.488  0.3220  0.3018 -0.4430
 1111TIP3   OH224747   6.173   5.440  16.180  0.2873  0.7059  0.3876
 1111TIP3    H124748   6.263   5.425  16.209  0.1326 -2.3086 -0.4170
 1111TIP3    H224749   6.168   5.400  16.094 -1.8801  0.7182  0.4546
 1112TIP3   OH224750   1.469   5.216  13.835 -0.5038  0.2396  0.1444
 1112TIP3    H124751   1.489   5.202  13.927 -0.7662 -3.4804 -0.2162
 1112TIP3    H224752   1.374   5.224  13.832 -1.0005 -3.6950  0.0141
 1113TIP3   OH224753   1.635   2.237  11.260  0.5719  0.1690  0.2716
 1113TIP3    H124754   1.606   2.161  11.311 -1.0636  0.6038  0.0280
 1113TIP3    H224755   1.693   2.200  11.194  0.6424 -0.7318  0.8150
 1114TIP3   OH224756   2.881   0.417  14.953 -0.0256 -0.1611  0.8227
 1114TIP3    H124757   2.828   0.495  14.970 -0.4097 -0.3658  0.5685
 1114TIP3    H224758   2.872   0.364  15.033  0.3481  0.1109  1.0524
 1115TIP3   OH224759   1.571   0.567  11.340 -0.1966 -0.4910  0.5696
 1115TIP3    H124760   1.629   0.493  11.356 -2.1351 -2.0457  0.7917
 1115TIP3    H224761   1.549   0.600  11.427  0.1302 -0.0698  0.4961
 1116TIP3   OH224762   0.898   3.988  17.112 -0.2351  0.2432  0.4642
 1116TIP3    H124763   0.887   3.919  17.046 -2.1857  1.0503 -0.1173
 1116TIP3    H224764   0.809   4.016  17.132  0.5024  2.6185  0.6793
 1117TIP3   OH224765   2.640   5.449   1.528 -0.3499 -0.0477 -0.0433
 1117TIP3    H124766   2.652   5.394   1.606 -0.1994 -0.1272 -0.1229
 1117TIP3    H224767   2.551   5.430   1.499 -0.4452  0.0651  0.1743
 1118TIP3   OH224768   0.550   3.730  13.557 -0.4795 -0.4874 -0.5707
 1118TIP3    H124769   0.498   3.785  13.499  0.6923 -0.3752 -1.5370
 1118TIP3    H224770   0.524   3.640  13.536 -0.3749 -0.4265 -0.9524
 1119TIP3   OH224771   5.038   4.148  15.485 -0.0587 -0.4009  0.4439
 1119TIP3    H124772   5.083   4.231  15.500 -0.6916  0.0093  0.1424
 1119TIP3    H224773   4.989   4.132  15.566 -1.9464  0.8342 -0.3674
 1120TIP3   OH224774   1.303   4.438   2.405  0.2953 -0.4115 -0.1673
 1120TIP3    H124775   1.208   4.440   2.394  0.1945 -1.6679  0.3632
 1120TIP3    H224776   1.316   4.467   2.496  0.4754  0.3667 -0.4315
 1121TIP3   OH224777   2.896   3.709   1.248 -0.2249  0.2190  0.5509
 1121TIP3    H124778   2.982   3.746   1.230  0.3948  0.1765  3.0500
 1121TIP3    H224779   2.886   3.638   1.185  2.2564 -0.7668  1.1560
 1122TIP3   OH224780   3.265   4.823   5.814  0.4226  0.2749  0.3594
 1122TIP3    H124781   3.286   4.742   5.768 -0.7309  0.1267  0.0542
 1122TIP3    H224782   3.178   4.808   5.850  0.7857  0.8629  1.5157
 1123TIP3   OH224783   6.655   6.452  11.869  0.1730 -0.0742 -0.1215
 1123TIP3    H124784   6.743   6.419  11.851 -0.4306 -1.0770 -1.3985
 1123TIP3    H224785   6.597   6.383  11.837 -1.1097  1.4150 -1.1214
 1124TIP3   OH224786   5.640   0.118  16.354  0.1107  0.1686  0.2170
 1124TIP3    H124787   5.686   0.157  16.279 -0.0827 -1.8208 -1.0168
 1124TIP3    H224788   5.692   0.040  16.375  0.1049  0.6455  2.1413
 1125TIP3   OH224789   0.718   3.307  15.954 -0.1388  0.2198  0.0546
 1125TIP3    H124790   0.765   3.390  15.962  0.6094 -0.3603  2.5707
 1125TIP3    H224791   0.653   3.309  16.025 -0.8157 -0.9073 -0.5030
 1126TIP3   OH224792   3.775   2.720  10.226  0.1466 -0.4991  0.3116
 1126TIP3    H124793   3.783   2.804  10.181 -0.8746 -0.9083 -0.7030
 1126TIP3    H224794   3.794   2.739  10.318  1.3795  0.5423 -0.1369
 1127TIP3   OH224795   4.323   5.802   3.260  0.1523  0.4073  0.2416
 1127TIP3    H124796   4.228   5.808   3.265  0.0848 -0.3220  0.0038
 1127TIP3    H224797   4.347   5.746   3.335  0.3365  0.1248 -0.0268
 1128TIP3   OH224798   6.479   0.675  14.490  0.2375  0.4767  0.7411
 1128TIP3    H124799   6.399   0.624  14.479 -0.3962  1.1618  1.8993
 1128TIP3    H224800   6.458   0.762  14.457  1.4607 -0.0613 -1.6630
 1129TIP3   OH224801   5.737   3.859   0.316  0.2664 -0.9930  0.3964
 1129TIP3    H124802   5.819   3.810   0.305 -0.9612 -2.6499 -2.6732
 1129TIP3    H224803   5.736   3.920   0.242 -0.3543  0.5275  1.6143
 1130TIP3   OH224804   4.158   4.260  14.762  0.1282 -0.1741 -0.0233
 1130TIP3    H124805   4.170   4.199  14.835 -0.1189  0.8270  0.8789
 1130TIP3    H224806   4.245   4.297  14.747 -0.0348  0.4417  0.5172
 1131TIP3   OH224807   0.181   3.565  15.181  0.1290 -0.0853  0.0900
 1131TIP3    H124808   0.089   3.545  15.163  0.5066 -1.2276 -0.6816
 1131TIP3    H224809   0.227   3.542  15.100  0.5020  5.5250 -1.7080
 1132TIP3   OH224810   5.082   1.876  16.182  0.2032 -0.1592  0.0943
 1132TIP3    H124811   5.033   1.956  16.202  1.0480  0.1828  0.8726
 1132TIP3    H224812   5.096   1.834  16.267  0.0305 -0.9783 -0.2791
 1133TIP3   OH224813   1.095   5.586  14.445  0.2006  0.5270 -0.3823
 1133TIP3    H124814   1.121   5.673  14.475  1.0936  0.8663 -1.9660
 1133TIP3    H224815   1.016   5.601  14.394  0.2422  0.3850 -0.4898
 1134TIP3   OH224816   2.337   6.656   5.338 -0.3826  0.1437 -0.0639
 1134TIP3    H124817   2.385   6.625   5.261  0.2007  1.2258 -0.1513
 1134TIP3    H224818   2.378   6.740   5.361 -1.2754  0.3838  0.7543
 1135TIP3   OH224819   6.710   3.029   1.913 -0.0337  0.3127  0.0597
 1135TIP3    H124820   6.709   3.069   2.000 -0.5564 -1.9996  1.1846
 1135TIP3    H224821   6.621   3.043   1.879  0.0189  0.7668  0.1067
 1136TIP3   OH224822   4.125   1.040   3.168 -0.1909  0.6288 -0.2630
 1136TIP3    H124823   4.114   0.959   3.117 -1.3872  0.5902  0.0262
 1136TIP3    H224824   4.173   1.099   3.109 -0.5239  0.1861 -0.9959
 1137TIP3   OH224825   1.085   3.051  16.868 -0.2179 -0.1657  0.4377
 1137TIP3    H124826   1.099   3.120  16.803  0.5099  0.0709  0.8359
 1137TIP3    H224827   1.065   2.973  16.816  2.7303 -0.5840 -0.2510
 1138TIP3   OH224828   2.315   1.606   5.307  0.2368  0.2023 -0.2504
 1138TIP3    H124829   2.224   1.589   5.333 -0.2338 -1.2657 -2.5470
 1138TIP3    H224830   2.357   1.520   5.310  1.0508  0.5684 -0.9477
 1139TIP3   OH224831   5.079   3.421   5.181 -0.2264 -0.3384  0.6463
 1139TIP3    H124832   5.022   3.359   5.136  0.3778 -0.2359 -0.2991
 1139TIP3    H224833   5.050   3.507   5.151 -2.1262  0.0182  3.1802
 1140TIP3   OH224834   1.200   1.605   5.061  0.3290 -1.3975  0.4887
 1140TIP3    H124835   1.229   1.618   4.971 -1.1363 -2.7018 -0.2048
 1140TIP3    H224836   1.164   1.690   5.087  1.9802 -0.6162  0.3582
 1141TIP3   OH224837   4.900   3.238   5.037 -0.7000 -0.0449  0.0744
 1141TIP3    H124838   4.950   3.229   4.956  1.0730 -0.5483  1.1757
 1141TIP3    H224839   4.814   3.201   5.017  0.0245 -1.0667 -1.2792
 1142TIP3   OH224840   4.857   3.926   3.048 -0.7759 -0.1384  0.6979
 1142TIP3    H124841   4.898   3.996   3.100  0.3488 -0.2417 -0.0087
 1142TIP3    H224842   4.776   3.965   3.015 -0.2609  0.7808  0.4651
 1143TIP3   OH224843   1.290   0.619   4.315  0.9607  0.2148 -0.0602
 1143TIP3    H124844   1.270   0.538   4.362  1.9524 -1.8525 -2.9210
 1143TIP3    H224845   1.244   0.611   4.231  0.6707  2.8967 -0.2663
 1144TIP3   OH224846   3.153   3.385   5.282 -0.2885  0.0327 -0.1327
 1144TIP3    H124847   3.205   3.321   5.330  1.6850  2.2443  0.8559
 1144TIP3    H224848   3.187   3.382   5.193 -1.6197 -1.6544 -0.6440
 1145TIP3   OH224849   1.770   1.337  14.821  0.2242 -0.2549  0.3739
 1145TIP3    H124850   1.767   1.433  14.825  0.1730 -0.1740 -0.9849
 1145TIP3    H224851   1.854   1.318  14.778  0.1909 -0.8136  0.5556
 1146TIP3   OH224852   4.114   5.360  13.356 -0.0202  0.5307 -0.0306
 1146TIP3    H124853   4.113   5.443  13.403 -3.5785  0.8949 -0.4946
 1146TIP3    H224854   4.116   5.384  13.263  0.8453 -0.0001 -0.1673
 1147TIP3   OH224855   6.366   3.918   3.774 -0.0439  0.4446 -0.3966
 1147TIP3    H124856   6.333   3.840   3.729 -0.6712 -0.0539  0.8907
 1147TIP3    H224857   6.297   3.984   3.761 -0.0584  0.4196 -0.4497
 1148TIP3   OH224858   6.016   2.905   3.597  0.2498 -0.8688  0.3150
 1148TIP3    H124859   6.031   2.921   3.504 -1.4002  2.0047  0.4399
 1148TIP3    H224860   6.058   2.820   3.614  1.2201 -1.1340 -2.8446
 1149TIP3   OH224861   1.136   0.170   2.635  0.0503 -0.0070  0.2940
 1149TIP3    H124862   1.115   0.149   2.544 -0.3019  1.8080 -0.0950
 1149TIP3    H224863   1.215   0.119   2.654 -0.3819 -1.1002 -0.7228
 1150TIP3   OH224864   3.965   5.241   1.112  0.1437 -0.2679 -0.1500
 1150TIP3    H124865   3.875   5.270   1.100 -0.1202 -0.7764  0.5278
 1150TIP3    H224866   3.967   5.202   1.200  0.7651 -1.2137 -0.5599
 1151TIP3   OH224867   1.414   5.397  16.095  0.0307  0.4008 -0.0752
 1151TIP3    H124868   1.354   5.445  16.038  0.1475  0.9928  0.2850
 1151TIP3    H224869   1.494   5.451  16.095 -0.0507  0.5266  0.8214
 1152TIP3   OH224870   2.643   4.746   2.185 -0.7532  0.0045 -0.6656
 1152TIP3    H124871   2.564   4.705   2.151 -1.4832  1.5853 -0.9849
 1152TIP3    H224872   2.664   4.696   2.264  0.4122 -3.1070 -2.7903
 1153TIP3   OH224873   6.671   3.089   6.323  0.3587 -0.2206 -0.3922
 1153TIP3    H124874   6.673   3.174   6.367  0.9664 -0.0866 -0.6754
 1153TIP3    H224875   6.579   3.076   6.300  0.0089 -0.3412  0.9958
 1154TIP3   OH224876   1.588   6.499   2.884 -0.6191  0.0315  0.3478
 1154TIP3    H124877   1.560   6.590   2.873 -1.9450 -0.1548  1.9422
 1154TIP3    H224878   1.611   6.471   2.795  1.3761  2.3714  0.0322
 1155TIP3   OH224879   3.442   6.773  11.899  0.4397 -0.5045  0.7617
 1155TIP3    H124880   3.482   6.840  11.843 -0.5667 -0.7800 -0.3208
 1155TIP3    H224881   3.465   6.690  11.858  2.0415 -0.8960  2.3349
 1156TIP3   OH224882   4.432   2.345  14.306  0.7024  0.0968 -0.0636
 1156TIP3    H124883   4.523   2.374  14.297  0.0838  1.6607 -2.1505
 1156TIP3    H224884   4.380   2.414  14.264 -1.4416 -0.8735  0.8262
 1157TIP3   OH224885   3.733   2.531  12.796  0.1225  0.5679 -0.4851
 1157TIP3    H124886   3.748   2.624  12.778  1.0499  0.5514  0.1475
 1157TIP3    H224887   3.788   2.484  12.733 -1.1117  0.3984 -1.4964
 1158TIP3   OH224888   5.012   6.361   5.727 -0.4258  0.3747  0.6556
 1158TIP3    H124889   4.953   6.412   5.672  1.4302  0.6618 -1.2195
 1158TIP3    H224890   5.096   6.406   5.720  0.8186 -1.8205  0.5200
 1159TIP3   OH224891   0.135   4.261   0.126  0.1185  0.5295 -0.0093
 1159TIP3    H124892   0.151   4.310   0.206 -1.8027  0.8629  0.2271
 1159TIP3    H224893   0.215   4.212   0.111  0.0420 -0.7117  2.9573
 1160TIP3   OH224894   2.817   6.389   1.485  0.6530  0.1562  0.1442
 1160TIP3    H124895   2.819   6.477   1.447  0.7833 -0.8967 -2.4652
 1160TIP3    H224896   2.896   6.346   1.452  0.4287 -1.0781  1.1172
 1161TIP3   OH224897   1.181   3.677   2.088  0.2805  0.4135 -0.1892
 1161TIP3    H124898   1.137   3.637   2.163 -0.1112  0.9094 -0.1438
 1161TIP3    H224899   1.268   3.700   2.120  0.2756  0.1993 -0.0249
 1162TIP3   OH224900   5.495   2.934   5.317  0.3422  0.6496 -0.3346
 1162TIP3    H124901   5.523   2.847   5.345 -0.5508  0.1713 -0.8783
 1162TIP3    H224902   5.571   2.990   5.334  1.2743 -0.4111 -0.8608
 1163TIP3   OH224903   2.617   5.759   3.431 -0.1552 -0.1262 -0.4110
 1163TIP3    H124904   2.685   5.755   3.363  2.1865 -0.6725  1.8224
 1163TIP3    H224905   2.652   5.818   3.497 -0.2095 -2.9880  2.4117
 1164TIP3   OH224906   4.521   1.743  15.317  0.7764  0.2492  0.2729
 1164TIP3    H124907   4.482   1.775  15.398  0.6159  0.7447  0.0021
 1164TIP3    H224908   4.548   1.654  15.337 -1.0059 -0.3255  0.3192
 1165TIP3   OH224909   3.011   1.776  14.282  0.2471 -0.3563  0.2656
 1165TIP3    H124910   3.080   1.739  14.337 -0.1480 -1.7860 -0.1610
 1165TIP3    H224911   3.008   1.718  14.206 -2.0507 -0.8925  0.6970
 1166TIP3   OH224912   2.281   0.968  16.237 -0.0816 -0.1765 -0.0710
 1166TIP3    H124913   2.367   1.007  16.252  0.3189 -0.5364 -1.3457
 1166TIP3    H224914   2.299   0.876  16.220 -0.4549  0.1405 -2.5531
 1167TIP3   OH224915   1.145   0.880  11.972  0.0522  0.4224  0.0135
 1167TIP3    H124916   1.057   0.910  11.947  0.8163  1.9996 -1.0196
 1167TIP3    H224917   1.194   0.961  11.984  1.0518 -0.4067  1.9092
 1168TIP3   OH224918   1.286   1.067  13.215 -0.4334 -0.3859  0.0569
 1168TIP3    H124919   1.311   1.159  13.210 -1.3406 -0.1413 -0.1093
 1168TIP3    H224920   1.344   1.030  13.281  0.2343  0.2040 -0.1954
 1169TIP3   OH224921   0.182   3.522   2.538 -0.0105 -0.4586  0.0479
 1169TIP3    H124922   0.236   3.463   2.591  1.6836  0.4605 -0.6002
 1169TIP3    H224923   0.219   3.609   2.553 -0.6006  0.0502 -1.2851
 1170TIP3   OH224924   3.815   4.422  14.849 -0.1916 -0.5638 -0.4106
 1170TIP3    H124925   3.848   4.344  14.806  1.3717  1.5087 -3.2957
 1170TIP3    H224926   3.879   4.440  14.918 -1.0407 -2.2068  0.8759
 1171TIP3   OH224927   6.639   4.454   4.842  0.1186  0.7672  0.0109
 1171TIP3    H124928   6.722   4.491   4.873 -0.0714  0.8517  0.4182
 1171TIP3    H224929   6.575   4.479   4.909  0.0586 -0.6117  0.4860
 1172TIP3   OH224930   1.060   4.477   0.787  0.0742  0.4652 -0.1572
 1172TIP3    H124931   1.067   4.566   0.822 -0.8587 -0.1985  1.8770
 1172TIP3    H224932   0.989   4.482   0.723  2.6042  1.9733 -3.0868
 1173TIP3   OH224933   6.329   1.598   2.832  0.4959  0.7779  0.0970
 1173TIP3    H124934   6.361   1.595   2.742  1.9903 -0.7140  0.6234
 1173TIP3    H224935   6.235   1.611   2.824  0.3157 -1.1378 -1.7484
 1174TIP3   OH224936   4.934   0.749  16.789  0.3031 -0.5332 -0.3087
 1174TIP3    H124937   5.018   0.707  16.767  0.4874 -1.2893  1.6630
 1174TIP3    H224938   4.916   0.721  16.878 -0.7872  1.7079  0.2472
 1175TIP3   OH224939   2.067   5.427  16.547  0.6233 -0.1648  0.0618
 1175TIP3    H124940   2.051   5.522  16.552  0.4597 -0.2292  1.0077
 1175TIP3    H224941   2.140   5.418  16.486  0.2977  0.5271 -0.4496
 1176TIP3   OH224942   3.974   5.386   6.113 -0.0723 -0.2828  0.3520
 1176TIP3    H124943   3.886   5.384   6.078  0.0291 -0.1332  0.0904
 1176TIP3    H224944   3.970   5.449   6.186  0.1183  0.7101 -0.4727
 1177TIP3   OH224945   3.717   5.921   5.773 -0.5794  0.6302  0.0271
 1177TIP3    H124946   3.639   5.889   5.727 -0.5066  0.6347 -0.1000
 1177TIP3    H224947   3.687   5.937   5.862 -0.3949 -0.7298  0.3570
 1178TIP3   OH224948   4.127   4.769   5.317  0.2316  0.5215 -0.2599
 1178TIP3    H124949   4.170   4.746   5.235  0.9542  1.4822 -0.1685
 1178TIP3    H224950   4.195   4.811   5.369 -0.6713  1.5912  0.1048
 1179TIP3   OH224951   3.619   0.915   5.467 -0.5333  0.0028  0.4597
 1179TIP3    H124952   3.566   0.970   5.525 -1.1631  2.9197 -2.5389
 1179TIP3    H224953   3.587   0.826   5.481 -2.9999  1.0499  2.0653
 1180TIP3   OH224954   3.551   1.246  15.663  0.3667 -0.0838  0.4960
 1180TIP3    H124955   3.637   1.205  15.667  0.6041  0.3146 -0.2612
 1180TIP3    H224956   3.497   1.182  15.616  0.0745 -0.6040  1.5114
 1181TIP3   OH224957   2.190   2.191   3.730  0.5082  0.0937  0.0360
 1181TIP3    H124958   2.215   2.282   3.719 -2.0431  1.1550  1.9165
 1181TIP3    H224959   2.257   2.154   3.787  1.4485  0.8436 -0.5673
 1182TIP3   OH224960   3.619   6.068  15.898 -0.4628 -0.6396  0.4615
 1182TIP3    H124961   3.585   6.118  15.824  0.6735 -0.6893 -0.1087
 1182TIP3    H224962   3.555   6.083  15.968 -0.0459  1.8417  0.4062
 1183TIP3   OH224963   6.674   3.000  14.876  0.0022 -0.1004  0.1681
 1183TIP3    H124964   6.661   3.079  14.825 -0.2731  2.3293  3.6351
 1183TIP3    H224965   6.766   3.001  14.901 -0.3241 -0.0005  1.4551
 1184TIP3   OH224966   5.335   2.660   4.134  0.1489 -0.2810  0.3491
 1184TIP3    H124967   5.366   2.694   4.218 -2.6361 -0.0273  1.3894
 1184TIP3    H224968   5.348   2.565   4.140  0.1520 -0.2418  0.9921
 1185TIP3   OH224969   6.699   3.477   1.050  0.2062  0.1262 -0.1402
 1185TIP3    H124970   6.672   3.402   0.997 -1.7410  0.9264 -0.3621
 1185TIP3    H224971   6.680   3.553   0.995 -1.2726  0.9503  1.4008
 1186TIP3   OH224972   2.929   4.410  13.828 -0.1867 -0.3927 -0.1714
 1186TIP3    H124973   2.969   4.429  13.913  0.0062  0.8259 -0.5151
 1186TIP3    H224974   2.887   4.324  13.840  1.5053 -1.1557  0.5459
 1187TIP3   OH224975   1.063   5.713   2.183 -0.1304 -0.2074 -0.2260
 1187TIP3    H124976   1.144   5.763   2.183  0.0130 -0.4368 -0.8702
 1187TIP3    H224977   1.074   5.648   2.115  0.2484 -2.0605  1.5064
 1188TIP3   OH224978   3.669   6.504  13.019  0.3836 -0.3923 -0.4398
 1188TIP3    H124979   3.665   6.458  12.936  0.0421 -0.5182 -0.3558
 1188TIP3    H224980   3.732   6.455  13.071 -1.7572 -2.2910  0.5561
 1189TIP3   OH224981   4.442   2.227  13.718 -0.1008 -0.4561 -0.1150
 1189TIP3    H124982   4.432   2.163  13.788 -0.0486  0.5877  0.8709
 1189TIP3    H224983   4.369   2.209  13.659  0.5268 -2.1298 -0.4538
 1190TIP3   OH224984   1.044   4.704   2.465  0.4405  0.3038  0.1326
 1190TIP3    H124985   0.950   4.686   2.466  0.5720 -0.4165  1.1625
 1190TIP3    H224986   1.077   4.665   2.546  1.5625  0.9218 -0.0009
 1191TIP3   OH224987   2.735   1.855   0.269  0.0893 -0.6291  0.3847
 1191TIP3    H124988   2.696   1.913   0.203  2.3549 -0.5773 -1.0356
 1191TIP3    H224989   2.696   1.769   0.251 -0.2796 -0.3504 -0.1829
 1192TIP3   OH224990   6.580   4.514   1.678 -0.5196  0.0682 -0.1525
 1192TIP3    H124991   6.559   4.556   1.761 -0.8940 -0.5520  0.0723
 1192TIP3    H224992   6.526   4.435   1.676 -0.4665  0.0390 -0.9549
 1193TIP3   OH224993   5.815   2.599  12.335 -0.3742 -0.1275  0.3428
 1193TIP3    H124994   5.880   2.666  12.357 -0.4741 -0.5318  2.0282
 1193TIP3    H224995   5.743   2.615  12.395 -1.1161 -0.7427 -0.3595
 1194TIP3   OH224996   3.918   4.117   0.340 -0.1241  0.1180  0.1315
 1194TIP3    H124997   3.986   4.146   0.279  0.0150  0.8472  0.6268
 1194TIP3    H224998   3.967   4.075   0.411 -0.0217  2.3349  1.4399
 1195TIP3   OH224999   4.041   1.903   1.575 -0.8529  0.0565 -0.6288
 1195TIP3    H125000   4.080   1.819   1.596 -1.3016 -0.6859 -2.5864
 1195TIP3    H225001   4.110   1.967   1.592  0.5652 -1.0217 -2.1064
 1196TIP3   OH225002   5.389   4.285  16.013  0.3007  0.9529  0.1405
 1196TIP3    H125003   5.454   4.342  16.054  0.2988  0.3706  0.9887
 1196TIP3    H225004   5.322   4.273  16.081  0.3441 -0.1122  0.0095
 1197TIP3   OH225005   3.400   3.925  14.583 -0.1520 -0.3064  0.5120
 1197TIP3    H125006   3.361   3.898  14.666 -1.5785  2.4975  0.8605
 1197TIP3    H225007   3.440   3.845  14.549 -2.3910 -2.3613  2.2927
 1198TIP3   OH225008   0.686   3.484   4.155 -0.4024 -0.5716  0.4754
 1198TIP3    H125009   0.710   3.397   4.124 -1.6636 -1.0853  0.8681
 1198TIP3    H225010   0.663   3.533   4.076  1.2640 -0.2553  0.1523
 1199TIP3   OH225011   2.371   5.727   4.028  0.0735 -0.4372 -0.0536
 1199TIP3    H125012   2.301   5.786   3.999  0.5240 -0.0615 -0.3809
 1199TIP3    H225013   2.431   5.782   4.078  1.8078 -0.0276 -2.4231
 1200TIP3   OH225014   3.091   1.770   1.785 -0.2813 -0.3809 -0.5077
 1200TIP3    H125015   3.155   1.777   1.714 -1.5102  2.6654 -1.5101
 1200TIP3    H225016   3.132   1.816   1.859 -0.2464 -0.7940 -0.2682
 1201TIP3   OH225017   3.063   5.386  16.169  0.3951  0.2341 -0.8803
 1201TIP3    H125018   2.987   5.341  16.131 -0.5249  0.6390  0.4207
 1201TIP3    H225019   3.138   5.338  16.134 -0.4729 -0.6552 -1.6070
 1202TIP3   OH225020   5.435   3.265  16.375 -0.0816 -0.6324 -0.6462
 1202TIP3    H125021   5.524   3.230  16.379  0.4271 -0.3668 -4.8632
 1202TIP3    H225022   5.379   3.188  16.371  0.1026 -0.8205  0.3286
 1203TIP3   OH225023   0.362   2.669  12.991  0.8536  0.2478  0.1098
 1203TIP3    H125024   0.297   2.685  13.060  0.6345 -3.1058  0.8540
 1203TIP3    H225025   0.415   2.749  12.989 -0.7071  1.4507  2.3894
 1204TIP3   OH225026   2.096   6.207   4.789  0.1499 -0.3416  0.0810
 1204TIP3    H125027   2.019   6.261   4.772 -0.2313 -0.0003  2.4845
 1204TIP3    H225028   2.064   6.135   4.843  1.5220  0.0492  1.5137
 1205TIP3   OH225029   1.986   2.810   5.330 -0.5795  0.2678  0.3214
 1205TIP3    H125030   1.962   2.804   5.237 -0.5825 -1.0787  0.3961
 1205TIP3    H225031   1.903   2.807   5.377 -0.5398  0.2626  0.3915
 1206TIP3   OH225032   0.574   0.652   1.291 -0.1782 -0.1263  0.3310
 1206TIP3    H125033   0.530   0.574   1.325  1.2582 -0.8837  0.5346
 1206TIP3    H225034   0.666   0.626   1.283  0.0111  0.9363 -1.4533
 1207TIP3   OH225035   6.721   1.795   6.562  0.4394  0.4352  0.0138
 1207TIP3    H125036   6.682   1.851   6.495  0.8016  0.4575 -0.1806
 1207TIP3    H225037   6.665   1.808   6.639  0.7992  1.4469  0.1245
 1208TIP3   OH225038   2.521   4.301   3.034  0.2699 -0.6301  0.6466
 1208TIP3    H125039   2.573   4.321   3.112 -0.1992  0.6821  0.6441
 1208TIP3    H225040   2.430   4.304   3.064  0.1019 -0.4780  0.1389
 1209TIP3   OH225041   6.670   4.084  16.342 -0.3886 -0.0181  0.0140
 1209TIP3    H125042   6.584   4.074  16.300  0.1235 -1.3307 -0.7923
 1209TIP3    H225043   6.684   4.179  16.345 -2.4549  0.3077  1.4451
 1210TIP3   OH225044   2.953   6.055   0.028  0.3326  0.4160  0.3297
 1210TIP3    H125045   3.005   6.036  -0.050  1.3217 -1.3677  1.3525
 1210TIP3    H225046   3.004   6.019   0.100 -0.8982  1.3835  1.7360
 1211TIP3   OH225047   5.790   0.817   1.825 -0.1996 -0.3429 -0.3780
 1211TIP3    H125048   5.812   0.755   1.895 -0.3906 -1.4226 -1.2449
 1211TIP3    H225049   5.704   0.789   1.795 -0.4970  0.6485 -0.4798
 1212TIP3   OH225050   4.522   2.951   1.342 -0.6478  0.1656  0.5360
 1212TIP3    H125051   4.559   2.929   1.256  1.0468 -0.4660  1.3858
 1212TIP3    H225052   4.550   3.041   1.357  2.3692 -0.9062  2.0079
 1213TIP3   OH225053   5.737   3.338  14.872  0.0132  0.0390 -0.9407
 1213TIP3    H125054   5.719   3.244  14.882  1.5070 -0.1854 -0.0117
 1213TIP3    H225055   5.805   3.356  14.938 -0.1200  1.7352 -1.2341
 1214TIP3   OH225056   0.350   5.697   3.394  0.0968  0.1496 -0.2325
 1214TIP3    H125057   0.321   5.648   3.471  1.1103  0.2758  0.2377
 1214TIP3    H225058   0.350   5.633   3.324 -2.5616  0.4135 -0.5860
 1215TIP3   OH225059   6.095   2.911  14.413  0.1301 -0.0200  0.2883
 1215TIP3    H125060   6.177   2.959  14.421 -0.0440  0.2243  0.6165
 1215TIP3    H225061   6.046   2.933  14.492  0.2334 -1.0781  0.6718
 1216TIP3   OH225062   2.190   3.338  10.501 -0.1469  0.1689  0.1950
 1216TIP3    H125063   2.209   3.334  10.407 -0.8331  0.2905  0.0421
 1216TIP3    H225064   2.100   3.306  10.508  0.6010 -1.9226  1.0739
 1217TIP3   OH225065   1.181   3.006   1.134 -0.4334  0.2917  0.3728
 1217TIP3    H125066   1.124   2.980   1.061  2.6423 -1.1445 -1.7182
 1217TIP3    H225067   1.185   3.101   1.129 -2.9144  0.4957  0.9087
 1218TIP3   OH225068   0.383   5.501  13.146 -0.5786  0.1159 -0.4532
 1218TIP3    H125069   0.385   5.435  13.215  0.4998  1.4348  0.8359
 1218TIP3    H225070   0.445   5.469  13.081 -1.1840 -0.8601 -0.5772
 1219TIP3   OH225071   2.941   0.608  16.393 -0.3734  0.1144 -0.2140
 1219TIP3    H125072   2.973   0.536  16.338  0.9629 -0.1062  0.8056
 1219TIP3    H225073   2.979   0.687  16.355 -1.0525  0.1935 -0.7528
 1220TIP3   OH225074   3.176   5.533   4.537  0.1589 -0.4659 -0.1157
 1220TIP3    H125075   3.147   5.615   4.576 -2.2631 -1.8064  1.0960
 1220TIP3    H225076   3.205   5.558   4.449 -1.1394  1.5854 -0.0242
 1221TIP3   OH225077   2.976   1.231  12.233 -0.3233 -0.3670  0.0592
 1221TIP3    H125078   2.961   1.166  12.164  0.1989  0.7508 -1.1383
 1221TIP3    H225079   3.023   1.182  12.301  2.4609 -0.6984 -1.9267
 1222TIP3   OH225080   3.755   5.113  10.995 -0.2599 -0.3690  0.2725
 1222TIP3    H125081   3.759   5.177  10.924  2.2124 -0.7084 -0.0022
 1222TIP3    H225082   3.710   5.158  11.066 -1.3272  0.5453 -0.9418
 1223TIP3   OH225083   1.133   4.721  16.213 -0.1526 -0.5632 -0.5129
 1223TIP3    H125084   1.083   4.690  16.289 -1.1712 -1.6128 -1.5566
 1223TIP3    H225085   1.154   4.811  16.234 -2.0311 -0.2378  0.2496
 1224TIP3   OH225086   1.942   1.305   1.063 -0.7836 -0.2713 -0.4948
 1224TIP3    H125087   1.970   1.260   1.143 -0.3975  2.1265  0.8100
 1224TIP3    H225088   1.850   1.278   1.052 -0.6835 -1.0564  0.4174
 1225TIP3   OH225089   4.296   1.407   0.570 -1.0201  0.0207 -0.4068
 1225TIP3    H125090   4.305   1.460   0.649  0.5748 -2.0940  0.9548
 1225TIP3    H225091   4.375   1.426   0.519 -0.3607 -1.1153  0.1653
 1226TIP3   OH225092   0.012   5.190   4.645  0.4451 -0.7368  0.0374
 1226TIP3    H125093   0.077   5.174   4.577  0.4268 -1.5483  0.2102
 1226TIP3    H225094  -0.023   5.277   4.624  0.8288 -0.7450 -0.6692
 1227TIP3   OH225095   1.886   0.553   0.978 -0.0673  0.2218 -0.4096
 1227TIP3    H125096   1.803   0.518   0.947 -0.8072  0.7969  0.8784
 1227TIP3    H225097   1.905   0.505   1.058 -1.1319  2.6866  1.4400
 1228TIP3   OH225098   4.649   5.176  11.340 -0.7195 -0.3088  0.1534
 1228TIP3    H125099   4.619   5.085  11.342 -0.4060 -0.4307 -0.5911
 1228TIP3    H225100   4.738   5.172  11.307  1.0794 -0.1769  4.4049
 1229TIP3   OH225101   6.457   3.669  14.914  0.3470 -0.4154  0.0458
 1229TIP3    H125102   6.470   3.576  14.929  0.6674 -0.3446  0.2214
 1229TIP3    H225103   6.399   3.698  14.984  0.2337 -0.4868 -0.0196
 1230TIP3   OH225104   0.715   2.130  11.343  0.0880  0.4513 -0.0021
 1230TIP3    H125105   0.642   2.181  11.308 -0.2422  0.0769  0.1311
 1230TIP3    H225106   0.678   2.042  11.356  0.4953  0.3250  0.2992
 1231TIP3   OH225107   5.927   3.509  12.275  0.4038  0.0484  0.7390
 1231TIP3    H125108   5.918   3.492  12.369 -1.1255 -0.5703  0.5007
 1231TIP3    H225109   5.844   3.482  12.237  1.5791 -1.3593 -1.0437
 1232TIP3   OH225110   0.567   0.195   2.001 -0.1140 -0.2441 -0.4673
 1232TIP3    H125111   0.481   0.221   1.969 -0.4339 -0.5709  0.0957
 1232TIP3    H225112   0.549   0.122   2.060  0.5122 -0.0711 -0.0497
 1233TIP3   OH225113   1.224   6.121   6.167  0.0866  0.4061 -0.0386
 1233TIP3    H125114   1.171   6.161   6.098 -0.6004  1.7529  1.2251
 1233TIP3    H225115   1.164   6.110   6.241  0.5473 -1.9567  0.0660
 1234TIP3   OH225116   3.490   5.984   3.954 -0.4699 -0.0506 -0.4264
 1234TIP3    H125117   3.550   5.942   3.893 -0.4723  0.9584 -1.1464
 1234TIP3    H225118   3.542   6.051   3.997 -1.0815  0.8784 -1.1045
 1235TIP3   OH225119   5.851   4.539   6.074  0.3054 -0.2574 -0.5342
 1235TIP3    H125120   5.833   4.535   6.168 -0.5929  0.3134 -0.6665
 1235TIP3    H225121   5.940   4.574   6.068 -0.2608  1.4002  0.0876
 1236TIP3   OH225122   5.886   3.833  13.042  0.4531  0.0072 -0.6240
 1236TIP3    H125123   5.869   3.741  13.025  1.0963  0.1134 -2.0189
 1236TIP3    H225124   5.853   3.848  13.130  2.3429 -2.0811  0.5623
 1237TIP3   OH225125   3.476   3.195   1.795 -0.2436 -0.3849 -0.3943
 1237TIP3    H125126   3.417   3.214   1.868 -2.8790 -0.4835 -2.3545
 1237TIP3    H225127   3.483   3.100   1.793  0.1429 -0.3659 -0.0596
 1238TIP3   OH225128   3.759   0.211   6.071 -0.2545  0.2938 -0.1294
 1238TIP3    H125129   3.846   0.182   6.100  0.3404  1.0405 -1.1199
 1238TIP3    H225130   3.716   0.242   6.151  0.8835  1.1364  0.1710
 1239TIP3   OH225131   4.809   2.563   5.786 -0.6051  0.3507 -0.0608
 1239TIP3    H125132   4.898   2.584   5.760 -0.2275 -1.0426  0.0301
 1239TIP3    H225133   4.770   2.648   5.809  0.6324  0.9942 -0.2537
 1240TIP3   OH225134   3.073   5.346  11.879  0.1652  0.0718  0.3479
 1240TIP3    H125135   3.105   5.380  11.795 -0.0071  0.7989  0.5671
 1240TIP3    H225136   3.105   5.409  11.944  1.8760 -1.4600  1.0682
 1241TIP3   OH225137   3.028   5.404  15.274  0.0908  1.0333  0.1154
 1241TIP3    H125138   3.023   5.365  15.361  1.3719  1.1681  0.2723
 1241TIP3    H225139   2.986   5.340  15.216 -0.0387  0.5687  0.7129
 1242TIP3   OH225140   6.013   5.057   3.921 -0.1532 -0.0773  0.1546
 1242TIP3    H125141   5.997   4.967   3.892  0.4725  0.2055 -1.1138
 1242TIP3    H225142   6.078   5.091   3.860 -0.5106  1.2986  0.5137
 1243TIP3   OH225143   5.274   1.550   0.742  0.3684 -0.0222 -0.4508
 1243TIP3    H125144   5.277   1.523   0.834  2.1686 -0.4802 -0.6179
 1243TIP3    H225145   5.180   1.562   0.724  0.0272  1.0398  1.6966
 1244TIP3   OH225146   0.897   6.007   0.649 -0.1276  0.1949 -0.1092
 1244TIP3    H125147   0.834   6.042   0.712 -0.7534 -2.3396  0.7846
 1244TIP3    H225148   0.874   6.048   0.566 -1.3925  1.1345  0.6798
 1245TIP3   OH225149   2.350   2.658  10.875  0.1513  0.5604 -0.0643
 1245TIP3    H125150   2.288   2.665  10.803 -0.1144 -0.9634 -0.0156
 1245TIP3    H225151   2.430   2.626  10.834  0.3324  0.7388  0.1516
 1246TIP3   OH225152   3.493   4.533  14.379  0.3612 -0.1360 -0.1422
 1246TIP3    H125153   3.503   4.626  14.400 -0.5141 -0.3262  1.2662
 1246TIP3    H225154   3.494   4.489  14.464  3.8465 -1.8059 -0.9001
 1247TIP3   OH225155   2.449   1.531  15.584  0.0101 -0.6867  0.1001
 1247TIP3    H125156   2.492   1.463  15.533 -0.9613 -0.9758 -0.3582
 1247TIP3    H225157   2.364   1.544  15.541 -0.4985 -0.3583  1.1564
 1248TIP3   OH225158   2.211   5.408   3.916 -0.1372 -0.4004  0.6045
 1248TIP3    H125159   2.159   5.476   3.960 -1.3594  0.0094 -1.3354
 1248TIP3    H225160   2.159   5.386   3.838  1.9629 -1.0121 -0.6830
 1249TIP3   OH225161   3.888   4.492   4.960  0.0776  0.3373 -0.3701
 1249TIP3    H125162   3.827   4.477   5.033 -0.9443 -0.5250 -1.3575
 1249TIP3    H225163   3.974   4.468   4.994 -0.6193 -1.6431  0.0831
 1250TIP3   OH225164   3.144   3.627   5.543 -0.2960 -0.0087  0.0460
 1250TIP3    H125165   3.138   3.719   5.518  1.9944 -0.4248 -2.5734
 1250TIP3    H225166   3.065   3.587   5.505 -0.9445  0.7429  0.5814
 1251TIP3   OH225167   1.663   1.697   5.324  0.7442  0.0602 -0.0108
 1251TIP3    H125168   1.570   1.705   5.302  1.0690 -0.0992 -1.5619
 1251TIP3    H225169   1.671   1.736   5.411 -0.8354 -0.2714  0.3063
 1252TIP3   OH225170   2.751   3.268  16.983  0.2385  0.5279 -0.1819
 1252TIP3    H125171   2.701   3.190  16.958  1.7438 -0.0799 -1.4055
 1252TIP3    H225172   2.697   3.309  17.051 -1.2962 -0.7752 -0.5389
 1253TIP3   OH225173   5.171   3.279  16.622  0.2007 -0.2007 -0.2448
 1253TIP3    H125174   5.243   3.216  16.623  1.2443  0.9260 -1.3530
 1253TIP3    H225175   5.173   3.316  16.534  1.0319  2.9186  0.9640
 1254TIP3   OH225176   3.237   0.314  12.209  0.5991 -0.6651 -0.2514
 1254TIP3    H125177   3.232   0.274  12.295 -1.7643  0.4281  0.1958
 1254TIP3    H225178   3.250   0.407  12.227  0.3786 -0.4671 -1.0725
 1255TIP3   OH225179   5.122   5.801   4.264  0.5170  0.4167 -0.1873
 1255TIP3    H125180   5.116   5.894   4.285  1.1246  0.7401 -1.3780
 1255TIP3    H225181   5.106   5.796   4.170 -1.0892 -0.8708  0.1124
 1256TIP3   OH225182   5.691   1.689  11.777 -0.4838 -0.2815  0.1949
 1256TIP3    H125183   5.627   1.621  11.796 -1.8916  0.3816 -1.8164
 1256TIP3    H225184   5.658   1.767  11.820 -1.3861  0.1886 -1.2705
 1257TIP3   OH225185   5.186   2.195   3.303 -0.1472  0.3764 -1.3692
 1257TIP3    H125186   5.253   2.255   3.270  0.5031 -0.8068 -2.2878
 1257TIP3    H225187   5.103   2.230   3.269 -0.0456  1.8484 -0.2280
 1258TIP3   OH225188   2.576   1.771  15.593  0.2238 -0.1766  0.0992
 1258TIP3    H125189   2.632   1.771  15.516  0.3302 -2.4583  0.1059
 1258TIP3    H225190   2.529   1.688  15.589 -2.6299  1.2734  0.5190
 1259TIP3   OH225191   4.090   4.325   0.632  0.3894  0.8367 -0.0825
 1259TIP3    H125192   4.000   4.300   0.655  0.4453  2.1858  1.8522
 1259TIP3    H225193   4.094   4.314   0.537 -2.1068  1.6058 -0.3608
 1260TIP3   OH225194   3.245   3.571  13.928  0.1375 -0.3936  0.2644
 1260TIP3    H125195   3.254   3.646  13.986 -0.7131 -0.7771  0.9167
 1260TIP3    H225196   3.197   3.604  13.852  0.0481 -0.2041  0.4042
 1261TIP3   OH225197   0.135   1.426   3.016  0.0540  0.5171  0.2728
 1261TIP3    H125198   0.079   1.379   2.954  1.1076  0.4054 -0.6277
 1261TIP3    H225199   0.082   1.434   3.095 -0.2384 -1.9930  0.3832
 1262TIP3   OH225200   4.265   4.524  14.235  0.1938  0.2150 -0.0865
 1262TIP3    H125201   4.285   4.587  14.304  0.4124  0.3657 -0.2811
 1262TIP3    H225202   4.210   4.573  14.173 -0.5982 -0.1320  0.3325
 1263TIP3   OH225203   0.437   0.129   4.435 -0.1362 -0.3769 -0.3016
 1263TIP3    H125204   0.448   0.223   4.419 -0.8842 -0.0378  1.0533
 1263TIP3    H225205   0.347   0.110   4.408 -0.6952 -0.2381  1.3536
 1264TIP3   OH225206   5.616   6.311   0.202 -0.2959 -0.2753 -0.1940
 1264TIP3    H125207   5.694   6.257   0.216  0.0240  0.0486 -0.7036
 1264TIP3    H225208   5.576   6.317   0.288  0.6557  0.1872  0.2309
 1265TIP3   OH225209   5.348   6.056  13.880 -0.2374 -0.0190  0.0423
 1265TIP3    H125210   5.440   6.032  13.869 -0.7259 -1.6069 -1.0706
 1265TIP3    H225211   5.342   6.092  13.968  1.6800  1.4242 -0.3606
 1266TIP3   OH225212   5.800   6.730  11.315  0.5512 -0.1097  0.6356
 1266TIP3    H125213   5.748   6.769  11.385 -0.4434  1.5094 -0.9080
 1266TIP3    H225214   5.891   6.745  11.340  0.3262 -1.9094  2.7968
 1267TIP3   OH225215   1.733   3.440   2.008  0.2231 -0.7961  0.3872
 1267TIP3    H125216   1.660   3.378   2.013 -0.4973  0.1112  1.8304
 1267TIP3    H225217   1.694   3.519   1.969  0.3609 -0.2179  1.4025
 1268TIP3   OH225218   6.280   2.244  15.099 -0.2591 -0.1898  0.2614
 1268TIP3    H125219   6.203   2.253  15.156 -0.2218  0.2571  0.2472
 1268TIP3    H225220   6.343   2.308  15.134  0.1264 -0.5847  0.3033
 1269TIP3   OH225221   6.442   3.154   4.355 -0.1768  0.7175  0.3143
 1269TIP3    H125222   6.514   3.101   4.321 -0.9154 -0.7948  1.0534
 1269TIP3    H225223   6.464   3.244   4.328 -0.0971 -0.1948 -3.0522
 1270TIP3   OH225224   5.019   4.637   5.152  0.1304 -0.2046  0.5689
 1270TIP3    H125225   5.108   4.607   5.168 -0.0760  0.1345  2.6282
 1270TIP3    H225226   4.966   4.595   5.220 -0.5261  2.8730  2.1783
 1271TIP3   OH225227   4.908   4.178   3.132  0.0149 -0.2074  0.0837
 1271TIP3    H125228   4.819   4.204   3.108  0.0549 -1.7720 -2.1476
 1271TIP3    H225229   4.960   4.257   3.121 -0.9392  0.4920  0.4497
 1272TIP3   OH225230   2.106   1.579   1.760 -0.2829  0.0906  0.1918
 1272TIP3    H125231   2.178   1.573   1.697  0.0912 -2.1854  0.7430
 1272TIP3    H225232   2.147   1.610   1.841 -0.2960  0.6700 -0.0237
 1273TIP3   OH225233   6.399   3.212   0.661  0.0908  0.0251  0.0702
 1273TIP3    H125234   6.449   3.132   0.648 -0.3457  0.2207 -4.3814
 1273TIP3    H225235   6.445   3.278   0.608 -1.3762  1.8798  0.9730
 1274TIP3   OH225236   6.080   1.222  16.957  0.0140  0.1797 -0.1772
 1274TIP3    H125237   6.063   1.299  16.903 -1.1161 -0.3631 -0.6251
 1274TIP3    H225238   6.144   1.171  16.906  1.6642  1.3193  0.6426
 1275TIP3   OH225239   0.416   5.033  13.184 -0.4098  0.2688 -0.0432
 1275TIP3    H125240   0.378   4.972  13.247 -2.1099  0.0520 -1.2148
 1275TIP3    H225241   0.414   5.118  13.228  0.6950 -0.2644  1.0798
 1276TIP3   OH225242   2.653   3.248   2.907  0.4393  0.1684  0.3307
 1276TIP3    H125243   2.579   3.301   2.937  0.2708 -0.4346  1.0057
 1276TIP3    H225244   2.651   3.171   2.963  1.7283  0.2475  0.4988
 1277TIP3   OH225245   4.366   4.776  15.765 -0.2080 -0.0589 -0.5474
 1277TIP3    H125246   4.306   4.734  15.827 -0.1345 -1.1779 -1.2136
 1277TIP3    H225247   4.353   4.869  15.780 -0.0178 -0.2832  1.3313
 1278TIP3   OH225248   1.057   1.236  12.455  0.3818  0.0703 -0.4228
 1278TIP3    H125249   0.995   1.236  12.529  0.7717  0.7282 -0.0839
 1278TIP3    H225250   1.005   1.268  12.381  0.2541  0.4172 -0.1894
 1279TIP3   OH225251   6.110   5.172  11.208  0.1772  0.6213 -0.0887
 1279TIP3    H125252   6.034   5.117  11.191 -1.5169  2.3307  1.4031
 1279TIP3    H225253   6.161   5.169  11.127 -0.4231 -2.1183 -0.4653
 1280TIP3   OH225254   4.629   4.574   2.041 -0.0923  0.0792 -0.0447
 1280TIP3    H125255   4.608   4.481   2.035  0.5338 -0.2010  1.5414
 1280TIP3    H225256   4.716   4.581   2.002  0.6223 -0.3495  1.3813
 1281TIP3   OH225257   2.606   5.253   0.884  0.0716 -0.1463  0.0064
 1281TIP3    H125258   2.665   5.177   0.882  0.3353  0.0550  0.1253
 1281TIP3    H225259   2.593   5.270   0.978 -2.3668 -1.8885  0.0888
 1282TIP3   OH225260   3.357   2.981  14.756 -0.0144  0.2351 -0.2713
 1282TIP3    H125261   3.375   3.027  14.674  0.1039 -0.1827 -0.4837
 1282TIP3    H225262   3.377   3.046  14.824  1.9843 -0.0635 -0.5025
 1283TIP3   OH225263   5.877   3.314  15.416  0.1389  0.1447  0.0086
 1283TIP3    H125264   5.966   3.347  15.402  0.7570 -0.4196  2.1519
 1283TIP3    H225265   5.826   3.353  15.346  2.2464 -0.3140 -1.9154
 1284TIP3   OH225266   1.393   3.944  16.818 -0.0200  0.4398  0.2905
 1284TIP3    H125267   1.345   3.883  16.874  0.3090  0.0246  0.1292
 1284TIP3    H225268   1.479   3.903  16.807  0.1183  0.8115 -0.0289
 1285TIP3   OH225269   2.808   3.865   0.970  0.6657 -0.1177 -0.3432
 1285TIP3    H125270   2.750   3.794   0.943  0.1375  1.1473 -2.7829
 1285TIP3    H225271   2.886   3.821   1.004 -0.3129 -1.8245 -0.2079
 1286TIP3   OH225272   6.341   4.230  12.880 -0.1312 -0.5331 -0.1514
 1286TIP3    H125273   6.390   4.161  12.924  0.6989  0.1224 -0.0430
 1286TIP3    H225274   6.392   4.309  12.894 -1.9711  0.4736  1.2921
 1287TIP3   OH225275   5.256   4.405   0.300 -0.6366  0.2737  0.1357
 1287TIP3    H125276   5.295   4.327   0.260  1.0244 -0.8626  3.5962
 1287TIP3    H225277   5.317   4.476   0.278 -0.5548  0.0051 -0.5261
 1288TIP3   OH225278   5.500   2.336  13.073  0.2988  0.2375 -0.1082
 1288TIP3    H125279   5.427   2.317  13.132 -0.5080  2.9480 -0.0822
 1288TIP3    H225280   5.461   2.343  12.986  0.2861  2.5522  0.0251
 1289TIP3   OH225281   3.589   4.547  14.700  0.4111 -0.0606 -0.0684
 1289TIP3    H125282   3.586   4.452  14.713 -1.0662 -0.1266 -0.6562
 1289TIP3    H225283   3.671   4.574  14.740  1.3936 -1.7326 -0.8367
 1290TIP3   OH225284   5.061   0.561  15.002 -0.2109  0.5814 -0.5055
 1290TIP3    H125285   4.993   0.526  14.945 -0.9703 -0.7257  1.1087
 1290TIP3    H225286   5.136   0.503  14.989 -0.2597  0.5054 -0.4500
 1291TIP3   OH225287   3.960   3.652  11.889  0.2838  0.0400 -0.3534
 1291TIP3    H125288   3.932   3.707  11.817 -0.5456 -2.9959 -2.5688
 1291TIP3    H225289   4.054   3.639  11.876  0.1226 -0.5572 -0.9902
 1292TIP3   OH225290   4.605   3.527  14.068 -0.2004  0.0835 -0.3057
 1292TIP3    H125291   4.558   3.507  14.149 -0.4881 -0.2606 -0.5507
 1292TIP3    H225292   4.689   3.562  14.097  0.9073 -2.7327  0.2014
 1293TIP3   OH225293   5.834   2.530  11.991 -0.1295  0.4453  0.9057
 1293TIP3    H125294   5.823   2.592  12.064  1.8846 -0.9337  2.5274
 1293TIP3    H225295   5.802   2.446  12.026  0.7347 -0.2091  0.1810
 1294TIP3   OH225296   2.795   3.831  16.147  0.0671 -0.1258  0.4411
 1294TIP3    H125297   2.718   3.876  16.112  0.9603  1.1130 -0.0242
 1294TIP3    H225298   2.864   3.898  16.146  1.1986 -1.2526  0.6591
 1295TIP3   OH225299   5.670   5.649   5.632 -0.3253 -0.2386 -0.4130
 1295TIP3    H125300   5.582   5.678   5.609  0.2090 -0.2635 -2.8125
 1295TIP3    H225301   5.675   5.559   5.601  0.2459 -0.5750  0.5979
 1296TIP3   OH225302   2.752   6.494  14.300 -0.3149  0.1669  0.0902
 1296TIP3    H125303   2.677   6.505  14.242  0.3545 -1.2286 -1.0973
 1296TIP3    H225304   2.822   6.546  14.259 -0.4078  0.8905  0.8130
 1297TIP3   OH225305   2.488   0.693   1.024 -0.0412  0.1287 -0.2329
 1297TIP3    H125306   2.421   0.719   0.961  0.4443  2.1786  0.0393
 1297TIP3    H225307   2.463   0.736   1.106  1.8890  1.4584 -0.2852
 1298TIP3   OH225308   3.073   0.924  16.194 -0.2126 -0.3409  0.4274
 1298TIP3    H125309   3.030   0.891  16.115  0.1807 -1.1816  0.5605
 1298TIP3    H225310   3.070   1.019  16.184 -0.8550 -0.4199 -0.2286
 1299TIP3   OH225311   3.240   6.751   3.818  0.3622  0.2590  0.3492
 1299TIP3    H125312   3.297   6.705   3.879  1.1985  0.6109 -0.1487
 1299TIP3    H225313   3.188   6.810   3.873  1.2890  0.7590  0.7072
 1300TIP3   OH225314   0.627   5.827  14.386  0.7482 -0.6040  0.3997
 1300TIP3    H125315   0.637   5.844  14.480  0.6186  0.2425  0.2653
 1300TIP3    H225316   0.598   5.910  14.349  0.8522 -0.9144 -0.4058
 1301TIP3   OH225317   3.606   3.080   5.020 -0.4445 -0.0634 -0.7902
 1301TIP3    H125318   3.666   3.081   4.945 -0.3293  0.4118 -0.6973
 1301TIP3    H225319   3.660   3.050   5.093 -0.3809  0.1322 -0.7566
 1302TIP3   OH225320   4.485   2.591   3.182 -0.9077  0.0373  0.6053
 1302TIP3    H125321   4.397   2.626   3.189 -0.3596  1.6239 -0.1107
 1302TIP3    H225322   4.526   2.611   3.267 -1.1266 -0.4090  0.8182
 1303TIP3   OH225323   1.476   6.057  15.160  0.2354 -0.0011  0.3564
 1303TIP3    H125324   1.419   6.059  15.083 -0.1808 -0.1650  0.6560
 1303TIP3    H225325   1.448   6.134  15.211 -2.0965 -1.8865  2.1738
 1304TIP3   OH225326   3.406   1.926   0.197 -0.2820 -0.3993 -0.4998
 1304TIP3    H125327   3.455   1.863   0.143  1.0388  1.0095 -1.0412
 1304TIP3    H225328   3.465   2.001   0.204 -1.3370  0.3285  1.0973
 1305TIP3   OH225329   6.164   4.719  15.064 -0.8573 -0.4503  0.4257
 1305TIP3    H125330   6.149   4.687  14.974  1.9384 -2.6509  0.6172
 1305TIP3    H225331   6.094   4.678  15.115 -2.4867  0.8246 -0.6347
 1306TIP3   OH225332   3.652   5.077   3.863  0.3287 -0.0950 -0.4669
 1306TIP3    H125333   3.692   5.141   3.804  2.0872 -1.0105 -0.3590
 1306TIP3    H225334   3.637   5.000   3.808  0.7653 -0.5049 -0.0299
 1307TIP3   OH225335   3.669   2.821   5.433 -0.3712  0.4493 -0.2122
 1307TIP3    H125336   3.657   2.814   5.528  0.3879  2.1488  0.0417
 1307TIP3    H225337   3.678   2.730   5.403 -2.0348 -0.1988  1.1239
 1308TIP3   OH225338   3.851   2.243  17.236  0.5226 -0.2032 -0.5968
 1308TIP3    H125339   3.854   2.183  17.162  1.9485 -0.0152 -0.7226
 1308TIP3    H225340   3.916   2.208  17.298 -1.5336 -1.1116  1.1968
 1309TIP3   OH225341   0.091   0.638   0.628  0.4564  0.0381 -0.3157
 1309TIP3    H125342   0.138   0.649   0.711  1.8308 -0.4034 -1.0030
 1309TIP3    H225343   0.151   0.673   0.562 -1.2589  1.8883 -1.0061
 1310TIP3   OH225344   3.442   1.525  15.731 -0.0621  0.1636 -0.2852
 1310TIP3    H125345   3.446   1.433  15.703 -2.8285  0.7480 -3.1689
 1310TIP3    H225346   3.523   1.563  15.699  0.9858 -1.1626  0.6752
 1311TIP3   OH225347   4.442   0.871   4.354 -0.0402 -0.2850 -0.5992
 1311TIP3    H125348   4.438   0.894   4.261  1.0496 -0.9984 -0.8400
 1311TIP3    H225349   4.534   0.884   4.378  0.2277 -2.5015 -0.2715
 1312TIP3   OH225350   0.763   5.653  16.091 -0.0254 -0.5210  0.0674
 1312TIP3    H125351   0.794   5.581  16.146 -0.5704 -2.2414 -1.7152
 1312TIP3    H225352   0.803   5.636  16.006 -0.1731  1.3266 -0.4018
 1313TIP3   OH225353   6.197   0.591   5.366  0.1037 -0.5405 -0.5689
 1313TIP3    H125354   6.165   0.515   5.318 -2.2265 -1.1654  1.7881
 1313TIP3    H225355   6.212   0.657   5.298  0.1666 -2.3841 -2.4590
 1314TIP3   OH225356   2.539   0.585  13.154 -0.4529  0.5792 -0.4675
 1314TIP3    H125357   2.461   0.634  13.126  0.1679  1.8268 -0.1261
 1314TIP3    H225358   2.506   0.522  13.218 -1.5378 -0.7130 -2.2234
 1315TIP3   OH225359   5.787   6.558   2.780  0.5125 -0.1081 -0.3470
 1315TIP3    H125360   5.797   6.506   2.700  0.6126 -3.0155  1.4353
 1315TIP3    H225361   5.866   6.612   2.784  2.5281 -2.8769 -0.2555
 1316TIP3   OH225362   4.611   6.000  10.668 -0.2517  0.4399  0.0801
 1316TIP3    H125363   4.664   6.059  10.615 -0.5967 -0.7407 -1.6497
 1316TIP3    H225364   4.521   6.017  10.641 -0.4557 -0.0057  0.4710
 1317TIP3   OH225365   6.472   1.483  15.940  0.2271 -0.1553  0.1103
 1317TIP3    H125366   6.565   1.461  15.927 -0.1441 -1.5031 -0.3690
 1317TIP3    H225367   6.430   1.461  15.857 -0.4292  1.0767  0.0955
 1318TIP3   OH225368   0.119   0.526   2.248  0.5387  0.3845 -0.7083
 1318TIP3    H125369   0.138   0.619   2.258 -0.2847  0.4031  1.2010
 1318TIP3    H225370   0.060   0.521   2.173 -2.3218  1.9228  1.2557
 1319TIP3   OH225371   4.442   5.021  14.045 -0.2645 -0.7048 -0.2104
 1319TIP3    H125372   4.534   5.000  14.029 -0.3052 -1.8565  0.8674
 1319TIP3    H225373   4.398   5.002  13.962  0.4897  0.0010 -0.7771
 1320TIP3   OH225374   1.315   6.625  16.799  0.4387 -0.1537 -0.3756
 1320TIP3    H125375   1.296   6.605  16.708 -1.3045 -0.5897  0.0296
 1320TIP3    H225376   1.335   6.719  16.800 -1.3266  0.2777 -1.0173
 1321TIP3   OH225377   3.415   3.364  14.110  0.2314  0.4321  0.1787
 1321TIP3    H125378   3.369   3.393  14.031 -0.3577 -1.7305 -0.3299
 1321TIP3    H225379   3.346   3.332  14.168  0.6429  2.0861  1.6808
 1322TIP3   OH225380   1.619   1.131  14.925 -0.3605  0.3897 -0.3925
 1322TIP3    H125381   1.686   1.198  14.910 -0.6965  0.3267 -2.5661
 1322TIP3    H225382   1.651   1.055  14.877 -0.4353 -0.7500  1.2943
 1323TIP3   OH225383   0.273   0.372  13.251  0.4167 -0.3857 -0.3297
 1323TIP3    H125384   0.245   0.450  13.298  0.2086 -0.5476 -0.1830
 1323TIP3    H225385   0.338   0.403  13.188 -0.1941  0.0061 -0.7685
 1324TIP3   OH225386   5.335   6.164  14.146 -0.0711 -0.5528 -0.0715
 1324TIP3    H125387   5.243   6.182  14.166  0.3683  3.2397 -0.7662
 1324TIP3    H225388   5.377   6.156  14.231 -0.8201 -1.0262  0.2615
 1325TIP3   OH225389   2.024   6.634  14.445  0.4623 -0.3995  0.2075
 1325TIP3    H125390   1.986   6.720  14.428  3.7736  0.7886 -2.5994
 1325TIP3    H225391   2.092   6.651  14.511 -0.0072 -1.2488  0.9220
 1326TIP3   OH225392   1.635   4.436  16.274 -0.4308  0.0926 -0.3448
 1326TIP3    H125393   1.726   4.465  16.269 -0.3709  0.2183  1.0704
 1326TIP3    H225394   1.626   4.373  16.203  1.2096 -1.0786  0.4297
 1327TIP3   OH225395   6.633   5.531   2.765 -0.3528  0.4669  0.0989
 1327TIP3    H125396   6.644   5.579   2.848 -0.1132 -0.4131  0.5875
 1327TIP3    H225397   6.568   5.582   2.717 -1.2323  0.4753  1.2402
 1328TIP3   OH225398   0.732   4.070   5.792 -0.1304  0.2600  0.3655
 1328TIP3    H125399   0.808   4.011   5.786 -0.4613 -0.3552  1.8807
 1328TIP3    H225400   0.763   4.152   5.753  1.4580  0.1447  1.3097
 1329TIP3   OH225401   2.737   3.204  13.945 -0.4633  0.5979 -0.7432
 1329TIP3    H125402   2.658   3.253  13.923 -0.4600  1.4159  0.8746
 1329TIP3    H225403   2.808   3.268  13.939 -0.5013  0.9887  1.7100
 1330TIP3   OH225404   6.604   3.441  14.064 -0.0513  0.2296  0.3021
 1330TIP3    H125405   6.578   3.524  14.026 -0.0582  0.3025  0.4637
 1330TIP3    H225406   6.538   3.378  14.033 -0.4944  0.4363  0.8056
 1331TIP3   OH225407   1.948   2.604  14.011 -0.2786  0.1304 -0.0654
 1331TIP3    H125408   1.908   2.615  14.097 -0.7151 -2.5509  0.1393
 1331TIP3    H225409   2.030   2.557  14.028 -0.2782 -0.2763 -1.0936
 1332TIP3   OH225410   4.866   6.643  10.912  0.2748  0.5054 -0.1546
 1332TIP3    H125411   4.956   6.653  10.880  0.0051  0.4191 -0.9608
 1332TIP3    H225412   4.876   6.620  11.005  1.0630  1.4418  0.0137
 1333TIP3   OH225413   6.507   5.558  11.351  1.2273 -0.4528 -0.0764
 1333TIP3    H125414   6.439   5.623  11.367  0.6396 -0.8737 -0.7805
 1333TIP3    H225415   6.570   5.570  11.423  0.4059 -0.0684  0.5931
 1334TIP3   OH225416   0.192   1.465   1.003  0.0314 -0.2481  0.3195
 1334TIP3    H125417   0.284   1.482   0.985 -0.4668  1.7976 -0.6376
 1334TIP3    H225418   0.155   1.442   0.918 -0.5464  0.1469  0.4529
 1335TIP3   OH225419   6.523   6.427   5.975 -0.1488  0.2950 -0.1857
 1335TIP3    H125420   6.436   6.431   5.934  0.3553  1.5029 -1.1816
 1335TIP3    H225421   6.569   6.504   5.942  0.6179  0.8160  1.9362
 1336TIP3   OH225422   2.945   2.500  11.445 -0.4475 -0.2494 -0.1345
 1336TIP3    H125423   2.979   2.496  11.356  1.5893 -0.2739  0.5846
 1336TIP3    H225424   3.000   2.439  11.494 -2.1021 -0.8997  0.9852
 1337TIP3   OH225425   4.843   1.570  15.783  0.1569 -0.0649 -0.1364
 1337TIP3    H125426   4.862   1.592  15.692  0.4203 -2.5890 -0.7543
 1337TIP3    H225427   4.838   1.655  15.827 -4.3437  1.7100 -3.2762
 1338TIP3   OH225428   0.126   2.908  12.509 -0.3444  0.1466  0.1688
 1338TIP3    H125429   0.155   2.880  12.596 -2.5497 -0.1630  0.8704
 1338TIP3    H225430   0.154   2.999  12.502 -0.9747  0.4782  1.6353
 1339TIP3   OH225431   1.176   5.634  12.080  0.6503  0.1661 -0.4791
 1339TIP3    H125432   1.138   5.661  11.996 -1.2804  0.8415  0.5556
 1339TIP3    H225433   1.180   5.714  12.132 -0.7910 -0.6771  1.0249
 1340TIP3   OH225434   4.576   1.699  15.045 -0.1976  0.3489  0.2176
 1340TIP3    H125435   4.562   1.732  15.134  2.5610  0.6772  0.6028
 1340TIP3    H225436   4.662   1.731  15.020 -1.0370  0.5657 -2.7663
 1341TIP3   OH225437   0.349   0.634   4.926 -0.4499 -0.1185  0.0763
 1341TIP3    H125438   0.369   0.660   5.016  0.0333  1.6492 -0.4859
 1341TIP3    H225439   0.254   0.634   4.921 -0.4723  0.4691  0.4166
 1342TIP3   OH225440   6.033   4.285  12.216  0.2520 -0.1403  0.1683
 1342TIP3    H125441   5.985   4.237  12.283  0.2239 -0.0133  0.2401
 1342TIP3    H225442   6.035   4.226  12.141  0.5704 -0.4171  0.3892
 1343TIP3   OH225443   0.997   3.040  13.079  0.0030  0.3890  0.3639
 1343TIP3    H125444   1.021   3.006  12.992 -1.3778 -1.1330  0.5372
 1343TIP3    H225445   1.081   3.055  13.122  0.8513  3.3642 -1.9464
 1344TIP3   OH225446   3.469   0.292  14.943 -0.1564  0.4640  0.3275
 1344TIP3    H125447   3.485   0.221  15.005  1.4966  2.2040  2.0752
 1344TIP3    H225448   3.554   0.305  14.900 -1.3490 -0.9155 -2.6709
 1345TIP3   OH225449   3.631   3.033  13.135 -0.6784  0.0521  0.0400
 1345TIP3    H125450   3.621   3.128  13.125 -3.4302 -0.1521  0.1590
 1345TIP3    H225451   3.612   3.017  13.228 -1.7390 -0.7355 -0.2977
 1346TIP3   OH225452   2.222   2.355   2.312  0.3818 -0.0119  0.0073
 1346TIP3    H125453   2.181   2.347   2.226  3.1631 -0.8572 -1.3752
 1346TIP3    H225454   2.215   2.267   2.349  0.2432  0.0408  0.1036
 1347TIP3   OH225455   4.216   0.199   4.805  0.4348  0.2423 -0.4066
 1347TIP3    H125456   4.270   0.276   4.819 -0.2478  0.8573 -1.1137
 1347TIP3    H225457   4.162   0.220   4.730  0.7435 -1.2096 -1.0812
 1348TIP3   OH225458   1.591   2.014  11.425 -0.2117  0.1750 -0.3058
 1348TIP3    H125459   1.637   2.011  11.508  2.1592 -1.8735 -1.5754
 1348TIP3    H225460   1.581   1.923  11.399 -2.3790  0.6850 -1.5589
 1349TIP3   OH225461   5.255   5.504   3.405 -0.0301  0.1637 -0.1503
 1349TIP3    H125462   5.348   5.528   3.414  0.5690 -2.1684  0.4816
 1349TIP3    H225463   5.218   5.522   3.491 -0.2945  1.4875 -0.5214
 1350TIP3   OH225464   6.608   1.600  13.405 -0.2494 -0.4539 -0.2089
 1350TIP3    H125465   6.550   1.673  13.427 -1.0931 -0.1121 -3.1720
 1350TIP3    H225466   6.696   1.637  13.411 -0.4525 -0.1417  1.4094
 1351TIP3   OH225467   5.615   0.756   5.502  0.0870 -0.4278 -0.1071
 1351TIP3    H125468   5.691   0.814   5.511  0.3648 -0.8160  0.0341
 1351TIP3    H225469   5.646   0.671   5.532 -0.0706 -0.8571 -1.1375
 1352TIP3   OH225470   0.940   4.212  12.983 -0.1521 -0.0601 -0.0942
 1352TIP3    H125471   1.006   4.157  13.026  0.9498  2.0498  1.0247
 1352TIP3    H225472   0.987   4.254  12.911 -0.6778  0.3172 -0.2198
 1353TIP3   OH225473   1.337   4.649   2.924 -0.0225  0.6373 -0.1851
 1353TIP3    H125474   1.258   4.694   2.955 -0.3787 -0.0407 -0.0858
 1353TIP3    H225475   1.394   4.647   3.001 -0.3220  0.2305  0.0288
 1354TIP3   OH225476   2.572   2.148   0.469  0.0683  0.3586 -0.6161
 1354TIP3    H125477   2.482   2.174   0.487  0.4753  1.3745  0.0226
 1354TIP3    H225478   2.579   2.150   0.373 -1.0303 -1.3225 -0.7696
 1355TIP3   OH225479   3.174   4.342  11.421 -0.6399 -0.5543  0.0499
 1355TIP3    H125480   3.236   4.406  11.456  0.3910 -1.2925 -0.3653
 1355TIP3    H225481   3.120   4.392  11.360  0.0088 -0.0379 -0.1149
 1356TIP3   OH225482   3.160   4.980  15.617  0.9636  0.4403 -0.1866
 1356TIP3    H125483   3.146   5.073  15.598  1.3381  0.4227 -0.5704
 1356TIP3    H225484   3.075   4.939  15.598  0.7287  0.7309  0.2026
 1357TIP3   OH225485   6.621   2.210  10.796  0.0755 -0.2209 -0.3042
 1357TIP3    H125486   6.686   2.167  10.851 -0.3456  0.7862  1.0328
 1357TIP3    H225487   6.544   2.220  10.852  0.1519  2.2215 -0.5280
 1358TIP3   OH225488   1.843   0.441  13.346  0.5927  0.0007  0.3740
 1358TIP3    H125489   1.899   0.513  13.315 -1.0727  1.2114 -0.0004
 1358TIP3    H225490   1.825   0.389  13.268 -0.6419  0.9570 -0.0144
 1359TIP3   OH225491   3.201   5.139   1.419  0.3319 -0.6157  0.3446
 1359TIP3    H125492   3.190   5.085   1.497  1.1684  1.1068  1.7490
 1359TIP3    H225493   3.178   5.228   1.448  1.4150  0.2006 -1.1375
 1360TIP3   OH225494   2.662   4.674   1.529 -0.1803  0.0264  0.6592
 1360TIP3    H125495   2.696   4.590   1.560  0.2328 -0.5044 -1.1138
 1360TIP3    H225496   2.731   4.737   1.550  0.8235 -0.6076 -0.5984
 1361TIP3   OH225497   0.443   2.939  14.587 -0.5130 -0.2749  0.3386
 1361TIP3    H125498   0.376   3.007  14.593  0.0546  0.1976  1.7095
 1361TIP3    H225499   0.467   2.937  14.494  0.0398  1.9958  0.3592
 1362TIP3   OH225500   6.466   3.164   0.223  0.2495  0.0081  0.1592
 1362TIP3    H125501   6.508   3.121   0.149  1.1316 -0.1214  0.7172
 1362TIP3    H225502   6.538   3.204   0.272 -0.3921  0.7420  0.5378
 1363TIP3   OH225503   3.609   2.614   2.155 -0.8817  0.5247 -0.7168
 1363TIP3    H125504   3.640   2.566   2.231 -1.5291 -0.1128 -0.8449
 1363TIP3    H225505   3.673   2.684   2.143  0.1625 -0.3886 -0.6128
 1364TIP3   OH225506   4.059   3.180  12.146 -0.5102  0.1236 -0.2141
 1364TIP3    H125507   3.996   3.152  12.212 -0.0420 -0.8837 -0.1643
 1364TIP3    H225508   4.018   3.254  12.102 -1.9803 -0.8641 -0.5726
 1365TIP3   OH225509   4.053   4.769   5.792  0.6969 -0.1380  0.1273
 1365TIP3    H125510   4.049   4.854   5.835 -0.9699 -0.2079  0.1819
 1365TIP3    H225511   4.138   4.733   5.817  0.5347  0.5936  1.8574
 1366TIP3   OH225512   2.076   0.993   3.585 -0.2310 -0.7174  0.3601
 1366TIP3    H125513   2.152   0.958   3.632  1.1149  0.3255 -0.9496
 1366TIP3    H225514   2.010   1.004   3.653  1.0177 -0.9923  1.6870
 1367TIP3   OH225515   1.635   6.504   4.402 -0.7382  0.7599  0.1299
 1367TIP3    H125516   1.686   6.584   4.407  2.0691 -0.8511 -0.6742
 1367TIP3    H225517   1.647   6.462   4.487  1.5513 -0.8353 -0.8980
 1368TIP3   OH225518   6.527   4.145   2.598  0.5596  0.7726  0.0786
 1368TIP3    H125519   6.433   4.145   2.576  0.5473 -1.1405  0.0054
 1368TIP3    H225520   6.564   4.213   2.541 -0.5399  0.4337 -1.1080
 1369TIP3   OH225521   3.722   2.249   1.275 -0.1678  0.4192 -0.5402
 1369TIP3    H125522   3.690   2.186   1.340  0.5170  0.8916  0.2733
 1369TIP3    H225523   3.648   2.261   1.216 -0.2300 -1.3197 -0.8619
 1370TIP3   OH225524   2.966   0.866   0.871  0.1296 -0.0576  0.1705
 1370TIP3    H125525   2.874   0.856   0.848  0.3619  0.7405 -1.2217
 1370TIP3    H225526   2.966   0.884   0.965 -1.1334  0.0397  0.1641
 1371TIP3   OH225527   6.571   2.837  16.553 -0.1187  0.1558  0.0162
 1371TIP3    H125528   6.654   2.825  16.598 -1.2628  0.4257  2.3786
 1371TIP3    H225529   6.541   2.748  16.534  1.5567  0.0649 -2.7390
 1372TIP3   OH225530   2.504   6.066   1.054  0.3598 -0.3021  0.0185
 1372TIP3    H125531   2.514   6.142   1.112  0.7110  0.5114 -1.0755
 1372TIP3    H225532   2.423   6.083   1.007 -1.1552 -2.0642  1.8235
 1373TIP3   OH225533   2.642   3.826  13.706  0.2186  0.7268 -0.2904
 1373TIP3    H125534   2.655   3.919  13.726  1.0426  0.7526 -0.8829
 1373TIP3    H225535   2.578   3.825  13.634 -0.6350  0.7639  0.4432
 1374TIP3   OH225536   3.698   6.368   3.391 -0.2837 -1.0352 -0.5063
 1374TIP3    H125537   3.652   6.327   3.317 -0.2477  2.4230 -2.6526
 1374TIP3    H225538   3.791   6.359   3.369 -0.2934  2.2080 -2.3923
 1375TIP3   OH225539   1.718   2.503  11.740  0.0074 -0.3634  0.7944
 1375TIP3    H125540   1.812   2.489  11.726 -0.0806  0.1664 -0.4626
 1375TIP3    H225541   1.678   2.475  11.657 -0.7449  1.4133  0.5311
 1376TIP3   OH225542   1.832   2.795  13.207 -0.6965 -0.2253 -0.9535
 1376TIP3    H125543   1.767   2.725  13.199  0.4381 -1.9005  2.5343
 1376TIP3    H225544   1.805   2.859  13.142 -7.2007  0.2534  1.3916
 1377TIP3   OH225545   4.331   1.218  13.264 -0.8390 -0.0124 -0.9256
 1377TIP3    H125546   4.347   1.143  13.208  1.0850  0.7952 -1.5384
 1377TIP3    H225547   4.285   1.281  13.207 -1.4146 -0.2635 -0.7479
 1378TIP3   OH225548   5.127   5.847  14.229 -0.0479 -0.2599  0.1228
 1378TIP3    H125549   5.065   5.902  14.180 -0.5948 -0.0545  1.0288
 1378TIP3    H225550   5.104   5.757  14.204  0.5726 -0.1228 -1.0368
 1379TIP3   OH225551   0.167   1.169  12.729 -0.1997  0.0686 -0.2075
 1379TIP3    H125552   0.105   1.239  12.708  0.3101  0.0029 -2.1576
 1379TIP3    H225553   0.113   1.090  12.733 -0.4776  0.2591 -0.1012
 1380TIP3   OH225554   3.482   5.465   1.900  0.4223 -0.0862 -0.2404
 1380TIP3    H125555   3.504   5.375   1.876  0.6723 -0.0624 -0.0945
 1380TIP3    H225556   3.546   5.519   1.854  2.4701 -0.1452  2.3017
 1381TIP3   OH225557   4.984   6.495  12.069 -0.5784 -0.7442 -0.4330
 1381TIP3    H125558   5.019   6.513  12.156  1.0275  1.8073 -1.4685
 1381TIP3    H225559   4.889   6.494  12.081 -0.4037 -0.0712  1.2806
 1382TIP3   OH225560   4.256   1.334   2.302 -0.0660 -0.5405 -0.3441
 1382TIP3    H125561   4.206   1.254   2.283 -1.1723  0.5463 -2.3419
 1382TIP3    H225562   4.346   1.312   2.279 -0.3148 -1.2748 -0.6643
 1383TIP3   OH225563   4.249   3.974  11.816  0.0177 -0.6683  0.1084
 1383TIP3    H125564   4.247   3.880  11.836  1.0924 -1.3677 -2.6515
 1383TIP3    H225565   4.219   3.979  11.726  0.7677  1.5904 -0.0554
 1384TIP3   OH225566   3.964   3.642  16.545 -1.0366 -0.3315  0.1023
 1384TIP3    H125567   4.013   3.675  16.620  2.0915 -0.6127 -1.6172
 1384TIP3    H225568   3.933   3.721  16.500 -1.1797 -0.0803  0.6445
 1385TIP3   OH225569   5.519   6.540  15.387 -1.1083  0.2211 -0.4567
 1385TIP3    H125570   5.547   6.556  15.477  1.9158 -2.3280 -0.7559
 1385TIP3    H225571   5.550   6.617  15.338  0.5253  0.0225  0.1806
 1386TIP3   OH225572   1.217   2.823   1.981  0.6960 -0.0898  0.5050
 1386TIP3    H125573   1.246   2.745   1.934 -1.5437 -0.3194 -0.6360
 1386TIP3    H225574   1.171   2.875   1.915 -4.0564 -1.1781  2.5071
 1387TIP3   OH225575   6.738   0.627   3.057  0.2118  0.2001  0.0037
 1387TIP3    H125576   6.721   0.710   3.012 -0.3806 -0.7647 -1.6478
 1387TIP3    H225577   6.659   0.575   3.041 -0.4093  0.0884  2.9625
 1388TIP3   OH225578   0.606   4.063   0.242 -0.0558 -0.0670  0.1664
 1388TIP3    H125579   0.609   4.002   0.315 -2.0703  0.9412  1.1830
 1388TIP3    H225580   0.691   4.054   0.199 -0.0084 -3.0162  0.6916
 1389TIP3   OH225581   4.816   0.474  17.004 -0.5179  0.1856  0.1651
 1389TIP3    H125582   4.728   0.470  17.041 -0.0592  0.5843  1.3495
 1389TIP3    H225583   4.872   0.435  17.071  0.2831  0.5275 -0.2922
 1390TIP3   OH225584   2.101   5.931   3.994  0.4491 -0.0176  0.0211
 1390TIP3    H125585   2.017   5.907   4.033  0.0366  2.5243  0.8863
 1390TIP3    H225586   2.078   5.966   3.908  0.7200 -0.1908 -0.1203
 1391TIP3   OH225587   3.442   4.859  13.563 -0.5801 -0.1655  0.3020
 1391TIP3    H125588   3.503   4.904  13.621  1.2719 -0.3748 -1.3806
 1391TIP3    H225589   3.414   4.925  13.500 -0.9305 -0.4495  0.1520
 1392TIP3   OH225590   2.430   3.033  13.396  0.1303  0.1925  0.4364
 1392TIP3    H125591   2.456   2.985  13.474  0.7488  1.2171  0.8760
 1392TIP3    H225592   2.508   3.081  13.370  1.1818 -2.8675 -2.9955
 1393TIP3   OH225593   5.792   4.834   3.814 -0.4622 -0.2114 -0.4665
 1393TIP3    H125594   5.722   4.899   3.810 -1.0878 -0.7131  1.1646
 1393TIP3    H225595   5.795   4.808   3.907  1.2526 -0.8972 -0.6701
 1394TIP3   OH225596   3.603   3.681  15.537 -0.3711 -0.5120  0.0693
 1394TIP3    H125597   3.516   3.646  15.519 -0.1079 -1.1140 -0.0529
 1394TIP3    H225598   3.648   3.611  15.583  0.5376 -0.7651 -1.1556
 1395TIP3   OH225599   6.225   1.475  13.413 -0.3846  0.2246 -0.0871
 1395TIP3    H125600   6.307   1.431  13.432 -0.5217  0.0837  0.1822
 1395TIP3    H225601   6.166   1.450  13.484 -1.1044 -0.8365 -1.0110
 1396TIP3   OH225602   0.196   3.258   0.803  0.6335 -0.3335  0.4023
 1396TIP3    H125603   0.115   3.216   0.772  0.5257  0.8204 -0.9753
 1396TIP3    H225604   0.260   3.237   0.735  1.4858 -1.0958  1.4007
 1397TIP3   OH225605   1.105   5.913  16.783  0.2331 -0.0184 -0.3587
 1397TIP3    H125606   1.066   6.000  16.780  0.1666 -0.0645 -1.1577
 1397TIP3    H225607   1.053   5.861  16.721 -0.3112 -0.8793  0.7771
 1398TIP3   OH225608   2.128   6.178  12.101  0.1319  0.2318  0.7939
 1398TIP3    H125609   2.038   6.148  12.116 -0.4396  0.2784 -1.9278
 1398TIP3    H225610   2.183   6.104  12.127 -0.5472  0.5924  3.5348
 1399TIP3   OH225611   1.935   3.067  11.210 -0.3430 -0.0882  0.0422
 1399TIP3    H125612   1.933   3.095  11.118  0.1388 -0.1143  0.0214
 1399TIP3    H225613   1.864   3.115  11.252  0.9810  1.8416  0.2095
 1400TIP3   OH225614   1.582   4.817   5.517 -0.4027 -0.3184 -0.6662
 1400TIP3    H125615   1.525   4.847   5.589  0.9656 -0.4411  0.5136
 1400TIP3    H225616   1.548   4.731   5.495 -1.1882 -0.0507 -0.5572
 1401TIP3   OH225617   1.587   2.245  13.760  0.0209 -0.4988  0.0114
 1401TIP3    H125618   1.651   2.173  13.755  1.2340  0.1389  3.5254
 1401TIP3    H225619   1.561   2.247  13.852 -2.4991  1.5105 -0.6527
 1402TIP3   OH225620   5.146   0.477  17.080  0.1198 -0.1957  0.8062
 1402TIP3    H125621   5.098   0.555  17.052  0.0832 -0.5084 -0.0340
 1402TIP3    H225622   5.176   0.498  17.168 -0.1634  0.6407  0.7143
 1403TIP3   OH225623   6.121   1.304  13.247 -0.5347 -0.0565  0.0888
 1403TIP3    H125624   6.150   1.357  13.321  0.8861  0.0227 -0.4899
 1403TIP3    H225625   6.089   1.368  13.183 -3.3135 -0.2080  1.2145
 1404TIP3   OH225626   1.743   2.633   2.795 -0.0584 -0.2099  0.2381
 1404TIP3    H125627   1.781   2.595   2.716 -0.4974 -0.7841  0.2952
 1404TIP3    H225628   1.714   2.720   2.768 -2.6427 -1.3507 -0.9945
 1405TIP3   OH225629   2.161   1.257  13.138 -0.0219  0.5893  0.5609
 1405TIP3    H125630   2.074   1.267  13.100  0.0949 -0.1232  0.1024
 1405TIP3    H225631   2.159   1.313  13.216 -1.1786 -0.0693  1.0362
 1406TIP3   OH225632   4.007   1.650  13.047  0.3331  0.0084 -0.3314
 1406TIP3    H125633   3.943   1.602  12.995 -2.0115  0.9794  1.4654
 1406TIP3    H225634   4.004   1.608  13.133  2.1379  0.1109 -0.1914
 1407TIP3   OH225635   3.702   5.482   0.268  0.1807 -0.1193  0.2907
 1407TIP3    H125636   3.688   5.387   0.272 -0.6922  0.0210  0.5952
 1407TIP3    H225637   3.632   5.514   0.211  0.2069  0.4068  0.5543
 1408TIP3   OH225638   2.972   4.125   0.284 -0.3441  0.6339 -0.5126
 1408TIP3    H125639   3.043   4.164   0.335 -1.0057  0.9959  0.1512
 1408TIP3    H225640   3.010   4.046   0.246  1.0236  1.8855 -1.8521
 1409TIP3   OH225641   4.092   5.915  15.596  0.2887  0.3114  0.1066
 1409TIP3    H125642   4.120   5.838  15.645  1.0942  0.7191  0.3132
 1409TIP3    H225643   4.098   5.987  15.659  2.4421  1.0482 -0.8125
 1410TIP3   OH225644   1.091   5.516   5.976 -0.2074  0.4461  0.4342
 1410TIP3    H125645   1.100   5.454   6.049 -1.2941 -1.2858 -0.8095
 1410TIP3    H225646   1.180   5.546   5.959  0.5923 -1.7359  0.3634
 1411TIP3   OH225647   1.035   5.868  12.945  0.0889 -0.0092 -0.5221
 1411TIP3    H125648   1.092   5.923  12.999  0.6699 -1.3031  0.2381
 1411TIP3    H225649   0.953   5.862  12.996  0.0199  0.1772 -0.6129
 1412TIP3   OH225650   1.996   2.870   2.443 -0.1674 -0.2949 -0.2934
 1412TIP3    H125651   1.919   2.859   2.386  1.1872 -0.3188 -2.2073
 1412TIP3    H225652   1.988   2.959   2.477 -0.3077  0.2344 -1.6614
 1413TIP3   OH225653   0.682   6.095  13.582 -0.4970 -0.0109 -0.0733
 1413TIP3    H125654   0.663   6.145  13.662 -1.3217 -0.9774  0.3649
 1413TIP3    H225655   0.597   6.059  13.556 -0.1009 -0.3092 -0.9797
 1414TIP3   OH225656   4.719   0.782  11.893  0.3377 -0.3872  0.3241
 1414TIP3    H125657   4.770   0.832  11.830  0.6566 -0.0651  0.8360
 1414TIP3    H225658   4.633   0.772  11.852  0.5081 -0.0863 -0.1097
 1415TIP3   OH225659   2.453   1.006  11.060  0.5039  0.3132 -0.0481
 1415TIP3    H125660   2.425   1.020  10.970  1.5799  0.1280 -0.4285
 1415TIP3    H225661   2.395   0.937  11.093  0.1877  0.2928 -0.6323
 1416TIP3   OH225662   4.669   6.759   3.599  0.2788 -0.4874  0.7073
 1416TIP3    H125663   4.630   6.683   3.556 -0.7791 -1.0100  2.4760
 1416TIP3    H225664   4.751   6.726   3.636  0.6010 -0.3439  0.1323
 1417TIP3   OH225665   5.892   6.193   2.592  0.0471 -0.0762  0.4726
 1417TIP3    H125666   5.942   6.116   2.563 -1.8613 -0.8800 -0.8926
 1417TIP3    H225667   5.891   6.186   2.687  2.6657  0.1185  0.5942
 1418TIP3   OH225668   3.466   3.898  11.260 -0.6419 -0.0886  0.0507
 1418TIP3    H125669   3.518   3.941  11.328 -1.1028  0.5075  0.0356
 1418TIP3    H225670   3.516   3.818  11.239  1.3023  1.4011 -1.3624
 1419TIP3   OH225671   6.729   4.281  15.494 -0.1518  0.1649 -0.5518
 1419TIP3    H125672   6.771   4.203  15.530  0.3582 -0.2771 -2.0675
 1419TIP3    H225673   6.792   4.352  15.509  0.2243 -0.0913 -0.9089
 1420TIP3   OH225674   5.386   1.880  13.632 -0.7296 -0.0181 -0.2241
 1420TIP3    H125675   5.308   1.918  13.593 -0.8288  0.4249  0.3945
 1420TIP3    H225676   5.374   1.891  13.727 -0.5176 -1.1202 -0.0525
 1421TIP3   OH225677   1.280   3.165   1.632 -0.3314  0.1749  0.5797
 1421TIP3    H125678   1.249   3.244   1.587 -1.4026  0.0805  1.1168
 1421TIP3    H225679   1.200   3.116   1.652  0.1409 -0.0641  2.0310
 1422TIP3   OH225680   4.556   2.207   4.141  0.0487 -0.0684 -0.2397
 1422TIP3    H125681   4.587   2.191   4.052 -0.5240  1.8803 -0.8403
 1422TIP3    H225682   4.535   2.300   4.143 -0.8949 -0.2681  1.6524
 1423TIP3   OH225683   5.534   3.617   1.257 -0.0256 -0.2089 -0.2716
 1423TIP3    H125684   5.457   3.671   1.273  0.5615  0.4289  0.4619
 1423TIP3    H225685   5.604   3.657   1.309  0.8128 -0.7623 -0.9269
 1424TIP3   OH225686   3.026   6.022  13.245  0.1986 -0.4823 -0.3661
 1424TIP3    H125687   3.100   5.963  13.232  1.0067 -0.2375  2.4768
 1424TIP3    H225688   3.030   6.082  13.170  0.1858 -3.0425 -2.5852
 1425TIP3   OH225689   4.801   4.440   3.743  0.3404  0.2815  0.1359
 1425TIP3    H125690   4.884   4.414   3.784  0.4728 -0.9872 -0.8481
 1425TIP3    H225691   4.825   4.456   3.651 -0.6181 -0.8106 -0.3177
 1426TIP3   OH225692   5.646   3.353  13.963  0.2185  0.3768  0.0220
 1426TIP3    H125693   5.739   3.341  13.982 -0.0177 -0.3316  0.8128
 1426TIP3    H225694   5.626   3.288  13.895  0.1462  0.0270  0.3750
 1427TIP3   OH225695   3.763   6.002   2.327  0.4284 -0.0902  0.1593
 1427TIP3    H125696   3.730   6.002   2.237  0.1481  0.5261  0.2566
 1427TIP3    H225697   3.802   5.916   2.338  1.0562  0.0586 -0.7724
 1428TIP3   OH225698   2.039   6.155   0.364  0.0946  0.7376 -0.1353
 1428TIP3    H125699   1.972   6.115   0.420 -0.2961  0.1803 -0.9760
 1428TIP3    H225700   2.034   6.106   0.282  1.0954  1.1168 -0.4428
 1429TIP3   OH225701   2.169   6.520   4.526 -0.2171 -0.0076  0.1794
 1429TIP3    H125702   2.104   6.532   4.595  1.4620  0.9062  1.6771
 1429TIP3    H225703   2.251   6.502   4.573  1.1869  1.6004 -1.5022
 1430TIP3   OH225704   5.409   1.290   2.031  0.0145  0.1269  0.2745
 1430TIP3    H125705   5.369   1.255   1.952  2.2352 -0.8528 -0.4654
 1430TIP3    H225706   5.366   1.375   2.043 -2.7741 -1.1312 -0.0158
 1431TIP3   OH225707   1.830   4.121  13.117  0.2264 -0.1554 -0.0696
 1431TIP3    H125708   1.776   4.167  13.053  0.3542  0.8524  0.5332
 1431TIP3    H225709   1.768   4.092  13.184  0.2676 -0.0738  0.0039
 1432TIP3   OH225710   5.924   3.176   1.076 -0.5390  0.0344  0.1090
 1432TIP3    H125711   5.914   3.118   1.000 -1.2782  0.9833 -0.5418
 1432TIP3    H225712   5.998   3.139   1.125 -0.4882 -0.9876 -0.7087
 1433TIP3   OH225713   3.512   5.885   5.624  0.9891 -0.0930 -0.1516
 1433TIP3    H125714   3.456   5.809   5.611  0.8029 -0.0088  0.1388
 1433TIP3    H225715   3.452   5.959   5.625  1.2464  0.1524 -1.2384
 1434TIP3   OH225716   4.054   4.202   4.356  0.4405 -0.1914  0.3062
 1434TIP3    H125717   4.084   4.166   4.439  2.8150  1.1236  0.1195
 1434TIP3    H225718   4.086   4.141   4.290 -0.8821 -0.8954  0.2895
 1435TIP3   OH225719   5.730   4.371   4.909 -0.1749  0.1132 -0.2846
 1435TIP3    H125720   5.722   4.395   4.816  0.4585  1.3118 -0.0540
 1435TIP3    H225721   5.676   4.293   4.918 -0.5255  0.1736 -1.5932
 1436TIP3   OH225722   2.498   6.471  16.939  0.6039 -0.0959  0.4269
 1436TIP3    H125723   2.460   6.385  16.957  0.2460  0.1475  0.8510
 1436TIP3    H225724   2.581   6.451  16.895 -0.9605 -0.6120 -2.5679
 1437TIP3   OH225725   5.626   2.981  12.545  0.5567  0.4600 -0.0280
 1437TIP3    H125726   5.545   3.010  12.588  1.3097  2.1090  0.3947
 1437TIP3    H225727   5.660   3.060  12.503  0.6632 -0.7582 -2.4138
 1438TIP3   OH225728   1.711   5.646   3.682  0.8008  0.0336 -0.4345
 1438TIP3    H125729   1.637   5.650   3.743  0.1905 -1.1163 -1.0601
 1438TIP3    H225730   1.673   5.615   3.600  1.8013  0.4788 -1.0946
 1439TIP3   OH225731   0.398   3.425  11.414  0.3068  0.5361  0.1180
 1439TIP3    H125732   0.363   3.412  11.325  1.3703  0.9768 -0.3821
 1439TIP3    H225733   0.342   3.493  11.451 -0.1389  0.3595 -0.2179
 1440TIP3   OH225734   4.445   0.270  12.913  0.2389  0.4019  0.4353
 1440TIP3    H125735   4.360   0.228  12.920  0.3261  0.2059  0.3235
 1440TIP3    H225736   4.461   0.307  13.000  0.0981  0.3274  0.4921
 1441TIP3   OH225737   0.655   2.097  13.980  0.1633  0.4598 -0.1150
 1441TIP3    H125738   0.726   2.146  14.021  0.2943  2.6168 -2.6491
 1441TIP3    H225739   0.699   2.033  13.924  0.0804  0.3720 -0.0793
 1442TIP3   OH225740   3.795   0.261  11.703  0.0000 -0.0599  0.1927
 1442TIP3    H125741   3.861   0.287  11.639  1.7138  0.7569  2.1940
 1442TIP3    H225742   3.818   0.171  11.726  1.0678  0.5486  1.6069
 1443TIP3   OH225743   2.968   0.530   4.044 -0.0973 -0.1686  0.1160
 1443TIP3    H125744   2.954   0.623   4.025 -1.9035 -0.3388  0.3765
 1443TIP3    H225745   3.032   0.529   4.115  0.7847  0.8067 -0.6213
 1444TIP3   OH225746   6.155   1.691  17.248  0.4111 -0.4167 -0.0805
 1444TIP3    H125747   6.202   1.732  17.321 -0.5722 -0.6063  0.6806
 1444TIP3    H225748   6.172   1.598  17.258  0.8700 -0.3904 -0.5401
 1445TIP3   OH225749   4.872   3.101  11.702  0.0589 -0.0130 -0.1263
 1445TIP3    H125750   4.907   3.014  11.718  1.3925  0.3735 -0.8126
 1445TIP3    H225751   4.880   3.113  11.607 -1.0053  0.4932 -0.1674
 1446TIP3   OH225752   6.712   4.163  13.510 -0.1096 -0.4955  0.3628
 1446TIP3    H125753   6.685   4.080  13.471  0.0685 -0.3735 -0.0305
 1446TIP3    H225754   6.790   4.141  13.560  0.9790 -0.2677 -1.1588
 1447TIP3   OH225755   1.338   5.722  14.516 -0.0118  0.1102 -0.0860
 1447TIP3    H125756   1.326   5.707  14.609  0.0922 -0.8721 -0.2242
 1447TIP3    H225757   1.341   5.634  14.477  0.2278  0.4979 -0.9753
 1448TIP3   OH225758   6.757   2.448  15.657 -0.0911  0.6004 -0.1520
 1448TIP3    H125759   6.804   2.474  15.736  0.3279 -0.6964  0.0552
 1448TIP3    H225760   6.714   2.365  15.681 -1.0533  0.8731 -0.8774
 1449TIP3   OH225761   2.324   3.127  12.902 -0.6577  0.1404 -0.2883
 1449TIP3    H125762   2.388   3.194  12.926  0.3217  0.1086 -2.5379
 1449TIP3    H225763   2.376   3.055  12.866 -1.8716 -0.2201 -1.4137
 1450TIP3   OH225764   1.470   5.711   2.781  0.5209  0.1159 -0.7559
 1450TIP3    H125765   1.393   5.663   2.812  1.6272 -1.4993 -0.4035
 1450TIP3    H225766   1.455   5.801   2.809 -0.1301 -0.6292  1.4851
 1451TIP3   OH225767   1.397   6.356   6.082  0.1437  0.5584 -0.2577
 1451TIP3    H125768   1.340   6.280   6.068 -1.4961  1.6496  0.1652
 1451TIP3    H225769   1.343   6.417   6.132  2.1190  1.1855  1.2516
 1452TIP3   OH225770   1.665   4.792   5.088  0.2177  0.5939  0.3456
 1452TIP3    H125771   1.586   4.778   5.035 -0.0722  2.0528  0.3648
 1452TIP3    H225772   1.737   4.781   5.026 -0.0284  0.2181  0.1178
 1453TIP3   OH225773   2.080   4.274   2.865  0.5451  0.0150  0.1966
 1453TIP3    H125774   2.007   4.267   2.926  0.4859 -0.7589  0.0466
 1453TIP3    H225775   2.124   4.189   2.870  0.8625  0.1383 -0.4284
 1454TIP3   OH225776   0.903   0.390   2.648 -0.0015 -0.1919 -0.7320
 1454TIP3    H125777   0.882   0.315   2.703  0.0778  0.6721  0.5168
 1454TIP3    H225778   0.883   0.467   2.702  0.8523  0.6894 -1.6110
 1455TIP3   OH225779   3.491   0.868  13.103 -0.1641  0.0428 -0.4602
 1455TIP3    H125780   3.403   0.831  13.096  0.1792 -1.1122  0.8900
 1455TIP3    H225781   3.549   0.795  13.085  0.5282  0.3743  0.3483
 1456TIP3   OH225782   6.337   1.826   3.082 -0.5640 -0.4924 -1.2302
 1456TIP3    H125783   6.323   1.734   3.104  0.8297  0.0346  2.3954
 1456TIP3    H225784   6.417   1.826   3.029 -0.4742 -1.3258 -1.1117
 1457TIP3   OH225785   1.200   2.325  14.168 -0.2031  0.4465 -0.2420
 1457TIP3    H125786   1.277   2.348  14.116  1.2124 -0.2095  1.4635
 1457TIP3    H225787   1.180   2.404  14.218 -0.1839  0.4007 -0.1605
 1458TIP3   OH225788   4.144   1.913   4.816  0.0014  0.3977  0.0034
 1458TIP3    H125789   4.103   1.975   4.875 -0.4692  0.5771 -0.5037
 1458TIP3    H225790   4.231   1.949   4.799  0.5613 -0.2134  1.4392
 1459TIP3   OH225791   1.804   0.591   1.681 -0.8182  0.3809  0.0258
 1459TIP3    H125792   1.863   0.652   1.638 -1.3907 -0.5626 -2.2593
 1459TIP3    H225793   1.764   0.642   1.752  0.9829  1.6946  0.1665
 1460TIP3   OH225794   2.764   6.199   5.062  0.7518 -0.1805 -0.6412
 1460TIP3    H125795   2.681   6.176   5.103  0.9449  0.9820  0.4897
 1460TIP3    H225796   2.740   6.243   4.981  0.3719 -3.8011 -2.6896
 1461TIP3   OH225797   6.183   3.306  10.963  0.0429  0.4031  0.0694
 1461TIP3    H125798   6.271   3.308  11.001  0.1414  1.1572 -0.1799
 1461TIP3    H225799   6.198   3.313  10.869 -0.2429 -0.5178 -0.0485
 1462TIP3   OH225800   2.237   4.983  16.959  0.1431 -0.0713  0.3292
 1462TIP3    H125801   2.283   4.919  17.013  0.3050  0.0882  0.3821
 1462TIP3    H225802   2.298   5.056  16.950 -0.5583  0.6831  1.4310
 1463TIP3   OH225803   0.438   3.521  13.334  0.0159  0.2282 -0.2105
 1463TIP3    H125804   0.420   3.427  13.338 -0.8891  0.3950  0.0360
 1463TIP3    H225805   0.531   3.527  13.314 -0.1204 -0.7233 -1.2849
 1464TIP3   OH225806   4.414   3.303   2.680 -0.1391 -0.2088 -0.8032
 1464TIP3    H125807   4.505   3.319   2.706 -0.1146  1.8642 -1.9618
 1464TIP3    H225808   4.421   3.244   2.605  0.1772 -0.7309 -0.3749
 1465TIP3   OH225809   2.495   2.390  13.855 -0.4441 -0.1128  0.0489
 1465TIP3    H125810   2.583   2.354  13.848  0.2638  1.0841  1.9867
 1465TIP3    H225811   2.470   2.411  13.765  0.0224 -3.1539 -0.8738
 1466TIP3   OH225812   5.817   0.132   2.118  0.0778 -0.3066 -0.3602
 1466TIP3    H125813   5.782   0.087   2.041  0.6964 -1.0188 -0.2360
 1466TIP3    H225814   5.896   0.175   2.087  0.7943 -1.2879  0.0407
 1467TIP3   OH225815   4.527   6.065   3.365  0.6103  0.0756 -0.0187
 1467TIP3    H125816   4.574   6.101   3.290 -0.4626  1.3950 -0.0931
 1467TIP3    H225817   4.439   6.101   3.358  0.3831 -0.0626  1.6709
 1468TIP3   OH225818   5.950   2.740   2.579 -0.1745 -0.0227 -0.0434
 1468TIP3    H125819   5.944   2.744   2.675  0.1924  0.1039 -0.0229
 1468TIP3    H225820   5.991   2.656   2.560 -0.2436 -0.0461 -0.0882
 1469TIP3   OH225821   0.157   6.370   0.548 -0.1768 -0.2473 -0.1863
 1469TIP3    H125822   0.228   6.389   0.609 -0.6289 -1.3029  0.6995
 1469TIP3    H225823   0.081   6.355   0.605 -0.6753 -0.9623 -1.0287
 1470TIP3   OH225824   4.559   0.447   1.068  0.2093  0.4280  0.4442
 1470TIP3    H125825   4.579   0.356   1.046  2.3690  0.9727 -0.0079
 1470TIP3    H225826   4.516   0.442   1.154  0.9855 -0.9602  0.7687
 1471TIP3   OH225827   6.766   2.091  15.050  0.3760 -0.0520 -0.3155
 1471TIP3    H125828   6.810   2.055  15.127  0.0107 -0.1101 -0.1325
 1471TIP3    H225829   6.833   2.089  14.982  0.5094 -0.6235 -0.1775
 1472TIP3   OH225830   4.231   2.816  13.915 -0.6078  0.5984 -0.3275
 1472TIP3    H125831   4.327   2.821  13.920 -0.6639  1.2160  0.1819
 1472TIP3    H225832   4.214   2.794  13.823  0.0270  0.2679 -0.3773
 1473TIP3   OH225833   4.756   1.773  17.028 -0.3515 -0.5463 -0.0513
 1473TIP3    H125834   4.818   1.835  16.990 -1.2041  0.7423  0.5994
 1473TIP3    H225835   4.791   1.753  17.114 -0.2434 -0.7139 -0.1347
 1474TIP3   OH225836   6.212   5.298   6.261  0.3793  0.0374  0.5783
 1474TIP3    H125837   6.118   5.283   6.265  0.5674 -1.0877  1.2215
 1474TIP3    H225838   6.228   5.328   6.172 -0.5469 -0.0530  0.3764
 1475TIP3   OH225839   6.590   1.861   5.321 -0.6268 -0.3751  0.0405
 1475TIP3    H125840   6.528   1.814   5.377 -0.3543  0.9729  1.5451
 1475TIP3    H225841   6.667   1.804   5.316 -0.2545 -0.1017  1.9146
 1476TIP3   OH225842   1.476   3.614   5.589 -0.5816  0.1981  0.0784
 1476TIP3    H125843   1.539   3.630   5.659 -0.4921  1.3734 -0.2462
 1476TIP3    H225844   1.529   3.594   5.512 -0.6801 -1.0813  0.3183
 1477TIP3   OH225845   1.766   1.608  13.998  0.0237 -0.0958 -0.8020
 1477TIP3    H125846   1.790   1.593  14.090  1.9685 -1.7535 -1.4973
 1477TIP3    H225847   1.670   1.600  13.997  0.1262 -2.6971  0.6962
 1478TIP3   OH225848   5.814   2.635   5.263  0.2128  0.0921  0.5708
 1478TIP3    H125849   5.734   2.678   5.294  0.0060  0.2605 -0.1729
 1478TIP3    H225850   5.885   2.684   5.306 -0.0794 -0.3132  1.5507
 1479TIP3   OH225851   6.504   3.546  13.183 -0.5379 -0.1809  0.0853
 1479TIP3    H125852   6.479   3.552  13.275  2.1534  0.5801  0.8565
 1479TIP3    H225853   6.428   3.580  13.135 -1.3881  0.9791  2.1182
 1480TIP3   OH225854   3.319   4.561   0.244 -0.2311  0.1190  0.5082
 1480TIP3    H125855   3.260   4.562   0.320 -0.2276  0.5416  0.5080
 1480TIP3    H225856   3.405   4.541   0.281 -0.3928 -0.6082  0.4946
 1481TIP3   OH225857   5.456   4.238   5.894 -0.1557 -0.6056 -0.2043
 1481TIP3    H125858   5.365   4.237   5.922 -0.1228 -0.5059 -0.0897
 1481TIP3    H225859   5.499   4.298   5.955 -0.3049  0.5168 -1.1718
 1482TIP3   OH225860   4.797   1.215  17.015 -0.1450  0.6834  0.4177
 1482TIP3    H125861   4.736   1.149  16.982 -0.8167  0.6070  1.7517
 1482TIP3    H225862   4.747   1.297  17.012  0.7112  1.1964 -1.3114
 1483TIP3   OH225863   4.559   0.960   3.773  0.0365 -0.2481 -0.3169
 1483TIP3    H125864   4.526   1.050   3.772 -0.7765 -0.5395 -0.6276
 1483TIP3    H225865   4.499   0.913   3.831  1.3772 -0.2626  1.1021
 1484TIP3   OH225866   3.444   5.935   1.778  0.0180 -0.0796 -0.1655
 1484TIP3    H125867   3.416   6.008   1.834  0.7763 -0.9165  1.3572
 1484TIP3    H225868   3.400   5.858   1.815  0.9597 -0.7357 -0.3748
 1485TIP3   OH225869   5.782   6.768   1.882 -0.0333  0.3356 -0.2258
 1485TIP3    H125870   5.792   6.753   1.788 -1.1444 -1.5677 -0.0933
 1485TIP3    H225871   5.866   6.741   1.920  0.0568  0.1099 -0.5829
 1486TIP3   OH225872   5.010   5.619   5.848 -0.4773 -0.0043 -0.2073
 1486TIP3    H125873   5.077   5.560   5.814  0.3648  1.5577 -1.3538
 1486TIP3    H225874   5.046   5.653   5.930 -0.1754  0.2659 -0.4490
 1487TIP3   OH225875   4.840   2.162  16.058 -0.2948 -0.1307 -0.4457
 1487TIP3    H125876   4.767   2.130  16.111 -0.8946  0.8023 -0.6836
 1487TIP3    H225877   4.909   2.182  16.122 -0.6913  0.1493 -0.1019
 1488TIP3   OH225878   0.473   3.691   6.292 -0.0217  0.1772  0.4586
 1488TIP3    H125879   0.385   3.718   6.317 -0.2018  1.0220 -0.9640
 1488TIP3    H225880   0.532   3.747   6.343 -0.3778  2.1333 -1.1301
 1489TIP3   OH225881   2.182   1.895  16.586 -0.1178  0.1750  0.1097
 1489TIP3    H125882   2.250   1.884  16.652 -0.7750 -2.0043  0.5007
 1489TIP3    H225883   2.100   1.894  16.636 -0.5055  1.7402 -0.4513
 1490TIP3   OH225884   5.435   1.716   5.075  0.2232 -0.4011  0.2129
 1490TIP3    H125885   5.422   1.663   5.153 -1.7053 -1.3606 -0.6844
 1490TIP3    H225886   5.517   1.763   5.091  0.4871 -1.4487  2.2785
 1491TIP3   OH225887   0.784   2.276  11.770  0.2411  0.6515  0.3485
 1491TIP3    H125888   0.840   2.207  11.805 -1.8642 -2.0425 -1.1648
 1491TIP3    H225889   0.820   2.295  11.684 -0.1302  0.1644  0.0772
 1492TIP3   OH225890   2.061   3.019  12.288 -0.4938  0.3317  0.1588
 1492TIP3    H125891   2.044   3.059  12.373 -1.6318  1.2146 -0.4479
 1492TIP3    H225892   1.978   2.980  12.262  0.5554 -2.4197  0.6604
 1493TIP3   OH225893   6.118   4.244  15.357  0.4835 -0.2461 -1.3024
 1493TIP3    H125894   6.153   4.190  15.286  1.6142  2.1163 -2.6545
 1493TIP3    H225895   6.028   4.263  15.330  0.7720  0.2838 -1.9316
 1494TIP3   OH225896   3.225   0.553  13.475  0.6287  0.3035  0.1101
 1494TIP3    H125897   3.245   0.599  13.557 -1.1662 -0.4066  1.0054
 1494TIP3    H225898   3.148   0.598  13.440  0.0877 -0.7147 -0.0551
 1495TIP3   OH225899   2.656   0.642   1.893  0.0772  0.6514 -0.3900
 1495TIP3    H125900   2.572   0.664   1.933  0.7122  2.2896  0.1052
 1495TIP3    H225901   2.649   0.673   1.803  0.2873  1.1398 -0.2386
 1496TIP3   OH225902   6.652   3.617   0.821 -0.2108 -0.3461  0.0621
 1496TIP3    H125903   6.567   3.592   0.784 -0.7003 -0.0780  0.9544
 1496TIP3    H225904   6.671   3.703   0.784  0.2220 -0.8831 -1.0031
 1497TIP3   OH225905   1.488   2.306  12.949  0.2314 -0.0247 -0.0397
 1497TIP3    H125906   1.471   2.304  13.043  0.7698 -2.1402  0.0656
 1497TIP3    H225907   1.582   2.318  12.941  0.4062 -1.3755 -0.2339
 1498TIP3   OH225908   3.830   1.794  10.850  1.0783  0.3286  0.3305
 1498TIP3    H125909   3.826   1.699  10.861  0.2397 -0.0919 -2.7273
 1498TIP3    H225910   3.739   1.822  10.840  1.3879  1.2575 -0.0745
 1499TIP3   OH225911   0.772   0.918  14.925 -0.7884  0.1016  0.0167
 1499TIP3    H125912   0.810   0.949  14.843 -1.8040 -1.4877 -1.1009
 1499TIP3    H225913   0.678   0.909  14.906 -0.6375 -3.1371  0.3821
 1500TIP3   OH225914   4.472   3.995  16.740  0.0917  0.5393  0.3401
 1500TIP3    H125915   4.561   4.027  16.724  0.3598  0.3615  1.4228
 1500TIP3    H225916   4.428   4.005  16.655  0.9926  1.0857 -0.0841
 1501TIP3   OH225917   4.155   6.144  15.728  0.2016 -0.1403 -0.8742
 1501TIP3    H125918   4.149   6.200  15.806 -2.3394 -1.3077 -0.0941
 1501TIP3    H225919   4.238   6.168  15.687  1.2934  1.0414  1.7879
 1502TIP3   OH225920   6.682   4.035   1.046 -0.0658  0.2366 -0.2631
 1502TIP3    H125921   6.721   3.979   0.979  2.5395  0.4051  0.9984
 1502TIP3    H225922   6.711   4.124   1.022 -2.1788  0.8168 -0.9069
 1503TIP3   OH225923   4.777   6.427   0.483  0.6379 -0.2331 -0.0796
 1503TIP3    H125924   4.742   6.367   0.417  1.6670 -1.4372  0.4152
 1503TIP3    H225925   4.871   6.410   0.482  0.6538 -0.3917  1.7885
 1504TIP3   OH225926   0.343   6.436  11.383 -0.0036  0.1398  0.2550
 1504TIP3    H125927   0.269   6.404  11.435 -1.0606 -1.6803 -2.1623
 1504TIP3    H225928   0.315   6.521  11.350  1.3248  2.1059  3.7513
 1505TIP3   OH225929   0.639   5.363  15.104  0.2090  0.1985 -0.2052
 1505TIP3    H125930   0.645   5.449  15.146 -1.7436  0.7078 -0.8563
 1505TIP3    H225931   0.593   5.309  15.169 -0.8425  0.3811 -0.7736
 1506TIP3   OH225932   6.656   5.037  11.627 -0.0678  0.2314 -0.3104
 1506TIP3    H125933   6.589   5.002  11.568  1.1280 -0.4151 -1.3108
 1506TIP3    H225934   6.671   5.126  11.594 -2.1312  1.3295  1.4123
 1507TIP3   OH225935   6.611   1.948   0.282  0.1538 -0.2138  0.6177
 1507TIP3    H125936   6.700   1.942   0.318  0.1543  1.3283  0.9631
 1507TIP3    H225937   6.559   1.987   0.353 -0.3991  0.5380 -0.1776
 1508TIP3   OH225938   5.955   2.693   0.999 -0.3323 -0.4727 -0.1337
 1508TIP3    H125939   6.040   2.715   1.036 -1.0299  0.3572  1.0543
 1508TIP3    H225940   5.910   2.645   1.069 -1.2247  0.0194 -0.3552
 1509TIP3   OH225941   4.438   4.342  16.283  0.1419 -0.0072  0.4167
 1509TIP3    H125942   4.442   4.414  16.221  0.2638  1.1201  1.6978
 1509TIP3    H225943   4.345   4.330  16.301  0.1219 -0.1674  0.2070
 1510TIP3   OH225944   0.337   0.479  11.149 -0.4167 -0.3128 -0.2351
 1510TIP3    H125945   0.330   0.386  11.127 -0.8656 -0.4877  0.6208
 1510TIP3    H225946   0.275   0.492  11.221 -0.6749  0.7488 -0.6331
 1511TIP3   OH225947   4.707   6.166   5.370 -0.6895 -0.3616 -0.1649
 1511TIP3    H125948   4.635   6.216   5.331  0.0873 -0.0429 -1.2365
 1511TIP3    H225949   4.730   6.101   5.304  0.3556 -0.1058 -0.0751
 1512TIP3   OH225950   6.175   4.579   5.150  0.4224  0.5328 -0.0682
 1512TIP3    H125951   6.146   4.525   5.077  0.0644 -0.9399  1.1264
 1512TIP3    H225952   6.099   4.634   5.171  0.2686  0.4062 -0.2921
 1513TIP3   OH225953   2.679   3.335  12.096  0.0858  0.4698  0.0492
 1513TIP3    H125954   2.680   3.430  12.086  0.8961  0.3542 -1.0709
 1513TIP3    H225955   2.609   3.305  12.039  0.8622  0.2837 -0.8319
 1514TIP3   OH225956   0.828   3.656   4.962 -0.0537  0.1866 -0.0588
 1514TIP3    H125957   0.816   3.561   4.953 -2.7466  0.4108  0.3431
 1514TIP3    H225958   0.832   3.672   5.056 -0.0514  0.5254 -0.1133
 1515TIP3   OH225959   2.545   4.216  14.160  0.0731 -0.5709 -0.6764
 1515TIP3    H125960   2.464   4.260  14.135 -1.1029 -2.5020 -0.4250
 1515TIP3    H225961   2.582   4.272  14.229 -1.6421 -0.2513  0.0277
 1516TIP3   OH225962   4.202   6.352   1.595  0.9124  0.2821  0.0294
 1516TIP3    H125963   4.221   6.259   1.605 -0.9368 -0.2734 -1.0919
 1516TIP3    H225964   4.147   6.357   1.517  1.5497  2.4164 -0.3503
 1517TIP3   OH225965   1.264   1.385  15.627  0.2034 -0.2347  0.3091
 1517TIP3    H125966   1.192   1.417  15.573  0.7442 -0.3075 -0.4604
 1517TIP3    H225967   1.303   1.464  15.665  1.1729  0.0100 -1.1257
 1518TIP3   OH225968   5.984   4.548   4.351  0.0973  0.4784 -0.2810
 1518TIP3    H125969   5.974   4.459   4.319 -0.2038  0.6323 -0.6241
 1518TIP3    H225970   6.042   4.591   4.287  2.0318 -0.0619  1.0325
 1519TIP3   OH225971   6.304   2.302   0.853 -0.4228  0.1467 -0.3246
 1519TIP3    H125972   6.324   2.391   0.883 -1.5893  0.3072  0.0304
 1519TIP3    H225973   6.346   2.296   0.767  1.0862  0.4418  0.3705
 1520TIP3   OH225974   5.011   5.532  11.316  0.0951 -0.0365  0.2041
 1520TIP3    H125975   5.079   5.488  11.264 -0.7059 -0.1659 -0.7614
 1520TIP3    H225976   5.057   5.602  11.361  0.8488 -0.0355 -0.5415
 1521TIP3   OH225977   6.320   1.725  10.538  0.2419  0.9611  0.0069
 1521TIP3    H125978   6.227   1.725  10.515 -0.1720  0.6659  1.5395
 1521TIP3    H225979   6.347   1.817  10.531 -0.7847  1.4396  1.7584
 1522TIP3   OH225980   0.428   3.827   0.722 -0.0837 -0.1525 -0.1980
 1522TIP3    H125981   0.519   3.851   0.701 -0.3299  0.2427 -0.8462
 1522TIP3    H225982   0.436   3.751   0.779  0.6894  0.8007  1.0096
 1523TIP3   OH225983   2.122   0.321   4.907  0.5597 -0.4340  0.1013
 1523TIP3    H125984   2.076   0.306   4.824 -0.4502 -1.5494  0.8506
 1523TIP3    H225985   2.133   0.416   4.911 -2.2362 -0.0497  0.1693
 1524TIP3   OH225986   3.832   2.447  15.234 -0.1816  0.6361 -0.1620
 1524TIP3    H125987   3.826   2.446  15.139  2.1444 -0.3883 -0.3770
 1524TIP3    H225988   3.743   2.431  15.265 -0.9405  0.7926 -2.1458
 1525TIP3   OH225989   5.826   6.376   3.405 -0.2551 -0.6540  0.0495
 1525TIP3    H125990   5.771   6.361   3.328  0.7012  0.7217 -0.9792
 1525TIP3    H225991   5.765   6.401   3.474 -1.1215 -1.7264 -0.3122
 1526TIP3   OH225992   2.264   6.025   5.912  0.4129 -0.2079 -0.0999
 1526TIP3    H125993   2.297   5.938   5.934 -1.5424 -1.5833 -2.1625
 1526TIP3    H225994   2.330   6.086   5.947  1.4552 -2.4291  2.0809
 1527TIP3   OH225995   1.123   3.883  15.598 -0.2314 -0.2816  0.4243
 1527TIP3    H125996   1.194   3.828  15.565 -0.6470 -1.9354  2.1387
 1527TIP3    H225997   1.056   3.879  15.531  1.2139  1.3463 -1.2560
 1528TIP3   OH225998   1.833   0.866  12.459  0.2988 -0.2160 -0.1885
 1528TIP3    H125999   1.928   0.856  12.446  0.6864 -0.3362  2.2186
 1528TIP3    H226000   1.811   0.946  12.410  1.1721 -1.3417 -2.5716
 1529TIP3   OH226001   5.817   1.286  17.013  0.5512  0.1584 -0.7856
 1529TIP3    H126002   5.767   1.240  16.945 -0.8283  1.6468 -0.8460
 1529TIP3    H226003   5.903   1.244  17.012 -0.2879 -1.6683 -1.5530
 1530TIP3   OH226004   1.160   4.030   1.736  0.1118  0.1372 -0.0088
 1530TIP3    H126005   1.099   4.050   1.664 -1.1635 -0.6232  0.8067
 1530TIP3    H226006   1.164   4.110   1.788 -0.0399  0.2535 -0.1757
 1531TIP3   OH226007   1.472   5.668   3.512 -0.3588  0.0799 -0.7257
 1531TIP3    H126008   1.408   5.729   3.476 -0.3213  0.8812  0.4771
 1531TIP3    H226009   1.472   5.686   3.606  1.2633 -0.2536 -0.6239
 1532TIP3   OH226010   5.431   2.450   4.258  0.1495 -0.0888  0.1350
 1532TIP3    H126011   5.384   2.484   4.334 -1.2158  1.8700 -1.4858
 1532TIP3    H226012   5.383   2.371   4.234  0.0702 -0.2440  0.7738
 1533TIP3   OH226013   4.405   4.931   2.831  0.6225 -0.1199 -0.5601
 1533TIP3    H126014   4.497   4.911   2.843  0.8476  1.3787  0.6091
 1533TIP3    H226015   4.370   4.859   2.778  1.9794 -1.8319  0.7764
 1534TIP3   OH226016   4.409   5.726   1.418 -0.0522 -0.2825 -0.2081
 1534TIP3    H126017   4.355   5.691   1.489  0.4924 -0.1256  0.3019
 1534TIP3    H226018   4.491   5.676   1.424  0.1340 -0.0134 -0.4902
 1535TIP3   OH226019   5.310   4.494  15.194 -0.1973  0.3660  0.1282
 1535TIP3    H126020   5.327   4.519  15.285  1.2356  0.3730 -0.1156
 1535TIP3    H226021   5.322   4.399  15.193  0.6990  0.4771 -0.2284
 1536TIP3   OH226022   3.322   0.157   1.057 -0.4834 -0.0052 -0.0914
 1536TIP3    H126023   3.362   0.097   1.119 -1.1714 -0.8169 -0.4177
 1536TIP3    H226024   3.253   0.106   1.015 -0.1150  0.5626 -1.4379
 1537TIP3   OH226025   4.519   2.025  12.910 -0.2113  0.7809  0.4903
 1537TIP3    H126026   4.544   1.935  12.891 -0.7161  0.7010  0.1913
 1537TIP3    H226027   4.567   2.078  12.846 -0.2451  0.6891  0.3894
 1538TIP3   OH226028   6.123   0.445  17.143 -0.3445  0.6495  0.0076
 1538TIP3    H126029   6.050   0.441  17.081 -0.0980  0.1340 -0.2546
 1538TIP3    H226030   6.118   0.363  17.191  0.6492  0.1651 -0.6862
 1539TIP3   OH226031   3.128   1.209   4.143 -0.3143 -0.1986  0.3384
 1539TIP3    H126032   3.074   1.140   4.182  0.0818  0.0617  1.3760
 1539TIP3    H226033   3.205   1.214   4.199  0.8291 -0.5968 -1.1651
 1540TIP3   OH226034   0.843   2.666   0.038  0.0468 -0.1355 -0.2409
 1540TIP3    H126035   0.775   2.615  -0.005  0.6691  0.6072 -2.1872
 1540TIP3    H226036   0.917   2.664  -0.022  0.4456  2.1596  0.0832
 1541TIP3   OH226037   0.547   5.130   6.647  0.2457 -0.0727  0.1613
 1541TIP3    H126038   0.483   5.073   6.606  0.8238  0.3280 -1.3509
 1541TIP3    H226039   0.557   5.095   6.736  0.5957 -2.3365 -0.6961
 1542TIP3   OH226040   1.425   1.276  13.815 -0.2215 -0.4155  0.0464
 1542TIP3    H126041   1.442   1.333  13.740 -1.2090  2.0203  1.5627
 1542TIP3    H226042   1.342   1.234  13.795 -1.1724  1.2615  0.2946
 1543TIP3   OH226043   0.460   6.424  11.639 -0.7358 -0.7283  0.6336
 1543TIP3    H126044   0.460   6.409  11.545  0.3544 -0.1820  0.5341
 1543TIP3    H226045   0.409   6.504  11.651 -0.9365 -0.8380  0.5268
 1544TIP3   OH226046   0.416   4.120   3.089  0.4929  0.5222 -0.2659
 1544TIP3    H126047   0.389   4.165   3.169  0.8647 -0.3336  0.3567
 1544TIP3    H226048   0.337   4.120   3.034  0.0692  0.6285  0.3283
 1545TIP3   OH226049   5.654   2.999  15.666 -0.8076  0.1855 -0.4657
 1545TIP3    H126050   5.700   3.016  15.584  3.4594  1.2501  1.8586
 1545TIP3    H226051   5.610   3.082  15.687 -0.1702  0.5842 -0.6945
 1546TIP3   OH226052   6.388   0.013  16.542  0.0620 -0.3719 -0.1859
 1546TIP3    H126053   6.414  -0.019  16.628  1.2013  1.6089  0.2766
 1546TIP3    H226054   6.295   0.033  16.551 -0.2881 -1.9356 -0.0236
 1547TIP3   OH226055   3.793   0.432   4.022 -0.4350 -0.0013  0.1539
 1547TIP3    H126056   3.700   0.439   4.000 -0.2704 -1.5216 -1.1705
 1547TIP3    H226057   3.822   0.352   3.979  1.8388  1.1930 -0.7227
 1548TIP3   OH226058   3.788   6.037   4.311 -0.3972 -0.0527 -0.4396
 1548TIP3    H126059   3.771   5.957   4.360  0.9255 -0.8263 -1.1894
 1548TIP3    H226060   3.847   6.087   4.367  1.3238 -1.0527 -1.2912
 1549TIP3   OH226061   3.815   4.183   2.860 -0.1825 -0.4218  0.1956
 1549TIP3    H126062   3.723   4.200   2.879 -0.4037  0.3621 -1.4528
 1549TIP3    H226063   3.860   4.202   2.943 -1.4127 -0.1418  0.8261
 1550TIP3   OH226064   1.072   1.648   4.663  0.3369  0.2429  0.2829
 1550TIP3    H126065   1.062   1.585   4.735 -0.6336  0.4419  0.3387
 1550TIP3    H226066   1.151   1.621   4.618  0.5754 -0.3091  1.0165
 1551TIP3   OH226067   1.292   5.062  12.521 -0.6464 -0.3529  0.0414
 1551TIP3    H126068   1.371   5.027  12.480 -2.0011 -0.6500 -2.5157
 1551TIP3    H226069   1.240   5.095  12.448 -2.0763  1.6064  1.8131
 1552TIP3   OH226070   5.403   0.857  14.168  1.1362  0.0835  0.8292
 1552TIP3    H126071   5.494   0.830  14.177  1.5045  1.2017  0.6171
 1552TIP3    H226072   5.397   0.892  14.079  0.5892  0.3166  0.9555
 1553TIP3   OH226073   5.228   3.752  13.537 -0.2702  0.0014 -0.2542
 1553TIP3    H126074   5.140   3.716  13.526 -0.1103 -1.2863  2.1296
 1553TIP3    H226075   5.225   3.796  13.622  1.1185  0.8798 -0.6283
 1554TIP3   OH226076   1.515   0.344   4.129  0.5122  0.3039  0.2530
 1554TIP3    H126077   1.433   0.301   4.107  0.2947  0.1032  1.4141
 1554TIP3    H226078   1.516   0.347   4.224  1.0894  1.7917  0.2216
 1555TIP3   OH226079   1.149   6.615   5.828 -0.2287 -0.1850  0.0962
 1555TIP3    H126080   1.209   6.542   5.813 -0.4290 -0.8561  2.2358
 1555TIP3    H226081   1.062   6.575   5.828 -0.3153 -0.0647  1.6693
 1556TIP3   OH226082   6.663   3.073   3.466  0.1661 -0.2576  0.2545
 1556TIP3    H126083   6.728   3.006   3.445  0.0688 -1.0338  2.2823
 1556TIP3    H226084   6.610   3.035   3.536 -1.1165  1.2084  0.1413
 1557TIP3   OH226085   2.155   5.836   4.882 -0.5117  0.1136  0.0813
 1557TIP3    H126086   2.124   5.811   4.795  1.6110  0.7590 -0.9199
 1557TIP3    H226087   2.093   5.903   4.911 -1.0790  0.1027 -1.0617
 1558TIP3   OH226088   3.731   1.648   0.954  0.2563 -0.5096 -0.3100
 1558TIP3    H126089   3.745   1.740   0.931 -0.0198 -0.6603 -1.1112
 1558TIP3    H226090   3.650   1.624   0.908 -0.0690 -0.9579  0.4666
 1559TIP3   OH226091   3.578   4.113  14.230  0.0751 -0.2641  0.3618
 1559TIP3    H126092   3.586   4.093  14.136 -0.9054 -0.4988  0.3263
 1559TIP3    H226093   3.488   4.092  14.252  0.5339 -1.0442  1.5735
 1560TIP3   OH226094   0.320   2.160   1.176 -0.4148 -0.1607 -0.5140
 1560TIP3    H126095   0.246   2.198   1.223  0.1331  1.4716 -0.8969
 1560TIP3    H226096   0.289   2.152   1.086 -1.0267 -2.0899 -0.1846
 1561TIP3   OH226097   3.100   2.902  12.815  0.3426 -0.1128  0.0611
 1561TIP3    H126098   3.086   2.809  12.829 -0.3918 -0.2143 -1.2551
 1561TIP3    H226099   3.128   2.909  12.724  0.2674  0.9632  0.1086
 1562TIP3   OH226100   0.990   6.644  17.191  0.3677 -0.4638 -0.1625
 1562TIP3    H126101   1.072   6.683  17.163 -0.4639  1.2245 -0.3946
 1562TIP3    H226102   1.008   6.550  17.199  2.3876 -0.0785  0.1393
 1563TIP3   OH226103   3.263   1.268  16.583 -0.4624  0.3951  0.0185
 1563TIP3    H126104   3.276   1.297  16.492 -1.7504 -0.7806 -0.5850
 1563TIP3    H226105   3.351   1.258  16.618  0.0710  0.3403 -1.2820
 1564TIP3   OH226106   1.113   4.747   0.900 -0.5624 -0.4912 -0.1369
 1564TIP3    H126107   1.146   4.804   0.830  3.4883 -1.2114  0.9062
 1564TIP3    H226108   1.114   4.802   0.978  0.7864 -1.1829  0.3739
 1565TIP3   OH226109   1.208   6.552  13.287  0.3934  0.6176 -0.1110
 1565TIP3    H126110   1.296   6.585  13.269  0.0001  0.6027 -2.2928
 1565TIP3    H226111   1.195   6.570  13.380  2.0087  2.2710 -0.1372
 1566TIP3   OH226112   3.271   2.097   4.619  0.2992 -0.1419  0.3120
 1566TIP3    H126113   3.253   2.069   4.529 -2.1888  1.8834  0.0711
 1566TIP3    H226114   3.212   2.044   4.672 -0.6824  1.0075  0.3813
 1567TIP3   OH226115   1.925   0.307  13.846  0.7634  0.3441 -0.3011
 1567TIP3    H126116   1.931   0.355  13.928  0.4522 -0.7944  0.4120
 1567TIP3    H226117   2.001   0.336  13.795  0.3004  1.9574 -0.1169
 1568TIP3   OH226118   5.679   2.365   4.323 -0.4142  0.5203  0.1005
 1568TIP3    H126119   5.696   2.275   4.296  2.7345  1.6030 -2.1241
 1568TIP3    H226120   5.593   2.385   4.287 -0.5885 -1.1777 -0.5309
 1569TIP3   OH226121   5.284   0.455  13.398 -0.1057 -0.5968  0.2079
 1569TIP3    H126122   5.306   0.513  13.325  0.0739 -1.5454 -0.5181
 1569TIP3    H226123   5.232   0.510  13.457  0.5140  0.4447 -0.1844
 1570TIP3   OH226124   4.074   3.412  11.081 -0.0467  0.0694 -0.2726
 1570TIP3    H126125   4.099   3.499  11.115 -0.8949 -0.5706  2.2463
 1570TIP3    H226126   3.987   3.425  11.044  0.2896  0.5003 -0.9329
 1571TIP3   OH226127   4.979   2.567  12.022  0.1568 -0.4607  0.3968
 1571TIP3    H126128   4.975   2.476  11.992  0.3860 -0.1734 -0.5391
 1571TIP3    H226129   4.899   2.607  11.987  0.9444  0.1499 -0.8048
 1572TIP3   OH226130   5.544   5.019  14.254  0.2195  0.1141 -0.4803
 1572TIP3    H126131   5.527   5.062  14.338 -0.5821  0.3979 -0.7800
 1572TIP3    H226132   5.635   4.990  14.260  0.2658  0.4113  0.3624
 1573TIP3   OH226133   2.014   0.548   5.214  0.8895  0.2974 -0.1695
 1573TIP3    H126134   2.097   0.574   5.255 -0.3484  0.9091  2.1511
 1573TIP3    H226135   1.977   0.630   5.182  0.0984  0.4568  1.0544
 1574TIP3   OH226136   1.412   3.354   2.724  0.5724  0.2413 -0.2246
 1574TIP3    H126137   1.360   3.415   2.671  2.3221  2.1472  0.1459
 1574TIP3    H226138   1.492   3.402   2.745  1.2739 -1.5650  1.5877
 1575TIP3   OH226139   5.184   1.820  13.260 -0.3048  0.2843  0.4947
 1575TIP3    H126140   5.241   1.747  13.287  0.7597  0.2807 -1.5015
 1575TIP3    H226141   5.187   1.882  13.332  1.6552 -0.0876  0.7896
 1576TIP3   OH226142   1.552   3.355   3.805 -0.3287  0.7876 -0.2425
 1576TIP3    H126143   1.559   3.426   3.741  0.4165  0.9004 -0.0438
 1576TIP3    H226144   1.575   3.276   3.757  1.3436  1.0102  0.1275
 1577TIP3   OH226145   2.447   1.384   3.567  0.5285  0.5403  0.1114
 1577TIP3    H126146   2.458   1.479   3.571  2.7245  0.3280 -0.0596
 1577TIP3    H226147   2.520   1.353   3.514 -0.0765 -1.2813  0.2693
 1578TIP3   OH226148   0.159   0.466  13.013 -0.6422  0.5513  0.5284
 1578TIP3    H126149   0.136   0.413  13.089  1.0687  0.5649  1.1150
 1578TIP3    H226150   0.172   0.554  13.048  0.8513  0.4145  0.3955
 1579TIP3   OH226151   2.611   1.938  15.831 -0.4874  0.0773 -0.5909
 1579TIP3    H126152   2.542   1.901  15.886  0.0642 -1.3077 -0.7839
 1579TIP3    H226153   2.597   1.899  15.745  1.5295 -1.6640 -0.2192
 1580TIP3   OH226154   1.635   3.490  16.374 -0.4497  0.1032  0.3095
 1580TIP3    H126155   1.598   3.575  16.355 -1.3583 -0.1223  1.0127
 1580TIP3    H226156   1.615   3.474  16.466 -0.1842 -0.8169  0.2285
 1581TIP3   OH226157   1.998   4.403   4.298 -0.6081 -0.0775  0.8910
 1581TIP3    H126158   1.949   4.459   4.238 -2.7463 -1.1533  1.5036
 1581TIP3    H226159   2.019   4.460   4.372  0.3792  0.7725 -0.0195
 1582TIP3   OH226160   6.726   3.772   3.827  0.0362 -0.4543 -0.5747
 1582TIP3    H126161   6.809   3.756   3.872 -0.8472 -1.8307  0.6662
 1582TIP3    H226162   6.663   3.716   3.872 -1.5112  0.2891 -1.7100
 1583TIP3   OH226163   6.728   2.983   0.170 -0.0228  0.2658 -0.6888
 1583TIP3    H126164   6.820   2.956   0.165 -0.0693 -0.2673  0.8116
 1583TIP3    H226165   6.680   2.909   0.132  0.2180  1.3101 -3.2177
 1584TIP3   OH226166   0.108   4.488  15.629  0.0043  0.1494  0.3424
 1584TIP3    H126167   0.033   4.507  15.686 -2.0013 -0.2606 -1.9781
 1584TIP3    H226168   0.157   4.570  15.627 -2.7574  1.9091 -1.3334
 1585TIP3   OH226169   6.454   4.529  12.908 -0.2616  0.7690 -0.1407
 1585TIP3    H126170   6.417   4.599  12.963  1.5392  2.3068 -0.7833
 1585TIP3    H226171   6.548   4.533  12.924  0.2509  0.7369 -2.6989
 1586TIP3   OH226172   3.397   5.508   2.906 -0.0765 -0.4736  0.2868
 1586TIP3    H126173   3.475   5.479   2.858 -0.5465 -1.0664 -0.1319
 1586TIP3    H226174   3.410   5.602   2.917  0.7317 -0.5762  0.2793
 1587TIP3   OH226175   6.543   2.696   5.273 -0.2347 -0.6504 -0.9567
 1587TIP3    H126176   6.608   2.674   5.207  2.0604 -0.9669  1.2644
 1587TIP3    H226177   6.464   2.650   5.245  1.4403 -3.0938 -1.9920
 1588TIP3   OH226178   1.730   1.425   5.281  0.2900 -0.2711  0.4776
 1588TIP3    H126179   1.644   1.388   5.302  0.2740 -1.1557 -0.9802
 1588TIP3    H226180   1.715   1.520   5.278 -0.8019 -0.4441 -0.3431
 1589TIP3   OH226181   3.480   0.059  14.286 -1.1052  0.0779 -0.2659
 1589TIP3    H126182   3.524   0.137  14.318  1.2886 -0.8031 -1.2069
 1589TIP3    H226183   3.424   0.090  14.215  0.3403  0.8897 -1.0908
 1590TIP3   OH226184   1.975   3.777  12.574 -0.2292  0.1866 -0.2969
 1590TIP3    H126185   2.004   3.708  12.513  0.7101 -0.6290  1.0190
 1590TIP3    H226186   1.908   3.825  12.525 -0.7729 -1.5250 -1.3559
 1591TIP3   OH226187   3.230   4.229   1.953  0.4900  0.5790 -0.2611
 1591TIP3    H126188   3.262   4.270   1.873  0.9436 -0.7374 -0.7831
 1591TIP3    H226189   3.135   4.222   1.940  0.7280 -1.2026 -1.5050
 1592TIP3   OH226190   4.377   3.936  13.958  0.7730 -0.5898  0.3384
 1592TIP3    H126191   4.364   3.973  14.046 -0.2480 -0.3095  0.0809
 1592TIP3    H226192   4.366   4.011  13.899  0.5183 -0.9494 -0.0767
 1593TIP3   OH226193   1.559   5.029  12.429  0.1553  0.7859  0.4138
 1593TIP3    H126194   1.609   5.077  12.495  0.0796  0.9821  0.3294
 1593TIP3    H226195   1.616   5.026  12.352  0.8342 -0.6992  0.9425
 1594TIP3   OH226196   5.730   2.531   0.312 -0.5730 -0.3305 -0.4926
 1594TIP3    H126197   5.737   2.596   0.382  1.4999 -2.7611  1.7583
 1594TIP3    H226198   5.695   2.580   0.237 -0.9813  2.8659  1.6021
 1595TIP3   OH226199   1.051   0.573   0.817 -0.3335 -0.0776  0.4801
 1595TIP3    H126200   1.055   0.534   0.905 -2.0757 -0.6514  0.3222
 1595TIP3    H226201   1.041   0.499   0.758 -0.3199  0.3959 -0.1239
 1596TIP3   OH226202   2.146   3.923  12.055  0.7950 -0.3790 -0.1548
 1596TIP3    H126203   2.236   3.928  12.023  0.4263 -0.1960 -1.1869
 1596TIP3    H226204   2.100   3.871  11.989 -0.1064  0.4806 -0.2249
 1597TIP3   OH226205   3.924   3.720   5.287  0.5005 -0.0883 -0.3221
 1597TIP3    H126206   3.864   3.673   5.228  0.5962 -0.7841  0.1231
 1597TIP3    H226207   3.869   3.743   5.362 -0.1702  2.6420 -1.5237
 1598TIP3   OH226208   6.183   0.998   1.661  0.4170 -0.1207 -0.4376
 1598TIP3    H126209   6.163   1.074   1.607 -1.3891 -0.5350 -0.4138
 1598TIP3    H226210   6.256   1.026   1.716 -1.4098  2.3171  0.9572
 1599TIP3   OH226211   0.978   6.269  11.041 -0.2265  0.0439  0.1045
 1599TIP3    H126212   0.933   6.213  10.977 -1.6971  0.6116  0.5990
 1599TIP3    H226213   1.028   6.331  10.988 -2.1336  1.0857 -0.5803
 1600TIP3   OH226214   3.255   3.831   5.089 -1.3736 -0.7585  0.2210
 1600TIP3    H126215   3.194   3.797   5.024 -0.2263 -1.0895 -0.7219
 1600TIP3    H226216   3.330   3.860   5.038 -0.5464 -0.7903  1.3816
 1601TIP3   OH226217   3.396   5.326  15.818 -0.6939 -0.5218  0.1388
 1601TIP3    H126218   3.338   5.399  15.841 -0.6097 -0.5828  0.5423
 1601TIP3    H226219   3.369   5.254  15.875 -1.0667 -0.9475 -0.5657
 1602TIP3   OH226220   0.020   5.684   3.551  0.2085  0.2344  0.9261
 1602TIP3    H126221   0.054   5.771   3.529 -0.3525  0.3499  0.4883
 1602TIP3    H226222   0.094   5.639   3.590  0.1173  1.4173  2.5909
 1603TIP3   OH226223   5.728   6.300  16.057  0.3045  0.6219 -0.4241
 1603TIP3    H126224   5.821   6.288  16.042  0.1836  0.1247 -0.8164
 1603TIP3    H226225   5.686   6.240  15.995 -0.2880  1.3892 -0.7763
 1604TIP3   OH226226   3.286   4.570  11.270  0.0297  0.8530 -0.0587
 1604TIP3    H126227   3.291   4.535  11.181  0.8311  0.0390  0.2988
 1604TIP3    H226228   3.219   4.639  11.264  0.9444  1.6628 -1.5726
 1605TIP3   OH226229   4.947   0.281  13.493 -0.0975 -0.1449 -0.1143
 1605TIP3    H126230   4.946   0.243  13.405 -1.5952  0.0392 -0.2035
 1605TIP3    H226231   4.955   0.376  13.478 -3.2541  0.2264 -0.2850
 1606TIP3   OH226232   6.203   1.232  12.488 -0.2902  0.4436 -0.5089
 1606TIP3    H126233   6.280   1.178  12.474 -1.9254 -1.9545 -0.7605
 1606TIP3    H226234   6.204   1.252  12.582  2.0982  2.9367 -0.9454
 1607TIP3   OH226235   3.604   5.881  15.603 -0.1541 -0.0851  0.2657
 1607TIP3    H126236   3.690   5.885  15.560 -1.0095  2.6879 -1.5062
 1607TIP3    H226237   3.623   5.858  15.694  2.3032 -0.9052 -0.3806
 1608TIP3   OH226238   6.412   5.498   4.563  0.5553 -0.1081  0.3727
 1608TIP3    H126239   6.368   5.416   4.587  1.3895 -0.8042 -0.4376
 1608TIP3    H226240   6.341   5.562   4.556 -0.1938 -0.9340  0.2781
 1609TIP3   OH226241   5.097   6.569  16.052  0.1248  0.0709  0.4141
 1609TIP3    H126242   5.080   6.477  16.033 -1.2895  0.7959 -2.3295
 1609TIP3    H226243   5.191   6.581  16.033 -0.1014 -0.4347 -1.1355
 1610TIP3   OH226244   1.361   5.893   3.415  0.0210  0.1004  0.4458
 1610TIP3    H126245   1.437   5.951   3.423  0.6758 -0.4369 -1.3952
 1610TIP3    H226246   1.302   5.940   3.356 -0.0186 -0.5026 -0.0054
 1611TIP3   OH226247   4.132   4.188   0.164  0.0942 -0.4820  0.2594
 1611TIP3    H126248   4.210   4.169   0.216  0.9425  1.9828  0.0271
 1611TIP3    H226249   4.166   4.206   0.076 -0.4287  2.5431  0.5919
 1612TIP3   OH226250   3.551   1.986  12.208  0.9647 -0.2477 -0.2226
 1612TIP3    H126251   3.467   2.008  12.249  1.3355 -1.5605  1.3073
 1612TIP3    H226252   3.612   2.052  12.241  1.1197 -0.9195  0.8748
 1613TIP3   OH226253   2.101   4.657   3.657  0.0157  0.1392  0.0351
 1613TIP3    H126254   2.161   4.657   3.582 -0.6288  0.1871 -0.4904
 1613TIP3    H226255   2.073   4.566   3.665 -0.0164  0.1574  0.1286
 1614TIP3   OH226256   2.852   0.596   5.703  0.5262  0.2562  0.4068
 1614TIP3    H126257   2.775   0.614   5.756  0.6112  0.8044  0.3466
 1614TIP3    H226258   2.853   0.501   5.694  0.4407  0.1738  1.2762
 1615TIP3   OH226259   4.821   5.314   5.786 -0.2790 -0.3041  0.4666
 1615TIP3    H126260   4.901   5.340   5.832 -0.1057 -1.4789  0.8605
 1615TIP3    H226261   4.845   5.316   5.693  0.3926 -1.2086  0.6103
 1616TIP3   OH226262   4.913   2.000  16.964 -0.6457 -0.1619  0.2430
 1616TIP3    H126263   4.918   2.040  16.877 -0.4784 -1.1696 -0.2215
 1616TIP3    H226264   4.878   2.070  17.020  0.0894  0.7831 -0.4437
 1617TIP3   OH226265   4.517   2.640  10.173 -0.4766  0.3078  0.1992
 1617TIP3    H126266   4.512   2.552  10.210 -1.2088  0.2763  0.0320
 1617TIP3    H226267   4.611   2.658  10.168 -0.3424  0.1468  1.6679
 1618TIP3   OH226268   6.507   2.809  14.984  0.6336 -0.0140  0.2145
 1618TIP3    H126269   6.448   2.855  15.043  0.4081 -0.2631  0.1827
 1618TIP3    H226270   6.579   2.871  14.969  0.6800  0.0596  0.7276
 1619TIP3   OH226271   3.155   6.510  16.328  0.1386  0.7818  0.3319
 1619TIP3    H126272   3.165   6.554  16.244 -0.1511  2.4416  1.1279
 1619TIP3    H226273   3.201   6.426  16.317  0.3540  1.0917 -1.3628
 1620TIP3   OH226274   6.008   1.473   5.561 -0.0291 -0.3375  0.7841
 1620TIP3    H126275   6.057   1.489   5.641 -0.2111  1.6153  0.5479
 1620TIP3    H226276   5.921   1.445   5.591  0.2262 -0.6611  1.2353
 1621TIP3   OH226277   3.665   0.796  10.986 -0.2244 -0.4874  0.2218
 1621TIP3    H126278   3.645   0.883  11.020 -2.0596 -1.2903  1.3317
 1621TIP3    H226279   3.713   0.813  10.905  0.1876  1.5377  0.8383
 1622TIP3   OH226280   2.665   0.355   0.462  0.4349  0.0560 -0.9758
 1622TIP3    H126281   2.712   0.314   0.390  1.9756  0.4383 -0.2259
 1622TIP3    H226282   2.714   0.331   0.540 -1.7536 -1.1821  0.1093
 1623TIP3   OH226283   3.657   1.145   2.312  0.0758  0.0673 -0.5631
 1623TIP3    H126284   3.563   1.149   2.328  0.0648  1.6148 -0.8202
 1623TIP3    H226285   3.695   1.126   2.398 -0.4057  0.9215 -0.1441
 1624TIP3   OH226286   2.107   2.394  16.434  0.1308 -0.5602  0.1000
 1624TIP3    H126287   2.121   2.487  16.414 -2.2469  0.1299  1.2377
 1624TIP3    H226288   2.070   2.357  16.353 -0.7275 -0.0104  0.2207
 1625TIP3   OH226289   0.403   3.843   5.462 -0.6700  0.6591  0.5856
 1625TIP3    H126290   0.386   3.934   5.436 -0.4638  0.4012 -0.4919
 1625TIP3    H226291   0.372   3.791   5.388  1.5254 -0.0089  0.0551
 1626TIP3   OH226292   1.539   3.931   1.053  0.5060 -0.0068 -0.3861
 1626TIP3    H126293   1.570   3.852   1.009  0.2851 -1.7765  2.4081
 1626TIP3    H226294   1.619   3.977   1.078  0.7470 -0.8489  0.4613
 1627TIP3   OH226295   1.944   0.216   0.629  0.0789 -0.0304  0.7658
 1627TIP3    H126296   2.013   0.250   0.686 -0.5304  1.1917  0.8086
 1627TIP3    H226297   1.979   0.228   0.540 -0.7494  2.3283  0.6769
 1628TIP3   OH226298   3.862   5.507  12.547 -0.5041  0.0035  0.1522
 1628TIP3    H126299   3.800   5.439  12.522 -0.1390 -0.0536 -0.6105
 1628TIP3    H226300   3.924   5.512  12.474  0.5163 -0.0816  0.9769
 1629TIP3   OH226301   2.686   5.371   0.360  0.2970  0.7156 -0.5599
 1629TIP3    H126302   2.612   5.425   0.333  0.0755  0.9629  0.4906
 1629TIP3    H226303   2.759   5.402   0.306 -0.0955  1.2667 -0.7895
 1630TIP3   OH226304   5.950   1.986  16.973 -0.2136 -0.3238  0.4903
 1630TIP3    H126305   5.999   2.066  16.990 -0.2629 -0.0134 -0.7096
 1630TIP3    H226306   6.004   1.916  17.010  0.1641  0.2017  0.9403
 1631TIP3   OH226307   0.336   2.184   1.705  0.6023  0.2986 -0.0456
 1631TIP3    H126308   0.285   2.236   1.643 -0.2536 -1.2431 -0.7108
 1631TIP3    H226309   0.274   2.163   1.775  1.1461  0.7853  0.5872
 1632TIP3   OH226310   1.644   6.519  15.418  0.4190 -0.3264 -0.8863
 1632TIP3    H126311   1.707   6.543  15.487  0.2408 -1.2834 -0.3629
 1632TIP3    H226312   1.590   6.451  15.459 -0.1475 -0.4058 -1.7536
 1633TIP3   OH226313   3.701   1.564  16.125  0.2541  0.1538  0.5105
 1633TIP3    H126314   3.639   1.551  16.197  0.4035  0.2405  0.6539
 1633TIP3    H226315   3.693   1.656  16.102  0.3957  0.1836  0.5861
 1634TIP3   OH226316   0.555   4.626  14.007 -0.5531 -0.3312 -0.4130
 1634TIP3    H126317   0.538   4.577  13.926  1.0740 -0.2020 -0.8880
 1634TIP3    H226318   0.517   4.713  13.990 -0.9737 -0.5656 -0.6980
 1635TIP3   OH226319   0.438   1.244  16.232  0.7921 -0.2012  0.3934
 1635TIP3    H126320   0.500   1.199  16.289 -0.2928 -1.0602  0.9559
 1635TIP3    H226321   0.358   1.249  16.284  0.3438  0.7467 -0.3576
 1636TIP3   OH226322   5.851   3.626  12.774  0.0028 -0.3466 -0.2402
 1636TIP3    H126323   5.794   3.611  12.699  0.5007  1.2936 -0.9802
 1636TIP3    H226324   5.791   3.655  12.843 -0.3608 -1.1204 -0.2195
 1637TIP3   OH226325   4.752   2.330   5.216 -0.6696 -0.2295  0.2165
 1637TIP3    H126326   4.683   2.395   5.199  0.0033  0.5393  0.3432
 1637TIP3    H226327   4.774   2.343   5.308 -1.0995 -1.2157  0.4664
 1638TIP3   OH226328   2.152   5.250  13.526  0.2606  0.3030 -0.1541
 1638TIP3    H126329   2.110   5.223  13.444 -1.6319  1.0719  0.4958
 1638TIP3    H226330   2.190   5.336  13.506 -1.4311  1.1603  0.0748
 1639TIP3   OH226331   1.136   2.218   3.275 -0.0004 -0.3059  0.1538
 1639TIP3    H126332   1.126   2.219   3.370  0.9772 -1.5222  0.2903
 1639TIP3    H226333   1.123   2.127   3.250 -1.8502  0.2587 -1.0972
 1640TIP3   OH226334   4.370   0.791   1.454 -0.1930  0.3728 -0.5423
 1640TIP3    H126335   4.368   0.870   1.400  2.0643  1.1039  0.3326
 1640TIP3    H226336   4.416   0.727   1.400  0.3117  0.4941 -0.2646
 1641TIP3   OH226337   5.352   2.514   0.950  0.5900  0.6782 -0.4649
 1641TIP3    H126338   5.308   2.429   0.953 -0.6924  1.3367  0.7987
 1641TIP3    H226339   5.283   2.575   0.923  1.1832  1.4952 -0.1627
 1642TIP3   OH226340   5.454   5.163  16.154 -0.3358 -0.0829 -0.3830
 1642TIP3    H126341   5.526   5.186  16.212 -0.3705  0.9029 -0.7057
 1642TIP3    H226342   5.476   5.206  16.071 -0.1296 -1.7196 -1.2096
 1643TIP3   OH226343   5.338   3.695   1.504  0.0047 -0.3608 -0.4784
 1643TIP3    H126344   5.409   3.650   1.548 -0.7928 -1.3060 -0.1385
 1643TIP3    H226345   5.327   3.777   1.553 -1.0169 -1.4818  1.2714
 1644TIP3   OH226346   3.836   0.767  10.757  0.1771 -0.6653  0.1923
 1644TIP3    H126347   3.817   0.814  10.677  1.0899 -0.0795  0.3130
 1644TIP3    H226348   3.924   0.795  10.783  1.5910 -3.7564 -0.7125
 1645TIP3   OH226349   4.126   6.695   0.810 -0.3244  0.0595  0.2891
 1645TIP3    H126350   4.119   6.694   0.715 -3.6047 -0.2045  0.4051
 1645TIP3    H226351   4.044   6.736   0.840  0.0079 -1.0382  3.0201
 1646TIP3   OH226352   0.629   3.726   2.383 -0.3031 -0.0989  0.1493
 1646TIP3    H126353   0.663   3.649   2.337 -1.8139 -0.4525 -0.4083
 1646TIP3    H226354   0.708   3.771   2.414  0.6316 -1.5118 -0.0696
 1647TIP3   OH226355   0.938   0.022  14.155 -0.3753  0.7629 -0.0306
 1647TIP3    H126356   0.966   0.099  14.204 -0.8458  0.9716 -0.0853
 1647TIP3    H226357   1.019  -0.026  14.137 -0.2620  0.0951  1.9410
 1648TIP3   OH226358   2.112   0.864   1.864  0.0798 -0.1099 -0.6055
 1648TIP3    H126359   2.203   0.872   1.836  0.2068  1.6075  0.1769
 1648TIP3    H226360   2.063   0.845   1.783  0.8306  1.4879 -1.4731
 1649TIP3   OH226361   2.670   1.236  12.365  0.5039  0.4233 -0.5011
 1649TIP3    H126362   2.630   1.311  12.319 -1.8460  0.2582  1.0690
 1649TIP3    H226363   2.605   1.166  12.356  1.1962 -0.4171  0.8013
 1650TIP3   OH226364   0.451   2.884   2.074 -0.4450 -0.1638  0.3071
 1650TIP3    H126365   0.381   2.937   2.113 -0.5094 -0.5792  0.7688
 1650TIP3    H226366   0.446   2.801   2.120 -0.2229 -0.5087 -0.2845
 1651TIP3   OH226367   2.801   1.985  14.328 -0.4445 -1.0632 -0.1670
 1651TIP3    H126368   2.863   2.057  14.344 -1.1727 -0.6838  1.0571
 1651TIP3    H226369   2.855   1.906  14.330 -0.1427 -0.8714  2.3229
 1652TIP3   OH226370   4.264   3.976   4.985  0.6007 -1.0940 -0.0208
 1652TIP3    H126371   4.243   3.888   5.019  0.8320 -2.4177 -3.0159
 1652TIP3    H226372   4.356   3.969   4.957  0.5300  0.0289 -0.5613
 1653TIP3   OH226373   2.922   0.510   5.138  0.5885  0.3768  0.0352
 1653TIP3    H126374   2.859   0.567   5.181  1.5613  0.5802  1.2531
 1653TIP3    H226375   2.888   0.422   5.150 -0.0673  0.5737 -0.3711
 1654TIP3   OH226376   0.325   1.594  13.977  0.1390 -0.0460 -0.3650
 1654TIP3    H126377   0.230   1.585  13.971  0.1896 -0.2957 -0.8776
 1654TIP3    H226378   0.357   1.506  13.994  0.1588  0.3366  1.9194
 1655TIP3   OH226379   6.515   0.458  15.182 -0.9514  0.4421 -0.4624
 1655TIP3    H126380   6.463   0.530  15.220 -0.6678 -0.5376  2.0041
 1655TIP3    H226381   6.509   0.471  15.088 -2.4955  2.5781 -0.1513
 1656TIP3   OH226382   4.164   1.267   1.702  0.0545 -0.0204 -0.5346
 1656TIP3    H126383   4.250   1.246   1.664 -0.4734 -1.2778 -1.0764
 1656TIP3    H226384   4.137   1.188   1.747 -1.8218 -0.4836 -2.3085
 1657TIP3   OH226385   3.346   4.839  16.111 -0.1994 -0.3441 -0.5041
 1657TIP3    H126386   3.353   4.829  16.017 -0.3900 -0.6723 -0.4834
 1657TIP3    H226387   3.387   4.760  16.147 -2.1292 -1.3485 -0.3590
 1658TIP3   OH226388   4.489   2.646  17.020 -0.0644 -0.1789 -0.2550
 1658TIP3    H126389   4.439   2.724  17.042  2.1673  1.1803  0.2808
 1658TIP3    H226390   4.511   2.657  16.927  0.2034 -0.1947 -0.1950
 1659TIP3   OH226391   5.296   3.042   2.430 -0.0181  0.1277 -0.7766
 1659TIP3    H126392   5.215   3.045   2.481  0.0031 -0.9643 -0.6406
 1659TIP3    H226393   5.295   2.955   2.389  0.7699  0.3519 -1.2933
 1660TIP3   OH226394   0.885   2.728   3.200  0.5769 -0.8062  0.0801
 1660TIP3    H126395   0.886   2.703   3.292  0.5799 -0.9725  0.0340
 1660TIP3    H226396   0.901   2.823   3.201 -0.8218 -0.5460  0.3402
 1661TIP3   OH226397   4.387   3.868   2.971 -0.6216 -0.1205  0.3211
 1661TIP3    H126398   4.351   3.933   2.911  0.0354 -0.3136 -0.2938
 1661TIP3    H226399   4.382   3.909   3.057  0.5529  1.0921 -0.1539
 1662TIP3   OH226400   5.273   0.678   1.806 -0.0644  0.7436  0.3396
 1662TIP3    H126401   5.182   0.697   1.829 -0.1238 -0.7032  1.4477
 1662TIP3    H226402   5.267   0.607   1.742  0.2898  0.3682  0.7190
 1663TIP3   OH226403   4.431   0.553  11.136  0.1570  0.2278 -0.3241
 1663TIP3    H126404   4.435   0.638  11.092 -0.2960 -0.4942 -1.8468
 1663TIP3    H226405   4.521   0.519  11.129  1.1036  1.7255  2.8413
 1664TIP3   OH226406   1.552   3.852  13.597  0.6985  0.0083 -0.4533
 1664TIP3    H126407   1.599   3.931  13.569 -0.0106  0.2933 -0.8745
 1664TIP3    H226408   1.609   3.779  13.571  1.5361  0.3774  0.2730
 1665TIP3   OH226409   2.628   0.326  13.449  0.3107  0.2503  0.5041
 1665TIP3    H126410   2.609   0.283  13.532  1.5238 -0.8750  0.2391
 1665TIP3    H226411   2.713   0.368  13.462  0.4566  0.1676 -0.1291
 1666TIP3   OH226412   2.731   5.815   1.768  0.8877 -0.3877 -0.0875
 1666TIP3    H126413   2.667   5.802   1.698 -0.0227 -0.6134  0.7564
 1666TIP3    H226414   2.784   5.888   1.739 -0.6485  0.7367 -0.2037
 1667TIP3   OH226415   0.796   5.205   4.120 -0.0666  1.1297  0.0329
 1667TIP3    H126416   0.770   5.170   4.035  0.0551  0.4978  0.2562
 1667TIP3    H226417   0.720   5.192   4.176  0.2238  0.5921  0.3011
 1668TIP3   OH226418   6.270   3.403   1.192 -0.0540  0.0638 -0.5388
 1668TIP3    H126419   6.259   3.378   1.101 -1.3782  0.1866 -0.4375
 1668TIP3    H226420   6.229   3.489   1.199 -2.1616 -0.9590  0.6342
 1669TIP3   OH226421   2.734   0.877   3.243  0.2706 -0.2605 -0.2836
 1669TIP3    H126422   2.640   0.864   3.261  0.4800 -2.2603 -0.3901
 1669TIP3    H226423   2.768   0.917   3.324 -0.5975  0.1826 -0.1194
 1670TIP3   OH226424   6.612   0.163  12.833 -0.1265 -0.0325 -0.1987
 1670TIP3    H126425   6.607   0.246  12.880  0.5670  0.0619 -0.2817
 1670TIP3    H226426   6.701   0.132  12.848 -0.2495 -0.5601 -0.5152
 1671TIP3   OH226427   4.209   1.195   0.715  0.1309 -0.2613  0.0212
 1671TIP3    H126428   4.229   1.251   0.640 -1.9892 -1.0480 -1.2041
 1671TIP3    H226429   4.207   1.255   0.789  0.5439  0.8413 -0.8199
 1672TIP3   OH226430   0.208   0.122   5.775 -0.7174 -0.8766 -0.2813
 1672TIP3    H126431   0.295   0.099   5.809 -0.8418 -0.5296  0.2935
 1672TIP3    H226432   0.217   0.213   5.747 -0.9735 -0.7450  0.0594
 1673TIP3   OH226433   1.949   2.669  10.982 -0.1404  0.1949 -0.4604
 1673TIP3    H126434   1.923   2.694  10.893 -0.4178 -0.9057 -0.7024
 1673TIP3    H226435   1.873   2.624  11.017  0.4880 -0.6897 -0.2052
 1674TIP3   OH226436   0.336   4.619   2.989 -0.4916  0.1903  0.0311
 1674TIP3    H126437   0.423   4.619   2.950 -0.4279 -0.2639  0.1639
 1674TIP3    H226438   0.304   4.708   2.977 -0.5287  0.0241 -1.1916
 1675TIP3   OH226439   2.913   2.229  14.473 -0.3451  0.1083  0.2013
 1675TIP3    H126440   2.920   2.180  14.555  0.1354 -0.9753 -0.4578
 1675TIP3    H226441   2.897   2.319  14.500  1.6976  0.1416  1.5745
 1676TIP3   OH226442   6.688   5.328  12.947  0.0076 -0.2063 -0.0976
 1676TIP3    H126443   6.601   5.289  12.957 -1.5390  3.3123  2.4400
 1676TIP3    H226444   6.729   5.316  13.033  0.1397  2.0282  0.2068
 1677TIP3   OH226445   1.583   3.881  15.280 -0.5286  0.3360  0.6060
 1677TIP3    H126446   1.609   3.794  15.248 -0.0875  0.8508 -0.5119
 1677TIP3    H226447   1.659   3.912  15.329 -0.7276  0.0512  1.0991
 1678TIP3   OH226448   1.155   0.627  15.077  0.2563 -0.2056 -0.1392
 1678TIP3    H126449   1.079   0.673  15.043 -0.3167 -0.6493  0.5188
 1678TIP3    H226450   1.229   0.685  15.058 -0.2694  0.3273 -0.5860
 1679TIP3   OH226451   6.579   5.488   5.055 -0.1486 -0.6779  0.3485
 1679TIP3    H126452   6.549   5.397   5.049 -0.0566 -0.6348 -1.0900
 1679TIP3    H226453   6.585   5.518   4.964  2.0409  0.0395  0.6517
 1680TIP3   OH226454   2.962   4.692  14.089 -0.5282  0.4790 -0.0470
 1680TIP3    H126455   2.897   4.639  14.043  0.3448 -1.0540  0.4140
 1680TIP3    H226456   3.046   4.653  14.066 -0.0521 -0.5658  2.9846
 1681TIP3   OH226457   4.096   6.729   2.390  0.1786 -0.2497 -0.0605
 1681TIP3    H126458   4.023   6.677   2.424 -1.6218  0.8584 -1.9994
 1681TIP3    H226459   4.075   6.819   2.416  0.2888  0.2212 -1.5307
 1682TIP3   OH226460   3.100   4.263   0.965 -0.2313  0.2876 -0.0924
 1682TIP3    H126461   3.013   4.225   0.973  1.1008 -2.7485  1.8512
 1682TIP3    H226462   3.143   4.211   0.898  0.8803 -0.1028  0.8852
 1683TIP3   OH226463   2.443   3.363  10.845  0.0991 -0.2662 -0.3234
 1683TIP3    H126464   2.375   3.412  10.799 -1.1028 -0.8528  0.7747
 1683TIP3    H226465   2.472   3.297  10.782 -0.0119  0.2842 -0.9621
 1684TIP3   OH226466   1.396   2.663   1.817 -0.1380  0.3539 -0.5544
 1684TIP3    H126467   1.431   2.602   1.752  0.5131 -1.0612  1.0347
 1684TIP3    H226468   1.373   2.742   1.767  2.1108  0.0565 -2.1918
 1685TIP3   OH226469   5.701   3.577  16.971  0.2591  0.4398 -0.2520
 1685TIP3    H126470   5.756   3.589  17.048  1.0778  2.2407 -1.0452
 1685TIP3    H226471   5.644   3.504  16.993  0.9564  0.4370  1.7607
 1686TIP3   OH226472   1.963   6.117  15.982 -0.3260 -0.0958  0.5704
 1686TIP3    H126473   2.041   6.062  15.988  1.8539  2.5469 -1.0898
 1686TIP3    H226474   1.982   6.193  16.037 -1.1047  1.2147 -0.8898
 1687TIP3   OH226475   0.106   1.561  16.075 -0.1704 -0.0399 -0.8608
 1687TIP3    H126476   0.133   1.563  16.166  0.4270 -1.6579 -0.9689
 1687TIP3    H226477   0.182   1.595  16.027 -0.4357  0.6850 -0.7826
 1688TIP3   OH226478   1.763   3.485   3.505 -0.5266 -0.3413  0.6974
 1688TIP3    H126479   1.856   3.509   3.513 -0.1410 -1.0830 -0.9631
 1688TIP3    H226480   1.716   3.552   3.554  0.9322 -0.6240  2.6153
 1689TIP3   OH226481   2.947   5.091  11.962 -0.6907  0.7147  0.1559
 1689TIP3    H126482   3.001   5.126  11.892 -0.0748 -0.8377 -0.1866
 1689TIP3    H226483   2.998   5.106  12.042  0.5951 -1.2761 -0.2289
 1690TIP3   OH226484   1.305   0.418   5.917 -0.4415 -0.0848  0.6420
 1690TIP3    H126485   1.399   0.424   5.936 -0.5437 -3.2379  2.8565
 1690TIP3    H226486   1.288   0.324   5.908 -2.9899  0.4911 -2.5512
 1691TIP3   OH226487   0.745   5.057   5.601  0.4769 -0.5569 -0.5498
 1691TIP3    H126488   0.754   5.050   5.696  1.0904 -3.6030 -0.7291
 1691TIP3    H226489   0.667   5.110   5.588  1.0471  0.9576  1.6028
 1692TIP3   OH226490   1.609   4.146  14.619  0.0051  0.2649  0.5039
 1692TIP3    H126491   1.690   4.130  14.571 -0.0448 -1.2239  0.8564
 1692TIP3    H226492   1.600   4.070  14.677 -1.7016  0.3127  0.3722
 1693TIP3   OH226493   0.549   3.576  15.841  0.2804 -0.9949  0.2427
 1693TIP3    H126494   0.635   3.567  15.881  0.3982 -0.8516  0.0249
 1693TIP3    H226495   0.532   3.491  15.799 -0.2364 -1.4597  1.3490
 1694TIP3   OH226496   1.209   5.452   5.402  0.1148 -0.2900 -0.5293
 1694TIP3    H126497   1.128   5.407   5.379 -0.0618 -1.1871  1.6152
 1694TIP3    H226498   1.233   5.417   5.488  1.7210  1.3900 -0.2111
 1695TIP3   OH226499   3.027   5.523   2.530 -0.0339 -0.1555 -0.2001
 1695TIP3    H126500   3.093   5.519   2.461  0.3388 -0.9259  0.1827
 1695TIP3    H226501   2.958   5.463   2.501 -1.2237  1.6066 -1.2229
 1696TIP3   OH226502   2.449   3.476  14.224  0.2608 -0.2405  0.1654
 1696TIP3    H126503   2.456   3.394  14.272 -0.0556  0.1295  0.8638
 1696TIP3    H226504   2.513   3.534  14.266  1.7505 -0.6533 -1.4597
 1697TIP3   OH226505   5.603   4.058  14.704  0.3453 -0.9867  0.0285
 1697TIP3    H126506   5.699   4.057  14.703  0.4588  1.8284 -1.2234
 1697TIP3    H226507   5.581   4.151  14.715 -2.2325 -1.4461 -0.7961
 1698TIP3   OH226508   2.429   2.285   2.618  0.5127 -0.0705 -0.0422
 1698TIP3    H126509   2.423   2.252   2.528 -1.4225 -2.1083  0.7426
 1698TIP3    H226510   2.367   2.358   2.620 -0.2552 -0.7015 -0.1378
 1699TIP3   OH226511   3.371   2.673  11.693  0.1586  0.3313  0.3646
 1699TIP3    H126512   3.291   2.712  11.659  0.1375 -0.3330 -0.3733
 1699TIP3    H226513   3.442   2.718  11.647  0.2596  1.3331  1.4421
 1700TIP3   OH226514   3.579   6.398   0.789  0.7451  0.3159  0.0498
 1700TIP3    H126515   3.566   6.361   0.702  0.0411 -0.0192  0.2855
 1700TIP3    H226516   3.646   6.343   0.829 -1.6649 -2.0866  1.1267
 1701TIP3   OH226517   2.585   2.909  13.062 -0.7697 -0.7191  0.0330
 1701TIP3    H126518   2.531   2.894  12.984 -2.7362  1.6466  0.8026
 1701TIP3    H226519   2.562   2.998  13.089  3.4107  0.3821  0.5814
 1702TIP3   OH226520   2.465   4.894  11.368  0.2946 -0.4405 -0.0865
 1702TIP3    H126521   2.546   4.876  11.321 -0.7151  0.4205 -2.3095
 1702TIP3    H226522   2.487   4.963  11.430  1.0400  0.6216 -1.4846
 1703TIP3   OH226523   4.072   3.875  12.695 -0.0558 -0.5623  0.0896
 1703TIP3    H126524   4.105   3.865  12.785  1.7592  1.7165 -0.2284
 1703TIP3    H226525   4.106   3.799  12.649  4.2101  1.1057  0.0465
 1704TIP3   OH226526   1.349   0.880   3.955 -0.1706 -0.5356 -0.5002
 1704TIP3    H126527   1.420   0.830   3.996  0.0812  0.0126 -0.2617
 1704TIP3    H226528   1.365   0.971   3.980 -2.3957 -0.6427  1.7267
 1705TIP3   OH226529   1.057   5.413  12.264 -0.1216 -0.1931 -0.3464
 1705TIP3    H126530   1.028   5.400  12.174 -2.2751 -1.7914  0.4747
 1705TIP3    H226531   0.988   5.467  12.303  1.2379  1.2418  0.1463
 1706TIP3   OH226532   6.077   4.175   0.645 -0.2561 -0.0846  0.4188
 1706TIP3    H126533   6.029   4.138   0.718  1.8094  0.9664  2.4387
 1706TIP3    H226534   6.041   4.263   0.635 -0.7208 -0.3204 -0.0442
 1707TIP3   OH226535   1.989   3.095  13.794  0.0263 -0.1672 -0.5849
 1707TIP3    H126536   2.044   3.149  13.737  1.8037 -1.8762 -0.5656
 1707TIP3    H226537   2.027   3.007  13.789  0.0388 -0.4961  2.9149
 1708TIP3   OH226538   1.751   0.844  11.258 -1.0314 -0.2192  0.4881
 1708TIP3    H126539   1.728   0.933  11.230 -0.7597  0.1216  1.3379
 1708TIP3    H226540   1.669   0.795  11.248 -1.4337  0.3493  0.9156
 1709TIP3   OH226541   2.395   3.581  15.293 -0.3768  0.1692 -0.7130
 1709TIP3    H126542   2.386   3.675  15.306 -1.2010 -0.1287  1.1382
 1709TIP3    H226543   2.466   3.555  15.352 -1.1290 -0.5678 -0.1047
 1710TIP3   OH226544   5.541   3.239  16.691  0.3119 -0.4959  0.3419
 1710TIP3    H126545   5.475   3.194  16.639 -0.0333  0.3453  0.0421
 1710TIP3    H226546   5.624   3.201  16.662 -0.0213 -1.5035  0.6684
 1711TIP3   OH226547   2.283   1.160   3.809  0.0906 -0.1576  0.3991
 1711TIP3    H126548   2.204   1.128   3.851  0.9661 -0.3407  1.9832
 1711TIP3    H226549   2.255   1.235   3.757 -0.8678  0.8797  2.3259
 1712TIP3   OH226550   0.400   6.151   5.624 -0.9630 -0.4393  0.1603
 1712TIP3    H126551   0.458   6.226   5.634  0.5049 -1.4856 -0.3094
 1712TIP3    H226552   0.324   6.172   5.680 -0.8660  1.6325 -0.4110
 1713TIP3   OH226553   1.953   1.129  17.074 -0.2340 -0.1527  0.6399
 1713TIP3    H126554   1.951   1.197  17.006  0.3959 -2.0044 -1.3553
 1713TIP3    H226555   2.016   1.161  17.138  1.2688  0.4729 -1.0469
 1714TIP3   OH226556   4.595   6.626   2.244  0.3688 -0.3564  0.0155
 1714TIP3    H126557   4.600   6.660   2.155  0.2436  0.1495  0.1972
 1714TIP3    H226558   4.502   6.634   2.267  0.0775 -2.1289 -0.4343
 1715TIP3   OH226559   5.454   4.944   6.004  0.5709 -0.0306 -0.2850
 1715TIP3    H126560   5.532   4.889   6.010  0.4451 -0.1032  0.8699
 1715TIP3    H226561   5.408   4.930   6.087 -0.8173 -0.1973 -1.0543
 1716TIP3   OH226562   5.710   4.042   3.439 -0.0226 -0.3038 -0.2130
 1716TIP3    H126563   5.615   4.042   3.430  0.0177 -1.8756 -1.0190
 1716TIP3    H226564   5.737   4.129   3.410 -1.1884  0.0986 -0.1433
 1717TIP3   OH226565   6.140   3.784  11.951 -0.1225  0.0992 -0.2586
 1717TIP3    H126566   6.176   3.868  11.980  1.1516 -1.3176  2.7534
 1717TIP3    H226567   6.209   3.746  11.897 -0.0740  0.3871 -0.3979
 1718TIP3   OH226568   4.681   0.606  15.898  0.0297  0.2053 -0.6437
 1718TIP3    H126569   4.602   0.639  15.857 -0.4925  2.0655  1.6242
 1718TIP3    H226570   4.650   0.557  15.974  1.0246  0.3975 -0.0969
 1719TIP3   OH226571   2.684   4.017   4.207 -0.2661  0.3487 -0.6904
 1719TIP3    H126572   2.772   4.053   4.197  0.9605 -1.7605  1.2607
 1719TIP3    H226573   2.639   4.078   4.265  1.2341 -0.2999  1.3012
 1720TIP3   OH226574   1.779   4.559   3.652  0.0080  0.4962 -0.1155
 1720TIP3    H126575   1.746   4.498   3.718  0.7437 -1.0055 -1.0908
 1720TIP3    H226576   1.810   4.634   3.702 -0.9662  0.1172  1.1151
 1721TIP3   OH226577   4.896   2.497   1.623  0.3390 -0.4856  0.6405
 1721TIP3    H126578   4.952   2.479   1.547 -0.1878 -1.2833  0.4246
 1721TIP3    H226579   4.836   2.423   1.626 -1.1994  0.6892  0.4135
 1722TIP3   OH226580   3.891   5.637   5.915  0.9752  0.3978  0.5933
 1722TIP3    H126581   3.834   5.709   5.943  0.4984  1.2305 -2.1841
 1722TIP3    H226582   3.834   5.561   5.910  0.6331  0.6918  0.0262
 1723TIP3   OH226583   4.454   5.282   1.451  0.0699 -0.6553  0.4266
 1723TIP3    H126584   4.446   5.210   1.388  1.1538 -0.7844  0.4240
 1723TIP3    H226585   4.377   5.273   1.507  0.3870 -2.0480  0.6671
 1724TIP3   OH226586   0.987   6.468  14.001  0.0146  0.3835 -0.4386
 1724TIP3    H126587   0.896   6.493  13.988 -0.1082  0.6024  0.7233
 1724TIP3    H226588   1.026   6.543  14.047 -0.2573 -1.2768  2.7722
 1725TIP3   OH226589   5.225   4.852  12.905  0.5930 -0.3726  0.6813
 1725TIP3    H126590   5.189   4.859  12.993 -1.0378  1.1184 -0.0578
 1725TIP3    H226591   5.236   4.942  12.876 -1.1401 -0.7896 -1.5044
 1726TIP3   OH226592   1.387   4.465  13.708  0.1481  0.0444  0.3874
 1726TIP3    H126593   1.312   4.470  13.649  0.1076  1.8828  0.5482
 1726TIP3    H226594   1.375   4.537  13.769  1.2938 -0.5416  1.3520
 1727TIP3   OH226595   5.368   6.015  15.934 -0.5969 -0.6181 -0.3069
 1727TIP3    H126596   5.292   5.959  15.947  0.0813 -1.4750  0.0973
 1727TIP3    H226597   5.352   6.091  15.989 -0.1154 -1.8635  1.7011
 1728TIP3   OH226598   2.695   3.469   4.265  0.6882  0.2680  0.2251
 1728TIP3    H126599   2.635   3.420   4.321 -0.5699 -0.5552 -1.7360
 1728TIP3    H226600   2.677   3.561   4.286 -1.1617  0.0338 -0.1376
 1729TIP3   OH226601   4.893   5.901   0.496  0.2295  0.0576 -0.1003
 1729TIP3    H126602   4.945   5.918   0.574  1.4391  1.2694 -1.1264
 1729TIP3    H226603   4.887   5.985   0.451  0.6219 -0.8334 -1.9393
 1730TIP3   OH226604   5.678   0.725  14.149 -0.3350  0.4591  0.1460
 1730TIP3    H126605   5.691   0.660  14.219 -0.0928  1.7928  1.3754
 1730TIP3    H226606   5.766   0.759  14.132 -0.3880  0.1165 -0.8669
 1731TIP3   OH226607   0.358   3.623   3.442  0.4244  0.0036 -0.3859
 1731TIP3    H126608   0.433   3.668   3.401  0.5307 -0.8351 -1.1519
 1731TIP3    H226609   0.289   3.690   3.444  1.1558  0.7684  0.2606
 1732TIP3   OH226610   2.867   0.402  16.872 -0.0758  0.3146 -0.3136
 1732TIP3    H126611   2.863   0.478  16.814  1.0059  0.7101  0.1032
 1732TIP3    H226612   2.937   0.348  16.836  0.4992  0.4859  0.5251
 1733TIP3   OH226613   5.521   1.845  12.707 -0.0655 -0.2710 -0.1258
 1733TIP3    H126614   5.479   1.914  12.757  1.2483  0.1979  0.3590
 1733TIP3    H226615   5.458   1.823  12.639 -0.3810  1.6433 -0.4967
 1734TIP3   OH226616   5.325   3.456  13.561 -0.3225 -0.2484 -0.4525
 1734TIP3    H126617   5.321   3.500  13.645  1.5220 -0.1869 -0.3574
 1734TIP3    H226618   5.308   3.364  13.581 -0.4935 -0.1412 -0.1011
 1735TIP3   OH226619   5.126   5.003  15.064 -0.3889  0.0014  0.4138
 1735TIP3    H126620   5.214   4.981  15.096  0.6851  0.6591 -1.8597
 1735TIP3    H226621   5.112   5.093  15.093  0.1566  0.2669 -0.1421
 1736TIP3   OH226622   0.114   4.162   6.515  0.1434  0.2555 -0.3926
 1736TIP3    H126623   0.061   4.105   6.459  0.8959 -0.8417 -0.0123
 1736TIP3    H226624   0.085   4.250   6.493 -0.3102 -0.2117 -1.7575
 1737TIP3   OH226625   6.145   2.012   1.802  0.1847  0.1068  0.4013
 1737TIP3    H126626   6.213   1.972   1.856 -0.3606 -0.4827  0.6704
 1737TIP3    H226627   6.190   2.081   1.753  1.0970 -0.6958  0.0922
 1738TIP3   OH226628   4.376   4.168   3.855 -0.3808 -0.3345  0.1995
 1738TIP3    H126629   4.449   4.130   3.905 -1.8353 -2.7069  0.6864
 1738TIP3    H226630   4.409   4.253   3.826  1.6474 -0.1713  2.5804
 1739TIP3   OH226631   1.631   6.147  13.062 -0.5171 -0.3413 -0.3470
 1739TIP3    H126632   1.559   6.126  13.003  0.0006 -0.1868 -1.0501
 1739TIP3    H226633   1.658   6.063  13.099 -1.2657 -0.3566  0.1653
 1740TIP3   OH226634   4.114   2.474  11.283 -0.9662  0.1509 -0.3463
 1740TIP3    H126635   4.043   2.538  11.281  0.3868  1.7569  0.0854
 1740TIP3    H226636   4.181   2.514  11.339 -0.5533 -2.2521  1.0321
 1741TIP3   OH226637   4.691   6.247  16.685  0.0915  0.8339 -0.5627
 1741TIP3    H126638   4.743   6.182  16.732 -0.3449 -0.0409 -1.2612
 1741TIP3    H226639   4.604   6.208  16.677 -0.4096  1.8546 -0.2895
 1742TIP3   OH226640   0.463   5.572   5.385 -0.4731  0.4834 -0.2198
 1742TIP3    H126641   0.387   5.524   5.353  0.3018  0.6619 -2.4896
 1742TIP3    H226642   0.430   5.620   5.462 -2.5928  0.3980 -1.0118
 1743TIP3   OH226643   5.769   0.854   2.156 -0.1938  0.0514 -0.1623
 1743TIP3    H126644   5.844   0.839   2.099 -0.2008  1.0255 -0.4616
 1743TIP3    H226645   5.777   0.789   2.225 -1.2712 -2.5129 -2.3036
 1744TIP3   OH226646   0.654   1.203   5.630 -0.3570 -0.2463 -0.1051
 1744TIP3    H126647   0.566   1.217   5.593 -0.8076  0.4439  1.1728
 1744TIP3    H226648   0.702   1.282   5.608 -0.2486 -0.3467 -0.2345
 1745TIP3   OH226649   5.417   5.570   0.507  0.6156  0.4125  0.0458
 1745TIP3    H126650   5.490   5.580   0.446  1.1559 -0.3963  0.5447
 1745TIP3    H226651   5.422   5.648   0.563  1.9385 -0.2786  0.9390
 1746TIP3   OH226652   5.326   0.235  14.659  0.5866 -0.5160 -0.5539
 1746TIP3    H126653   5.254   0.242  14.597  0.8048 -1.0779 -0.8757
 1746TIP3    H226654   5.288   0.262  14.743 -0.5726 -2.6984 -0.3114
 1747TIP3   OH226655   5.532   5.694   1.180 -0.9041 -0.3114 -0.0479
 1747TIP3    H126656   5.552   5.752   1.106  2.8575  2.4324  2.7070
 1747TIP3    H226657   5.464   5.741   1.228  0.2705  0.5751  0.8005
 1748TIP3   OH226658   6.234   5.662   1.977  0.0833  0.0316 -0.0583
 1748TIP3    H126659   6.209   5.571   1.964 -0.1441  0.0525  0.2257
 1748TIP3    H226660   6.307   5.658   2.039 -0.2853  0.0771  0.3823
 1749TIP3   OH226661   0.846   6.040  17.132  0.4802  0.8987 -0.2674
 1749TIP3    H126662   0.914   6.064  17.195  1.2504 -1.6825 -0.0043
 1749TIP3    H226663   0.779   5.995  17.184 -0.5238  1.7142 -0.8148
 1750TIP3   OH226664   2.099   2.963   3.922 -0.2134 -0.5222  0.2787
 1750TIP3    H126665   2.098   2.947   3.827  0.6185 -0.8812  0.3204
 1750TIP3    H226666   2.114   3.057   3.930  0.3062 -0.5781  0.0468
 1751TIP3   OH226667   1.388   2.279  10.867 -0.5476  0.0087 -0.3985
 1751TIP3    H126668   1.377   2.351  10.930 -2.0611 -2.1590  1.9985
 1751TIP3    H226669   1.309   2.283  10.813 -1.2066 -0.5277  0.5040
 1752TIP3   OH226670   0.444   3.209   4.325  0.8419 -0.1242  0.2999
 1752TIP3    H126671   0.477   3.299   4.331  0.6420 -0.0025 -0.4245
 1752TIP3    H226672   0.449   3.187   4.233 -0.2570 -0.4221  0.2919
 1753TIP3   OH226673   0.466   2.512  11.152  0.1319 -0.3779  0.1045
 1753TIP3    H126674   0.375   2.539  11.167  1.4509  5.2092  0.4687
 1753TIP3    H226675   0.475   2.508  11.057 -0.4738 -0.9167  0.0667
 1754TIP3   OH226676   4.302   6.057   6.170 -0.3554  0.0386 -0.0328
 1754TIP3    H126677   4.303   6.061   6.266 -2.0927 -0.4963  0.0296
 1754TIP3    H226678   4.227   6.003   6.149 -1.7029  2.3915 -1.7650
 1755TIP3   OH226679   2.155   1.912  11.127  0.3702 -0.8748 -0.0949
 1755TIP3    H126680   2.104   1.991  11.140  1.4018 -0.4435  1.6419
 1755TIP3    H226681   2.239   1.943  11.093  1.2254 -1.0645  1.7640
 1756TIP3   OH226682   2.130   2.542   0.647 -0.3640  0.2351 -0.1808
 1756TIP3    H126683   2.199   2.514   0.587  1.9064  1.4416  1.6877
 1756TIP3    H226684   2.087   2.615   0.602  0.0252 -0.0809 -1.0896
 1757TIP3   OH226685   4.788   0.244  14.231 -0.4068 -0.0052  0.1370
 1757TIP3    H126686   4.803   0.316  14.170  0.0559  0.3344  0.6420
 1757TIP3    H226687   4.785   0.166  14.176  0.3957  0.2453 -0.2764
 1758TIP3   OH226688   3.840   5.683  14.410  0.1014  0.1359  0.6316
 1758TIP3    H126689   3.866   5.619  14.477  0.5988  0.9214  1.2039
 1758TIP3    H226690   3.919   5.699  14.360  0.0786  0.6029  0.7439
 1759TIP3   OH226691   2.833   4.058   3.232 -0.2101 -0.0673  0.8523
 1759TIP3    H126692   2.768   4.032   3.167 -1.3847 -1.4571  2.4596
 1759TIP3    H226693   2.793   4.132   3.278  1.1623  1.7645 -0.7384
 1760TIP3   OH226694   3.805   3.671   5.591 -0.2698 -0.1036  0.0506
 1760TIP3    H126695   3.839   3.583   5.576 -2.4532 -1.3546  1.7541
 1760TIP3    H226696   3.742   3.685   5.521 -1.4875 -0.8513  0.9496
 1761TIP3   OH226697   5.663   1.295  11.567 -0.4656  0.1983 -0.0243
 1761TIP3    H126698   5.599   1.267  11.632 -0.8411  1.3565  0.1273
 1761TIP3    H226699   5.612   1.339  11.499  0.2266  2.0698  0.6090
 1762TIP3   OH226700   5.004   3.562   2.458  0.2039  0.2484 -0.0919
 1762TIP3    H126701   4.917   3.579   2.496 -0.2071 -2.7540  0.6042
 1762TIP3    H226702   5.060   3.546   2.533  1.3329  1.8953 -0.5547
 1763TIP3   OH226703   2.246   0.100  13.126  0.4668 -0.3496 -0.7805
 1763TIP3    H126704   2.268   0.190  13.102  2.1088 -0.4632  0.1652
 1763TIP3    H226705   2.237   0.102  13.221  0.2513 -1.1489 -0.7781
 1764TIP3   OH226706   1.366   1.375   2.013  0.0290 -0.4521 -0.4718
 1764TIP3    H126707   1.415   1.383   2.095  0.7760  0.8151 -1.0004
 1764TIP3    H226708   1.428   1.336   1.952  0.8720  2.1690 -1.4489
 1765TIP3   OH226709   1.929   2.987   3.519 -0.2796 -0.7707 -1.0151
 1765TIP3    H126710   1.892   2.942   3.443 -0.8667  2.4076 -2.8035
 1765TIP3    H226711   1.918   3.080   3.499  0.0951  0.2315  2.7479
 1766TIP3   OH226712   1.447   3.867   3.482 -0.2919  0.0011  0.2675
 1766TIP3    H126713   1.486   3.904   3.561  1.0856 -0.0897 -0.3531
 1766TIP3    H226714   1.353   3.867   3.501  0.0297 -0.5999  2.1618
 1767TIP3   OH226715   6.039   2.384   2.300  0.4531 -0.2995 -0.0249
 1767TIP3    H126716   6.098   2.422   2.365  0.3605  0.2142 -0.2365
 1767TIP3    H226717   6.096   2.356   2.229  0.3371  1.8143 -1.0437
 1768TIP3   OH226718   0.974   5.505   3.169  0.6438  0.3328  0.1503
 1768TIP3    H126719   1.027   5.426   3.176 -1.3595 -1.0817 -0.0275
 1768TIP3    H226720   1.038   5.575   3.153  2.3882 -1.3980 -0.8346
 1769TIP3   OH226721   2.727   5.740   0.194  0.7514  0.2556 -0.3955
 1769TIP3    H126722   2.725   5.824   0.240 -1.8731 -0.3992  0.8851
 1769TIP3    H226723   2.797   5.749   0.129 -0.4120  3.9917 -1.3609
 1770TIP3   OH226724   4.427   4.886  15.158 -0.3540  0.6254  0.0488
 1770TIP3    H126725   4.408   4.928  15.243  0.5572  0.9157  0.1220
 1770TIP3    H226726   4.457   4.958  15.103  0.9641  0.1349  0.0865
 1771TIP3   OH226727   2.792   2.704  13.016 -0.0840  0.7250 -0.5851
 1771TIP3    H126728   2.866   2.682  13.073  0.2719  0.9580 -0.9482
 1771TIP3    H226729   2.747   2.776  13.060  0.6551  1.4471 -0.9661
 1772TIP3   OH226730   0.283   5.267   4.409  0.0566  0.3947  0.5914
 1772TIP3    H126731   0.362   5.316   4.433  0.0558  0.1906  1.0214
 1772TIP3    H226732   0.258   5.303   4.324  2.4390 -1.7161 -1.1778
 1773TIP3   OH226733   5.768   3.700  14.605  0.3137  0.4989 -0.3899
 1773TIP3    H126734   5.683   3.743  14.602 -0.2919 -0.6333 -0.0039
 1773TIP3    H226735   5.802   3.719  14.692 -1.1029 -1.8328  0.7902
 1774TIP3   OH226736   6.155   3.593   4.512  0.7296 -0.0958 -0.2900
 1774TIP3    H126737   6.071   3.592   4.466 -0.1858 -0.1450  1.3076
 1774TIP3    H226738   6.139   3.646   4.590  1.2507 -2.6661  1.6961
 1775TIP3   OH226739   0.949   0.061   0.686  0.0500  0.1958 -0.5550
 1775TIP3    H126740   0.952  -0.031   0.712  0.0044 -0.1748 -1.8023
 1775TIP3    H226741   0.878   0.066   0.622 -0.1747  1.1742 -0.2474
 1776TIP3   OH226742   1.183   2.821  15.181 -0.7889 -0.0634 -0.1591
 1776TIP3    H126743   1.264   2.779  15.211  1.4111  1.9044 -2.9221
 1776TIP3    H226744   1.130   2.748  15.149  2.4248 -1.1541 -3.7770
 1777TIP3   OH226745   2.141   5.643   0.869 -0.6186 -1.0156 -0.6299
 1777TIP3    H126746   2.189   5.696   0.932 -0.4010 -0.9689 -0.8336
 1777TIP3    H226747   2.050   5.670   0.878 -0.3533  0.2821 -1.5983
 1778TIP3   OH226748   4.408   5.919   3.051  0.2515 -0.2789 -0.0776
 1778TIP3    H126749   4.361   6.003   3.046  0.7723  0.0739  0.6697
 1778TIP3    H226750   4.398   5.892   3.142 -0.6191 -1.4647 -0.5096
 1779TIP3   OH226751   4.600   4.415   1.329 -0.6990  0.1609 -0.3080
 1779TIP3    H126752   4.506   4.413   1.347 -0.8921  1.1248 -1.1311
 1779TIP3    H226753   4.641   4.380   1.408 -1.6930  0.8861  0.5429
 1780TIP3   OH226754   5.740   6.575  12.650 -0.5829 -0.3848 -0.3369
 1780TIP3    H126755   5.763   6.666  12.666  0.0183 -0.3747 -1.1717
 1780TIP3    H226756   5.795   6.525  12.710 -1.3611 -0.1793  0.5613
 1781TIP3   OH226757   6.377   4.001   4.486  0.2866 -0.8359  0.2552
 1781TIP3    H126758   6.365   3.926   4.429  1.0941 -1.1621  0.4957
 1781TIP3    H226759   6.356   4.077   4.431  1.4017 -1.1187 -0.6112
 1782TIP3   OH226760   2.977   0.136  15.932  0.6273  0.0330 -0.3698
 1782TIP3    H126761   3.054   0.190  15.914  0.2028  0.3950 -1.1348
 1782TIP3    H226762   2.912   0.197  15.967  0.3680 -0.0862 -0.6323
 1783TIP3   OH226763   4.181   1.610  11.842 -0.2086 -0.4390  0.4254
 1783TIP3    H126764   4.256   1.657  11.804 -0.9677 -0.1887 -0.8189
 1783TIP3    H226765   4.209   1.589  11.931  0.8375  0.7937  0.4243
 1784TIP3   OH226766   0.029   5.654   5.327 -0.1231 -0.0652  0.2567
 1784TIP3    H126767  -0.064   5.651   5.304 -0.2303  1.1488  0.4993
 1784TIP3    H226768   0.072   5.694   5.252  0.1538 -0.2656  0.3067
 1785TIP3   OH226769   2.122   1.962   1.352  0.5331 -0.5369  0.1414
 1785TIP3    H126770   2.111   2.052   1.320  0.4627  0.0671  1.7536
 1785TIP3    H226771   2.047   1.915   1.318  0.8035 -0.1050 -1.1001
 1786TIP3   OH226772   6.554   2.708  11.248  0.3626  0.2487 -0.3941
 1786TIP3    H126773   6.465   2.742  11.254 -1.2136 -3.6273  1.7828
 1786TIP3    H226774   6.600   2.748  11.322  0.1224  1.3939 -0.8460
 1787TIP3   OH226775   5.738   2.069  15.543  0.0932  0.0771 -0.3087
 1787TIP3    H126776   5.833   2.068  15.552  0.2565 -1.9166 -1.5621
 1787TIP3    H226777   5.707   2.008  15.610 -0.3585  0.9397  0.2923
 1788TIP3   OH226778   0.827   1.902  16.974 -0.3131  0.4398  0.1761
 1788TIP3    H126779   0.827   1.813  17.008  0.6551  0.0848 -0.7157
 1788TIP3    H226780   0.889   1.950  17.029 -4.6181  2.1228  4.3207
 1789TIP3   OH226781   0.644   4.708  14.667  0.2779 -0.1985 -0.1836
 1789TIP3    H126782   0.592   4.628  14.667 -1.4783  0.9044 -0.4302
 1789TIP3    H226783   0.622   4.752  14.585  0.7672  0.8227  0.2080
 1790TIP3   OH226784   5.052   2.639  16.812  1.1005 -0.2879  0.6344
 1790TIP3    H126785   5.064   2.732  16.796  2.4069 -0.5947 -0.3048
 1790TIP3    H226786   4.990   2.610  16.744  0.6442 -0.1025  0.9671
 1791TIP3   OH226787   3.789   4.310  15.359 -0.3782 -0.3538 -0.0972
 1791TIP3    H126788   3.724   4.244  15.385 -1.0077 -0.7474 -2.4761
 1791TIP3    H226789   3.737   4.384  15.329  0.2659 -0.3585 -1.2640
 1792TIP3   OH226790   4.811   5.754  12.102 -0.4353  0.0207  0.5323
 1792TIP3    H126791   4.811   5.834  12.049 -0.9620  0.0974  0.6485
 1792TIP3    H226792   4.720   5.742  12.129 -0.7283 -1.5777 -0.9519
 1793TIP3   OH226793   4.997   6.416  11.383  0.2681  0.3742  0.0838
 1793TIP3    H126794   5.028   6.467  11.458 -0.0151  3.2921 -1.6466
 1793TIP3    H226795   4.995   6.326  11.415  1.3542  1.3152  3.1691
 1794TIP3   OH226796   6.724   5.183  16.942  0.4798 -0.3575 -0.5527
 1794TIP3    H126797   6.671   5.240  16.886  1.3892 -0.4535 -1.5376
 1794TIP3    H226798   6.695   5.204  17.031 -0.9343 -0.1403 -1.0345
 1795TIP3   OH226799   3.146   2.932   4.981 -0.0998  0.0802  0.4472
 1795TIP3    H126800   3.207   2.998   5.014 -0.5110  1.6591 -1.7162
 1795TIP3    H226801   3.085   2.981   4.926  0.1362 -2.1824 -2.0625
 1796TIP3   OH226802   1.466   5.703   0.269  0.0724  0.1603  1.0968
 1796TIP3    H126803   1.423   5.710   0.354 -1.1711  1.6293  0.3947
 1796TIP3    H226804   1.396   5.675   0.210  0.6254  0.3430  0.3513
 1797TIP3   OH226805   6.520   3.348  16.833 -0.3404 -0.1300  0.4031
 1797TIP3    H126806   6.527   3.296  16.753  0.6036  1.2389 -0.4501
 1797TIP3    H226807   6.542   3.287  16.903 -1.9892 -1.5793 -0.2415
 1798TIP3   OH226808   5.049   0.371   4.099  0.5892 -0.3513 -0.0978
 1798TIP3    H126809   4.980   0.327   4.149  0.2333  0.2221 -0.0768
 1798TIP3    H226810   5.015   0.459   4.083  1.5509  0.1209  0.3918
 1799TIP3   OH226811   1.173   4.452   5.755  0.3288  0.2175  0.3295
 1799TIP3    H126812   1.110   4.502   5.807  0.4595 -0.2809  0.9885
 1799TIP3    H226813   1.119   4.397   5.698  0.1687  0.1277  0.5650
 1800TIP3   OH226814   1.375   4.253   1.918 -0.3087  0.4918  0.4006
 1800TIP3    H126815   1.376   4.325   1.982  1.7785  0.4312  0.5251
 1800TIP3    H226816   1.345   4.293   1.837  1.5591  1.7653  0.2693
 1801TIP3   OH226817   0.897   4.391   4.016  0.4156 -1.2641 -0.1101
 1801TIP3    H126818   0.963   4.377   4.084 -0.2409 -0.8905  0.6309
 1801TIP3    H226819   0.942   4.438   3.947  1.7009 -3.5954 -0.9827
 1802TIP3   OH226820   2.342   4.851   4.278  0.7061  0.1721 -0.0452
 1802TIP3    H126821   2.252   4.823   4.258  1.7919 -1.7322 -2.9355
 1802TIP3    H226822   2.366   4.799   4.355 -1.0354  1.7118  1.6320
 1803TIP3   OH226823   6.341   0.574  14.137 -0.8687  0.4940 -0.3450
 1803TIP3    H126824   6.395   0.532  14.070  1.1877 -0.1830  1.6003
 1803TIP3    H226825   6.365   0.667  14.131 -0.5646  0.4123 -0.4257
 1804TIP3   OH226826   3.078   0.783   0.072 -0.4951  0.4677  0.8274
 1804TIP3    H126827   3.061   0.820  -0.015 -1.4614  0.0783  0.8377
 1804TIP3    H226828   2.995   0.744   0.098 -0.0395  0.0279  1.6648
 1805TIP3   OH226829   5.496   4.868   1.574  0.3263 -0.1085  0.8420
 1805TIP3    H126830   5.408   4.904   1.568  0.2523 -0.3044  0.7509
 1805TIP3    H226831   5.487   4.776   1.547  1.0868  0.6264 -2.2260
 1806TIP3   OH226832   6.363   4.930  16.814 -0.6198  0.2613  0.3140
 1806TIP3    H126833   6.287   4.981  16.788 -1.0997  0.1548  1.4388
 1806TIP3    H226834   6.411   4.915  16.733  0.0038  3.1788  0.0322
 1807TIP3   OH226835   6.648   0.367   3.997 -0.2827 -0.5364 -0.1007
 1807TIP3    H126836   6.602   0.365   4.081 -1.7170  0.2651 -0.8228
 1807TIP3    H226837   6.605   0.437   3.947  1.2582 -0.2468 -1.1127
 1808TIP3   OH226838   6.696   4.377  16.607  0.6133  0.0900 -0.0778
 1808TIP3    H126839   6.765   4.363  16.672  0.4302 -1.7323 -0.2458
 1808TIP3    H226840   6.616   4.347  16.650  0.6707 -2.3118 -1.5159
 1809TIP3   OH226841   2.293   1.286  14.604 -0.2228 -0.3806 -0.1045
 1809TIP3    H126842   2.349   1.363  14.606  1.0082 -1.2565  1.2817
 1809TIP3    H226843   2.228   1.305  14.536  0.7544  1.3600 -0.6099
 1810TIP3   OH226844   0.157   4.688   3.743 -0.2129 -0.5026  0.3158
 1810TIP3    H126845   0.075   4.645   3.767 -0.7116 -0.1093 -0.6343
 1810TIP3    H226846   0.164   4.675   3.648 -0.1909  1.1813  0.0583
 1811TIP3   OH226847   0.695   1.662  16.738  0.5626  0.3618 -0.0078
 1811TIP3    H126848   0.654   1.743  16.769  1.3340  0.4899  0.7208
 1811TIP3    H226849   0.788   1.673  16.759  1.3024  0.7744 -3.0378
 1812TIP3   OH226850   4.838   2.362  12.828 -0.3516 -0.3011  0.1510
 1812TIP3    H126851   4.822   2.333  12.738  2.5438  0.5502 -0.7630
 1812TIP3    H226852   4.879   2.287  12.870  0.2355 -0.0357  0.0722
 1813TIP3   OH226853   6.600   5.098   0.060  0.4713 -0.2315  0.4412
 1813TIP3    H126854   6.672   5.161   0.051  1.7733 -1.5573  1.1061
 1813TIP3    H226855   6.531   5.132   0.003  2.0446  0.4863 -1.1429
 1814TIP3   OH226856   3.226   3.660  11.198 -0.4529  0.3685  0.5876
 1814TIP3    H126857   3.280   3.652  11.120  0.4778  1.1140  1.1371
 1814TIP3    H226858   3.178   3.577  11.203 -0.1208  0.1011 -0.4594
 1815TIP3   OH226859   0.169   2.385  11.818  0.6114 -0.2985 -0.1136
 1815TIP3    H126860   0.162   2.457  11.881 -2.0010  0.4350 -1.1154
 1815TIP3    H226861   0.207   2.424  11.740  1.3551 -0.5921  0.0877
 1816TIP3   OH226862   1.043   4.382   2.410 -0.1288 -0.2756  0.3667
 1816TIP3    H126863   0.957   4.386   2.452 -0.1826  0.7053  0.1901
 1816TIP3    H226864   1.084   4.304   2.447 -0.3932  0.2442  1.8373
 1817TIP3   OH226865   6.666   0.081  14.369 -0.4315  0.3420 -0.2057
 1817TIP3    H126866   6.741   0.034  14.333 -1.8639 -0.6941 -1.9229
 1817TIP3    H226867   6.642   0.144  14.301 -2.9820 -1.4375 -1.0972
 1818TIP3   OH226868   4.994   6.007  15.243  0.1644 -0.4711  0.3397
 1818TIP3    H126869   5.039   6.086  15.211 -1.5410 -0.0941 -1.2929
 1818TIP3    H226870   5.017   5.939  15.179 -0.6823 -0.5436  0.1048
 1819TIP3   OH226871   3.641   4.365   5.926 -0.4890  0.1398  0.0783
 1819TIP3    H126872   3.663   4.332   6.013 -1.2396 -0.4534  0.0515
 1819TIP3    H226873   3.668   4.295   5.866  0.5701  0.7884 -0.2293
 1820TIP3   OH226874   4.281   4.958   6.170  0.2671 -0.6667 -0.3347
 1820TIP3    H126875   4.235   5.038   6.142  0.1551 -0.2553  0.9049
 1820TIP3    H226876   4.211   4.896   6.190  0.3705 -1.2985 -1.8651
 1821TIP3   OH226877   0.179   1.769  10.582 -0.3726 -0.3956 -0.3019
 1821TIP3    H126878   0.124   1.837  10.621  0.7167 -0.0290  0.6585
 1821TIP3    H226879   0.213   1.809  10.502 -2.1332 -0.9310 -1.3768
 1822TIP3   OH226880   3.597   2.666   2.587 -0.7263  0.2122  0.2558
 1822TIP3    H126881   3.577   2.625   2.672 -2.0812  1.0005  0.3348
 1822TIP3    H226882   3.558   2.752   2.592 -1.1663  0.1275 -1.3338
 1823TIP3   OH226883   4.858   1.031  13.071 -0.2462 -0.4091 -0.2977
 1823TIP3    H126884   4.911   1.088  13.126 -0.5661 -1.4317  1.1228
 1823TIP3    H226885   4.829   1.087  12.999 -0.3880  1.1582  0.9341
 1824TIP3   OH226886   5.727   5.926   4.134 -0.0875 -1.2348  0.5120
 1824TIP3    H126887   5.703   5.851   4.187  0.2484 -1.3985  0.4313
 1824TIP3    H226888   5.806   5.961   4.175  0.9840 -2.1956 -0.6851
 1825TIP3   OH226889   5.290   1.288  15.062  0.0517  0.1394 -0.2819
 1825TIP3    H126890   5.280   1.381  15.041  1.4179 -0.2504 -3.0352
 1825TIP3    H226891   5.242   1.242  14.993 -1.6255 -1.2783  1.6877
 1826TIP3   OH226892   0.919   5.564   3.866 -0.0085 -0.1140 -0.0384
 1826TIP3    H126893   0.990   5.615   3.906  0.0749  0.2557 -0.6524
 1826TIP3    H226894   0.856   5.552   3.937 -0.3024  1.3496 -0.0230
 1827TIP3   OH226895   0.003   4.873   5.168 -0.2156 -0.4064 -0.4321
 1827TIP3    H126896   0.092   4.909   5.164  0.4382 -1.6532  1.6316
 1827TIP3    H226897  -0.045   4.934   5.224 -0.1461 -0.7153 -0.0343
 1828TIP3   OH226898   3.694   6.411   6.322  0.4585 -0.2316 -0.6624
 1828TIP3    H126899   3.713   6.505   6.331  1.2078 -0.5634  2.0400
 1828TIP3    H226900   3.600   6.404   6.339  0.6369 -0.0745  0.4609
 1829TIP3   OH226901   3.171   6.501   5.240 -0.0581  0.5337  0.8335
 1829TIP3    H126902   3.157   6.562   5.167  1.5265  0.3132  0.3011
 1829TIP3    H226903   3.107   6.432   5.225  1.3040 -0.3706 -1.3605
 1830TIP3   OH226904   3.911   1.185   3.835  0.2671 -0.6003  0.1851
 1830TIP3    H126905   3.949   1.111   3.884  0.0094 -0.5401  0.4785
 1830TIP3    H226906   3.986   1.241   3.815  0.1579  0.4495  2.3467
 1831TIP3   OH226907   5.785   6.755  17.151  0.4486 -0.1440  0.4149
 1831TIP3    H126908   5.836   6.674  17.154 -1.6477 -1.5149  0.8695
 1831TIP3    H226909   5.766   6.776  17.242  2.0873  1.6982  0.4187
 1832TIP3   OH226910   1.090   6.091  12.361  0.1561 -0.4386  0.1865
 1832TIP3    H126911   1.011   6.125  12.318  0.8377  1.4219  0.3199
 1832TIP3    H226912   1.066   6.083  12.453 -0.2738 -1.1939  0.0182
 1833TIP3   OH226913   0.235   3.391  10.925  0.0528 -0.3845 -0.0111
 1833TIP3    H126914   0.156   3.350  10.889 -0.2244 -0.8091  1.0379
 1833TIP3    H226915   0.273   3.438  10.851  1.6610 -4.3644 -1.9901
 1834TIP3   OH226916   3.343   1.403  16.908 -0.6786 -0.6848 -0.2209
 1834TIP3    H126917   3.430   1.381  16.873 -0.6202  1.0474 -1.3126
 1834TIP3    H226918   3.359   1.423  17.000 -0.3105 -2.4519  0.1270
 1835TIP3   OH226919   6.487   2.788   3.700  0.1813  0.2540 -0.6142
 1835TIP3    H126920   6.474   2.876   3.663  1.8465  2.0027  2.5004
 1835TIP3    H226921   6.580   2.785   3.722 -0.3375 -1.1400  1.8152
 1836TIP3   OH226922   5.060   2.347  15.028 -0.0329 -0.3481 -0.2715
 1836TIP3    H126923   5.010   2.274  14.993  0.0381  0.1967 -1.5402
 1836TIP3    H226924   5.111   2.309  15.100  0.4839 -1.6816 -1.3192
 1837TIP3   OH226925   6.134   1.060  10.470 -0.6021 -0.4277 -0.6618
 1837TIP3    H126926   6.084   0.980  10.483 -2.4506  0.6985 -0.4523
 1837TIP3    H226927   6.211   1.050  10.527 -1.8056 -1.2285  0.8902
 1838TIP3   OH226928   1.289   4.768   2.388 -1.0257 -0.2168 -0.2395
 1838TIP3    H126929   1.326   4.777   2.476 -1.0985  2.5047 -0.3749
 1838TIP3    H226930   1.199   4.738   2.402 -0.7557 -0.6736  0.5367
 1839TIP3   OH226931   1.048   3.544  16.062 -0.2558 -0.2589 -0.1739
 1839TIP3    H126932   1.100   3.580  15.990  0.3515 -1.1762 -0.2048
 1839TIP3    H226933   1.016   3.621  16.108  1.2537  0.3435 -0.0689
 1840TIP3   OH226934   1.335   6.437  14.282 -0.3960 -0.0678  0.2510
 1840TIP3    H126935   1.415   6.451  14.332 -0.0402 -1.6961  0.1967
 1840TIP3    H226936   1.361   6.379  14.210 -1.6583 -0.7998  0.3494
 1841TIP3   OH226937   2.268   2.896  16.891 -0.1055 -0.2733  0.0276
 1841TIP3    H126938   2.207   2.823  16.886 -0.4679 -0.0242  0.5604
 1841TIP3    H226939   2.352   2.857  16.915  0.3992 -0.8260 -2.4380
 1842TIP3   OH226940   2.298   3.994   6.777  0.2295  0.7775 -0.3517
 1842TIP3    H126941   2.343   3.999   6.693  1.8186  2.6285  0.5333
 1842TIP3    H226942   2.219   4.047   6.766  0.2316  0.6880 -0.7914
 1843TIP3   OH226943   0.353   6.464   2.111 -0.3257  0.9995 -0.1686
 1843TIP3    H126944   0.386   6.408   2.041  0.5533 -0.1972  1.1385
 1843TIP3    H226945   0.266   6.429   2.131 -0.9609  1.9005 -1.2041
 1844TIP3   OH226946   0.842   1.494  11.129  0.4341  0.2445 -1.0620
 1844TIP3    H126947   0.756   1.463  11.101  1.5064 -2.1724 -1.9398
 1844TIP3    H226948   0.823   1.560  11.196 -2.0786  0.1085 -1.5401
 1845TIP3   OH226949   0.904   6.732   3.836 -0.1325 -0.6121  0.1236
 1845TIP3    H126950   0.970   6.787   3.793 -1.5190 -0.2515 -1.6569
 1845TIP3    H226951   0.937   6.720   3.925  1.9979  0.0888 -0.5118
 1846TIP3   OH226952   0.758   1.100   5.872  0.1288 -0.0918  0.7034
 1846TIP3    H126953   0.709   1.125   5.794  2.2676  1.1024 -0.3718
 1846TIP3    H226954   0.746   1.006   5.879  0.7672 -0.4529 -1.8058
 1847TIP3   OH226955   5.603   5.530  15.461 -0.5216  0.0602  0.7593
 1847TIP3    H126956   5.554   5.548  15.381  0.4706  0.8381  0.3004
 1847TIP3    H226957   5.538   5.532  15.531 -1.1133  1.2948  0.1977
 1848TIP3   OH226958   5.479   1.705  16.476  0.3698 -0.2089  0.4698
 1848TIP3    H126959   5.420   1.629  16.470  2.1056 -1.8831  2.7705
 1848TIP3    H226960   5.479   1.728  16.569  1.2045  1.5636  0.0723
 1849TIP3   OH226961   1.245   1.052  12.954 -0.2140  0.5747  0.0881
 1849TIP3    H126962   1.246   1.061  13.049  0.4770  0.8298  0.0624
 1849TIP3    H226963   1.212   0.964  12.938  1.4386 -0.1906  0.6375
 1850TIP3   OH226964   3.765   1.021  11.717 -0.7427  0.1311 -0.5787
 1850TIP3    H126965   3.820   1.021  11.638  1.4708 -1.0492  0.8603
 1850TIP3    H226966   3.819   1.064  11.783 -1.1132 -1.8732  1.1324
 1851TIP3   OH226967   2.332   4.899   2.253 -0.4124 -0.2160 -0.0655
 1851TIP3    H126968   2.306   4.837   2.321 -0.6836 -0.9237 -0.7935
 1851TIP3    H226969   2.414   4.862   2.218  1.4034  1.6841  1.8300
 1852TIP3   OH226970   6.569   2.004  15.924  0.2500  0.8568 -0.3073
 1852TIP3    H126971   6.575   2.010  16.020  1.4241 -0.8932 -0.2236
 1852TIP3    H226972   6.655   2.035  15.894  0.1812  0.6319 -0.7356
 1853TIP3   OH226973   2.692   4.377   6.445  0.0913 -0.3933 -0.4045
 1853TIP3    H126974   2.637   4.308   6.482  0.0674 -0.0896  0.1215
 1853TIP3    H226975   2.631   4.448   6.425  0.2391 -0.2067 -0.1831
 1854TIP3   OH226976   5.361   3.275  12.227  0.3994  0.3939 -0.6677
 1854TIP3    H126977   5.333   3.355  12.184 -1.5872 -0.0033 -0.1958
 1854TIP3    H226978   5.280   3.229  12.250  1.4541 -1.2173  0.0819
 1855TIP3   OH226979   6.150   2.854   4.907 -0.0229  0.6040  0.0950
 1855TIP3    H126980   6.173   2.812   4.989  3.0113  0.3956 -0.7460
 1855TIP3    H226981   6.210   2.929   4.901 -0.5366  0.9220 -1.6793
 1856TIP3   OH226982   1.053   4.285  11.175 -0.2390  1.0105 -0.7045
 1856TIP3    H126983   1.125   4.231  11.142 -1.6901 -1.2505 -0.3368
 1856TIP3    H226984   0.974   4.244  11.141 -1.5862  1.0989  2.0228
 1857TIP3   OH226985   2.303   6.014   3.384  0.0280 -0.1104 -0.1393
 1857TIP3    H126986   2.208   6.022   3.399  0.1278 -1.0358  1.1331
 1857TIP3    H226987   2.342   6.072   3.449  0.3371  1.5571 -1.7346
 1858TIP3   OH226988   2.201   4.163   5.093  0.2720 -0.4181  0.0887
 1858TIP3    H126989   2.155   4.121   5.166  0.1623 -0.2267  0.1304
 1858TIP3    H226990   2.198   4.256   5.114 -0.1468 -0.3219 -0.3835
 1859TIP3   OH226991   2.425   4.623   4.738  0.0647  0.4010 -0.1671
 1859TIP3    H126992   2.371   4.652   4.812 -0.4157  0.0349 -0.3663
 1859TIP3    H226993   2.507   4.595   4.778  0.3800  1.6318  0.0640
 1860TIP3   OH226994   1.057   4.945   3.348  0.0939  0.0325 -0.2796
 1860TIP3    H126995   0.966   4.940   3.377  0.0964  0.4544 -0.1939
 1860TIP3    H226996   1.094   4.860   3.371 -0.9688 -1.1795 -2.6959
 1861TIP3   OH226997   2.603   4.145  16.248 -0.0634 -0.1523  0.3773
 1861TIP3    H126998   2.570   4.223  16.204 -0.2963 -0.2352  0.3988
 1861TIP3    H226999   2.606   4.078  16.179 -0.0275 -0.1686  0.3948
 1862TIP3   OH227000   4.460   5.413  11.776  0.5261 -0.2236  0.2838
 1862TIP3    H127001   4.468   5.372  11.862 -0.8453 -0.2264  0.4435
 1862TIP3    H227002   4.498   5.350  11.716  0.5644 -0.6920  0.7868
 1863TIP3   OH227003   1.429   1.077  11.124  0.3047 -0.2201 -0.3081
 1863TIP3    H127004   1.524   1.079  11.132  0.3342 -0.5171 -0.6155
 1863TIP3    H227005   1.407   1.156  11.075  0.3263  0.2739  0.4586
 1864TIP3   OH227006   0.748   2.651  15.085 -0.3321 -0.0269 -0.0513
 1864TIP3    H127007   0.689   2.681  15.016 -0.7709  1.4288  0.9187
 1864TIP3    H227008   0.733   2.557  15.089  0.0750 -0.2413 -2.2606
 1865TIP3   OH227009   2.621   1.516   2.109 -0.1535  0.6160  0.1190
 1865TIP3    H127010   2.704   1.538   2.152  0.2560  1.5852 -1.0763
 1865TIP3    H227011   2.567   1.594   2.120 -0.6549  0.2424  0.3103
 1866TIP3   OH227012   1.340   2.662   0.944 -0.2733  0.4558  0.0534
 1866TIP3    H127013   1.373   2.596   1.005  1.4192  1.0317 -0.1717
 1866TIP3    H227014   1.418   2.692   0.897 -0.9753  2.6550  0.1906
 1867TIP3   OH227015   3.748   1.495  12.186 -0.8379  0.0812 -0.0647
 1867TIP3    H127016   3.727   1.476  12.094 -1.9072  1.2361 -0.0817
 1867TIP3    H227017   3.781   1.412  12.220 -1.0812 -0.5553 -1.3077
 1868TIP3   OH227018   5.122   5.280  12.958  0.3217 -0.4567  0.2590
 1868TIP3    H127019   5.161   5.367  12.963  1.2127 -0.8467  0.2504
 1868TIP3    H227020   5.047   5.291  12.899 -0.5127  0.6222  1.4636
 1869TIP3   OH227021   3.506   5.103  17.034  0.3287 -0.2824  0.3956
 1869TIP3    H127022   3.452   5.144  17.101 -1.5712 -1.8550 -0.0756
 1869TIP3    H227023   3.572   5.054  17.084  0.2553  0.2630  1.0446
 1870TIP3   OH227024   4.123   5.871  16.577 -0.2763 -0.5336 -0.2024
 1870TIP3    H127025   4.090   5.821  16.502  1.5749 -1.0408 -0.7214
 1870TIP3    H227026   4.167   5.947  16.539 -1.3933  0.5099  0.5080
 1871TIP3   OH227027   1.143   4.903   1.512  0.2996 -0.2302  0.7807
 1871TIP3    H127028   1.097   4.960   1.451  0.0962 -0.4027  0.7714
 1871TIP3    H227029   1.235   4.930   1.505  0.1747  0.2502  0.9512
 1872TIP3   OH227030   6.586   4.785  10.383  0.3969  0.4910 -0.1929
 1872TIP3    H127031   6.615   4.852  10.445 -0.0922 -0.3398  0.9771
 1872TIP3    H227032   6.529   4.728  10.435  0.7156 -0.7654 -1.1812
 1873TIP3   OH227033   1.949   1.058  11.524  0.0287  0.3197  0.3607
 1873TIP3    H127034   1.930   1.152  11.523  2.7175  0.9355  0.4245
 1873TIP3    H227035   2.012   1.046  11.454  0.8131 -1.1738  1.2788
 1874TIP3   OH227036   1.964   4.925  11.497  0.2502  0.1575  0.6167
 1874TIP3    H127037   2.008   4.847  11.464  0.4392 -0.2087  1.6905
 1874TIP3    H227038   1.870   4.906  11.487  0.2425  1.2621 -2.4263
 1875TIP3   OH227039   1.742   0.131   1.398  0.2442  0.1552  0.3118
 1875TIP3    H127040   1.784   0.104   1.480  1.0593 -0.9442 -0.4313
 1875TIP3    H227041   1.812   0.128   1.333 -0.5624  0.2221 -0.5821
 1876TIP3   OH227042   4.753   1.767   2.356  0.3805  0.3303 -0.2828
 1876TIP3    H127043   4.702   1.736   2.281  1.1574  0.3504 -0.8390
 1876TIP3    H227044   4.812   1.833   2.319  0.8577  0.2563  0.3227
 1877TIP3   OH227045   0.055   6.762  14.112  0.1183 -0.1542  0.1449
 1877TIP3    H127046   0.098   6.683  14.077  2.0145  0.7611  0.2848
 1877TIP3    H227047   0.113   6.834  14.087 -2.0628  1.3561 -0.8261
 1878TIP3   OH227048   0.577   6.739   2.561 -0.3640  0.7118 -0.2001
 1878TIP3    H127049   0.653   6.773   2.514  2.3555 -2.8648  1.1465
 1878TIP3    H227050   0.541   6.671   2.504 -1.5850  1.2459 -0.1052
 1879TIP3   OH227051   0.163   6.259   5.500  0.7895  0.6052 -0.9440
 1879TIP3    H127052   0.197   6.181   5.456 -0.6096 -0.1992 -0.6696
 1879TIP3    H227053   0.161   6.236   5.593 -1.1181  0.3303 -1.0070
 1880TIP3   OH227054   5.848   5.963   1.857  0.3933 -0.3680  0.2808
 1880TIP3    H127055   5.797   5.991   1.781 -3.0169 -3.1955  1.2380
 1880TIP3    H227056   5.843   6.037   1.918 -1.5778 -0.0257 -0.2106
 1881TIP3   OH227057   5.882   4.815  14.863  0.1784  0.5153 -0.1846
 1881TIP3    H127058   5.912   4.737  14.909 -0.2148 -0.1836 -1.0656
 1881TIP3    H227059   5.946   4.883  14.885 -0.0368  0.2431  1.4180
 1882TIP3   OH227060   0.735   4.488  13.275 -0.1163  0.6928  1.0372
 1882TIP3    H127061   0.721   4.470  13.182  1.7402 -0.1490  0.8731
 1882TIP3    H227062   0.724   4.582  13.283  0.5002  0.8990 -0.2087
 1883TIP3   OH227063   5.294   1.095  13.301  0.1952 -0.0630 -0.2043
 1883TIP3    H127064   5.367   1.152  13.276 -0.2566  0.8017  0.3939
 1883TIP3    H227065   5.259   1.063  13.217 -0.6775  2.0164 -0.7143
 1884TIP3   OH227066   0.007   3.072  16.878 -0.7301 -0.2753 -0.5340
 1884TIP3    H127067   0.096   3.087  16.847 -0.9519 -0.9073 -1.5049
 1884TIP3    H227068   0.009   2.985  16.918 -0.2250  0.8713  2.1769
 1885TIP3   OH227069   0.329   1.112  14.189 -0.3771  0.5885  0.0012
 1885TIP3    H127070   0.407   1.081  14.235 -0.9811  0.3394  0.8870
 1885TIP3    H227071   0.262   1.117  14.257 -0.9964  1.3016 -0.6470
 1886TIP3   OH227072   1.986   0.274  16.614 -0.1238 -0.5201 -0.2209
 1886TIP3    H127073   1.916   0.214  16.588 -1.0991  0.1405  0.8160
 1886TIP3    H227074   1.940   0.350  16.649  1.1157 -0.0247  0.3659
 1887TIP3   OH227075   0.402   0.532   2.265  0.1063 -0.3020  1.1813
 1887TIP3    H127076   0.378   0.503   2.177  2.7547 -0.9016  0.5865
 1887TIP3    H227077   0.396   0.628   2.261 -0.9228 -0.3639  0.7478
 1888TIP3   OH227078   0.271   1.143   4.337 -0.1420  0.1912 -0.3680
 1888TIP3    H127079   0.327   1.184   4.403  0.8626 -1.0062 -0.4459
 1888TIP3    H227080   0.235   1.066   4.381 -0.0295 -0.2277 -0.9977
 1889TIP3   OH227081   5.352   4.185  14.897  0.2514  0.0262  0.0000
 1889TIP3    H127082   5.265   4.224  14.909 -0.7381 -1.4447 -1.8575
 1889TIP3    H227083   5.396   4.243  14.835 -1.3475 -1.7947 -3.0436
 1890TIP3   OH227084   3.641   6.113   5.158  0.1835 -0.1300  0.2268
 1890TIP3    H127085   3.707   6.177   5.182 -1.5907  3.1338 -2.6501
 1890TIP3    H227086   3.570   6.127   5.220  1.1861 -2.1814  1.9919
 1891TIP3   OH227087   2.722   5.244  14.339 -0.4771 -0.5464 -0.4326
 1891TIP3    H127088   2.815   5.251  14.360 -0.5941 -1.6240  0.5341
 1891TIP3    H227089   2.706   5.316  14.278  1.2268 -0.9928 -1.5025
 1892TIP3   OH227090   0.071   2.527   2.293  0.3040 -0.2838 -0.3417
 1892TIP3    H127091   0.057   2.460   2.227 -0.8498  0.2957 -0.7116
 1892TIP3    H227092  -0.005   2.521   2.351  0.3566  0.4552 -0.1777
 1893TIP3   OH227093   2.844   6.641   4.046  0.6670  0.2732  0.2479
 1893TIP3    H127094   2.871   6.728   4.074  0.9494  0.7599 -1.3960
 1893TIP3    H227095   2.876   6.634   3.956 -0.1378 -1.1849  0.0360
 1894TIP3   OH227096   0.006   3.039  11.028 -0.0555 -0.3519  0.7048
 1894TIP3    H127097   0.036   3.127  11.005  2.0972 -0.8965  1.2348
 1894TIP3    H227098  -0.054   3.053  11.102  0.8416  0.6200  1.2750
 1895TIP3   OH227099   1.535   6.131   2.476  0.5802 -0.3380 -0.6205
 1895TIP3    H127100   1.456   6.160   2.430  0.8078 -1.1225 -1.5348
 1895TIP3    H227101   1.513   6.043   2.507  1.1694 -0.6701 -1.1146
 1896TIP3   OH227102   1.871   3.921  12.335  0.0367 -0.2275  0.6124
 1896TIP3    H127103   1.807   3.910  12.406 -0.1958 -1.0526  0.2943
 1896TIP3    H227104   1.854   4.008  12.300 -1.1349 -0.5514  0.3257
 1897TIP3   OH227105   4.607   6.129  13.216  0.5259  0.1666  0.5087
 1897TIP3    H127106   4.639   6.041  13.235 -0.3543 -0.2857 -0.0541
 1897TIP3    H227107   4.572   6.123  13.127 -0.8745  0.7035  1.0047
 1898TIP3   OH227108   3.904   0.952   4.812 -1.0643  0.5881 -0.2097
 1898TIP3    H127109   3.943   0.885   4.868 -1.8464 -0.4487 -0.8624
 1898TIP3    H227110   3.941   1.034   4.844  0.0213 -0.1526  0.5332
 1899TIP3   OH227111   4.296   2.371   4.108  0.2395 -0.0590  0.0729
 1899TIP3    H127112   4.353   2.330   4.042 -0.0012  0.6582 -0.5988
 1899TIP3    H227113   4.242   2.299   4.141  0.9048 -0.5724  0.0511
 1900TIP3   OH227114   5.741   5.091   3.105 -0.4027 -0.0341  0.2762
 1900TIP3    H127115   5.802   5.118   3.036 -1.8152 -0.5711 -1.2248
 1900TIP3    H227116   5.795   5.092   3.185  1.6153 -0.6347 -0.9941
 1901TIP3   OH227117   3.410   6.300   1.626 -0.3032  0.2232  0.2008
 1901TIP3    H127118   3.423   6.392   1.602 -1.6600  0.3285 -0.2304
 1901TIP3    H227119   3.317   6.294   1.648 -0.1893 -1.0092  0.4235
 1902TIP3   OH227120   1.266   6.382  12.552 -0.5680  0.1024  0.4418
 1902TIP3    H127121   1.360   6.367  12.543 -0.1063  2.6217  0.4347
 1902TIP3    H227122   1.234   6.306  12.600  1.5542 -0.5507  0.9051
 1903TIP3   OH227123   3.388   2.230   3.231 -0.4372  0.0960  0.4354
 1903TIP3    H127124   3.452   2.204   3.298 -1.1631  0.3570  1.2414
 1903TIP3    H227125   3.386   2.325   3.236 -1.7292  0.0477  1.2318
 1904TIP3   OH227126   6.043   1.507   0.745 -0.2276 -0.1687 -0.1612
 1904TIP3    H127127   6.021   1.568   0.816  3.4895  0.0484  1.0428
 1904TIP3    H227128   6.048   1.422   0.788 -0.9050 -0.5683 -0.8540
 1905TIP3   OH227129   6.612   2.494   3.106 -0.5043 -0.2610  0.3182
 1905TIP3    H127130   6.642   2.553   3.175 -0.5499 -0.0375  0.1454
 1905TIP3    H227131   6.669   2.513   3.031 -0.9181 -0.0048  0.0667
 1906TIP3   OH227132   0.989   5.302  12.520 -0.1263 -0.3068  0.3827
 1906TIP3    H127133   1.027   5.358  12.451 -1.6101  1.0310  0.6005
 1906TIP3    H227134   0.903   5.340  12.537 -1.2228 -2.7085  0.5374
 1907TIP3   OH227135   4.917   3.127  14.036 -0.6833 -0.0174 -0.4450
 1907TIP3    H127136   4.944   3.155  14.123 -0.3328 -1.6031 -0.0054
 1907TIP3    H227137   4.945   3.198  13.978  3.3309 -0.8849  0.1362
 1908TIP3   OH227138   2.108   3.043   2.261 -0.3610  0.2438 -0.3993
 1908TIP3    H127139   2.070   2.997   2.336 -1.3820  1.0842 -0.3869
 1908TIP3    H227140   2.035   3.056   2.200  0.3002  0.2235 -1.2259
 1909TIP3   OH227141   5.910   1.784  17.202 -0.1626  0.0802 -0.3572
 1909TIP3    H127142   5.884   1.815  17.288  2.0558  0.5075  0.2078
 1909TIP3    H227143   5.995   1.743  17.215  0.0781 -0.1689 -2.3002
 1910TIP3   OH227144   5.677   3.553  11.840  0.0852  0.4301  0.0768
 1910TIP3    H127145   5.755   3.594  11.878 -1.4781  2.4184  1.3651
 1910TIP3    H227146   5.649   3.614  11.771 -1.0408  0.4454  0.5242
 1911TIP3   OH227147   0.621   2.179   2.967  0.1592 -0.3955 -0.4867
 1911TIP3    H127148   0.700   2.210   3.012  1.5833 -1.7503 -1.9407
 1911TIP3    H227149   0.620   2.085   2.984 -1.7066 -0.2649  0.2934
 1912TIP3   OH227150   5.271   5.142   1.868 -0.5526  0.0898 -0.1414
 1912TIP3    H127151   5.288   5.104   1.954  1.5014 -1.3351 -1.0898
 1912TIP3    H227152   5.358   5.158   1.831 -1.3627  2.4483 -1.2500
 1913TIP3   OH227153   4.871   4.489   4.828 -0.2594 -0.0462  0.0664
 1913TIP3    H127154   4.904   4.535   4.751 -1.1126  2.6693  1.1716
 1913TIP3    H227155   4.943   4.492   4.890  0.6749 -2.8511 -0.7566
 1914TIP3   OH227156   2.203   2.166  16.795 -0.2188 -0.6405  0.3845
 1914TIP3    H127157   2.235   2.190  16.707 -1.4984  0.2264  0.1344
 1914TIP3    H227158   2.108   2.173  16.789 -0.3200 -0.4700  1.8860
 1915TIP3   OH227159   1.056   0.584   3.093  0.7278  0.6279 -0.0588
 1915TIP3    H127160   1.015   0.501   3.068 -2.3231  1.3078  2.0405
 1915TIP3    H227161   1.098   0.566   3.177  0.3198  1.0851  0.2545
 1916TIP3   OH227162   2.462   2.367  11.027  0.5312  0.0555 -0.9525
 1916TIP3    H127163   2.456   2.371  11.123  3.4689  1.7528 -0.7302
 1916TIP3    H227164   2.402   2.435  10.997 -0.2718 -0.3622 -0.3457
 1917TIP3   OH227165   5.745   1.539   0.561 -0.5447  0.4052 -0.0828
 1917TIP3    H127166   5.753   1.444   0.551  2.5412  0.6260 -0.9864
 1917TIP3    H227167   5.747   1.554   0.655 -1.7355 -0.4229  0.0982
 1918TIP3   OH227168   4.905   5.871   2.897 -0.2002  0.1958 -0.0669
 1918TIP3    H127169   4.942   5.784   2.882  0.0553  0.1555  0.7657
 1918TIP3    H227170   4.871   5.897   2.811 -1.9344 -1.5008  0.0306
 1919TIP3   OH227171   4.154   6.571  13.701 -0.9179  0.7835 -0.1819
 1919TIP3    H127172   4.219   6.556  13.769 -0.1871 -2.4769 -1.3781
 1919TIP3    H227173   4.200   6.621  13.634 -0.4029  0.6317  0.0525
 1920TIP3   OH227174   3.012   5.783   4.983  0.2583 -0.4256 -0.3460
 1920TIP3    H127175   3.082   5.781   5.048 -0.2488 -1.6122  0.2118
 1920TIP3    H227176   2.951   5.850   5.015  0.7456  0.0578 -0.4171
 1921TIP3   OH227177   1.116   1.971  14.820  0.0695  0.2709  0.8022
 1921TIP3    H127178   1.140   1.996  14.731  0.5056  0.4388  0.9634
 1921TIP3    H227179   1.145   2.044  14.875  2.2505 -0.9485  1.3923
 1922TIP3   OH227180   4.585   1.484  11.623 -0.7291  0.1762 -0.5382
 1922TIP3    H127181   4.579   1.404  11.570 -0.2398 -0.7178  0.7132
 1922TIP3    H227182   4.581   1.555  11.559 -3.3215 -0.7422 -1.5551
 1923TIP3   OH227183   6.156   5.155  14.405 -0.0997 -0.7098 -0.2987
 1923TIP3    H127184   6.219   5.090  14.437  0.2772 -0.9215 -1.4221
 1923TIP3    H227185   6.071   5.121  14.431  0.1890 -0.8678  0.4682
 1924TIP3   OH227186   6.223   2.515   5.957  0.0596 -0.2584 -0.0870
 1924TIP3    H127187   6.280   2.499   6.032 -1.1530 -2.3076  0.4567
 1924TIP3    H227188   6.184   2.600   5.975  0.5423 -0.2656  1.1129
 1925TIP3   OH227189   5.936   4.646   6.374  0.3103  0.2206  0.0192
 1925TIP3    H127190   5.856   4.676   6.416  1.3445  1.1565  1.4172
 1925TIP3    H227191   5.985   4.602   6.443  2.1709  1.9954 -0.0772
 1926TIP3   OH227192   2.440   2.068  10.575 -0.0740 -0.0612  0.0572
 1926TIP3    H127193   2.473   2.158  10.584  1.1582 -0.4091 -0.6186
 1926TIP3    H227194   2.519   2.014  10.582 -0.5874 -0.9895 -1.0134
 1927TIP3   OH227195   1.333   3.271   1.146 -0.1880 -0.4735  0.4898
 1927TIP3    H127196   1.413   3.234   1.183  0.5941  1.3478  0.7272
 1927TIP3    H227197   1.346   3.366   1.151 -1.5097 -0.1449 -1.3429
 1928TIP3   OH227198   0.097   1.785  14.130 -0.4254  0.3571 -0.4206
 1928TIP3    H127199   0.124   1.832  14.209  1.6414 -1.1889 -0.1204
 1928TIP3    H227200   0.036   1.718  14.162 -0.7026  0.6385 -0.3539
 1929TIP3   OH227201   1.792   6.054   3.262 -0.0075  0.1741  0.0840
 1929TIP3    H127202   1.741   6.074   3.340  0.1678  2.3829 -0.3012
 1929TIP3    H227203   1.777   6.129   3.204 -0.5863 -1.6488 -2.2596
 1930TIP3   OH227204   0.653   4.319   3.188 -0.2638 -0.1971 -0.2083
 1930TIP3    H127205   0.614   4.336   3.274 -1.5900 -0.4012 -0.7418
 1930TIP3    H227206   0.668   4.225   3.188  1.0756 -0.0092  0.3142
 1931TIP3   OH227207   4.664   5.759  11.738  0.0854  0.3125  0.7711
 1931TIP3    H127208   4.603   5.711  11.794 -0.6300 -0.0338 -0.2787
 1931TIP3    H227209   4.652   5.851  11.762 -0.6341  0.2173  0.8014
 1932TIP3   OH227210   3.972   5.299   0.092 -0.6438 -0.3933  0.7321
 1932TIP3    H127211   3.950   5.218   0.138 -0.7694 -0.8439 -0.0986
 1932TIP3    H227212   3.916   5.366   0.132 -0.3280 -0.6479  1.6292
 1933TIP3   OH227213   1.222   4.592   0.513  0.3977  0.0179 -0.2042
 1933TIP3    H127214   1.296   4.575   0.571  0.0397  1.6495  0.7940
 1933TIP3    H227215   1.252   4.564   0.426  2.8802  2.1866 -0.1881
 1934TIP3   OH227216   3.125   3.284  15.367 -0.1380 -0.4503 -0.0238
 1934TIP3    H127217   3.136   3.378  15.384 -1.1274 -0.3388  0.0608
 1934TIP3    H227218   3.093   3.280  15.277  0.8598 -0.7808 -0.3806
 1935TIP3   OH227219   1.739   2.651   1.122  0.2133  0.6897  0.1416
 1935TIP3    H127220   1.740   2.556   1.108 -1.2240  0.6634  0.0978
 1935TIP3    H227221   1.832   2.676   1.121  0.5578 -0.4515 -1.5893
 1936TIP3   OH227222   6.306   2.050  11.502  0.1806 -0.5866  0.1985
 1936TIP3    H127223   6.251   2.124  11.526 -0.1649 -0.1392 -1.7699
 1936TIP3    H227224   6.253   1.973  11.522 -0.5845 -0.2046 -0.3269
 1937TIP3   OH227225   1.105   1.545  13.272  0.4627 -0.1640  0.4761
 1937TIP3    H127226   1.105   1.522  13.179  0.5920 -0.1599  0.4752
 1937TIP3    H227227   1.126   1.638  13.273  0.7584 -0.2315  0.5270
 1938TIP3   OH227228   0.187   4.220   4.952 -0.5873 -0.4947  0.0850
 1938TIP3    H127229   0.142   4.275   5.017 -1.0059  0.1952 -0.7713
 1938TIP3    H227230   0.173   4.131   4.983  0.0200 -0.1522  1.4538
 1939TIP3   OH227231   6.071   4.759   4.160  0.4063 -0.2637 -0.1912
 1939TIP3    H127232   6.160   4.767   4.194  0.6627 -1.0006 -0.6646
 1939TIP3    H227233   6.082   4.756   4.065 -0.1515 -0.0997 -0.2665
 1940TIP3   OH227234   1.446   0.360  10.437 -0.6514  0.6718  0.0344
 1940TIP3    H127235   1.457   0.267  10.420  0.5687  1.1266 -2.0202
 1940TIP3    H227236   1.360   0.367  10.478 -1.5116 -1.1986 -1.3072
 1941TIP3   OH227237   0.531   0.078  12.562 -0.3062 -0.1272  0.1335
 1941TIP3    H127238   0.457   0.100  12.618 -0.2361 -0.6520  0.4369
 1941TIP3    H227239   0.579   0.011  12.610  0.6256  0.5233  0.1541
 1942TIP3   OH227240   0.072   2.731   1.541 -0.0256 -0.5744  0.5394
 1942TIP3    H127241   0.007   2.676   1.498 -0.3693 -0.5435  1.0160
 1942TIP3    H227242   0.149   2.675   1.548  0.6338 -0.0535 -1.6454
 1943TIP3   OH227243   4.698   5.316   0.816  0.3848  0.3276  0.0623
 1943TIP3    H127244   4.675   5.244   0.875  0.2415 -0.6429 -1.1299
 1943TIP3    H227245   4.727   5.272   0.735  0.0458  1.6021 -0.7824
 1944TIP3   OH227246   3.911   3.832   1.240 -0.3648 -0.6492 -0.3810
 1944TIP3    H127247   3.951   3.763   1.293  1.3506  0.1011 -0.6389
 1944TIP3    H227248   3.846   3.871   1.298  0.4708 -0.7846  0.6885
 1945TIP3   OH227249   1.224   0.086   4.790 -0.5749 -0.1405  0.1393
 1945TIP3    H127250   1.236   0.095   4.884 -1.6693  3.0867  0.0685
 1945TIP3    H227251   1.308   0.110   4.752 -0.4746 -0.3331  0.2360
 1946TIP3   OH227252   6.080   2.695  11.912 -0.0683  0.3229  0.5328
 1946TIP3    H127253   6.082   2.661  12.001 -1.4104  0.3610  0.5906
 1946TIP3    H227254   6.136   2.634  11.863  2.1575  1.3132  1.6886
 1947TIP3   OH227255   1.850   3.668   0.377 -0.1349 -0.1910 -0.5423
 1947TIP3    H127256   1.868   3.578   0.352 -1.0605 -0.6141  0.2710
 1947TIP3    H227257   1.759   3.683   0.352 -0.7263 -0.2516  1.3926
 1948TIP3   OH227258   5.788   2.557  17.228 -0.3042 -0.4650 -0.1597
 1948TIP3    H127259   5.771   2.479  17.281 -1.3043  1.6699  2.9713
 1948TIP3    H227260   5.877   2.582  17.250 -1.0002  0.8983  1.3390
 1949TIP3   OH227261   4.684   3.929   1.150  0.8532  0.1054 -0.4336
 1949TIP3    H127262   4.634   4.008   1.131 -0.4423 -0.4063  0.6524
 1949TIP3    H227263   4.766   3.961   1.187  0.5200  0.9545 -0.4025
 1950TIP3   OH227264   4.837   2.918  15.950 -0.0867  0.0886 -0.2069
 1950TIP3    H127265   4.922   2.914  15.993 -0.7094  0.3164  1.0792
 1950TIP3    H227266   4.827   2.833  15.907  0.8638  0.1335 -0.5227
 1951TIP3   OH227267   3.966   6.344  14.255  0.3510  0.0494  0.5041
 1951TIP3    H127268   3.879   6.352  14.295 -0.2414  0.4090 -0.7911
 1951TIP3    H227269   4.004   6.266  14.295 -0.7544 -0.3693  0.7668
 1952TIP3   OH227270   2.629   2.214   1.013 -0.1701 -0.9134 -0.0912
 1952TIP3    H127271   2.569   2.261   0.956 -0.8818 -0.4284  1.0429
 1952TIP3    H227272   2.577   2.191   1.090  0.8946 -1.1402  0.5807
 1953TIP3   OH227273   4.614   2.887  12.017  0.1150 -0.4530 -0.5062
 1953TIP3    H127274   4.543   2.935  12.059  1.8260  0.9022  1.0014
 1953TIP3    H227275   4.690   2.903  12.073  1.6085 -1.8819 -2.0211
 1954TIP3   OH227276   3.848   1.825   4.215 -0.1423  0.4396 -0.1336
 1954TIP3    H127277   3.843   1.894   4.282  1.6702 -1.4712  2.1465
 1954TIP3    H227278   3.942   1.809   4.204 -0.4888 -0.8830 -1.4387
 1955TIP3   OH227279   0.434   6.334  13.621 -0.1829 -0.0845  0.2206
 1955TIP3    H127280   0.484   6.258  13.593 -0.1977 -0.0132  0.0026
 1955TIP3    H227281   0.422   6.321  13.716 -0.6810 -0.6437  0.0905
 1956TIP3   OH227282   2.162   6.430  12.579 -0.2996  0.2236 -0.0069
 1956TIP3    H127283   2.225   6.456  12.646  0.2928  1.9649 -1.1955
 1956TIP3    H227284   2.096   6.499  12.581 -0.2393  0.3227 -1.2743
 1957TIP3   OH227285   6.647   0.735   2.351  0.3324  0.6590  0.2438
 1957TIP3    H127286   6.739   0.763   2.355  0.8988 -0.7043 -1.7430
 1957TIP3    H227287   6.610   0.764   2.435  2.7053  0.7333  1.3682
 1958TIP3   OH227288   0.537   1.705  13.868 -0.3228 -0.1604  0.3651
 1958TIP3    H127289   0.449   1.673  13.888 -1.0102  1.3981  0.0186
 1958TIP3    H227290   0.567   1.747  13.949 -0.1131 -0.2370  0.3286
 1959TIP3   OH227291   5.181   2.362  14.471  0.1142 -0.3106  0.3432
 1959TIP3    H127292   5.186   2.333  14.562  0.2351  0.6432  0.6529
 1959TIP3    H227293   5.265   2.406  14.455 -0.5093  0.8897  0.2673
 1960TIP3   OH227294   1.701   3.972  14.226  0.3313  0.4982 -0.3272
 1960TIP3    H127295   1.606   3.975  14.235  0.4588  1.8418  0.9086
 1960TIP3    H227296   1.722   4.045  14.167  0.5484 -0.3242 -1.2951
 1961TIP3   OH227297   4.642   0.238   2.860 -0.1389  0.1267 -0.4831
 1961TIP3    H127298   4.614   0.191   2.782 -2.4594  2.8229 -1.4521
 1961TIP3    H227299   4.727   0.275   2.837  0.7774 -1.8432 -0.4196
 1962TIP3   OH227300   3.609   3.176   0.432  0.2401 -0.0743 -0.1083
 1962TIP3    H127301   3.594   3.082   0.435  0.6807 -0.1344  0.1983
 1962TIP3    H227302   3.551   3.212   0.500 -0.7105 -0.0119 -0.9197
 1963TIP3   OH227303   6.188   6.727  15.069  0.0609 -0.3072 -0.2601
 1963TIP3    H127304   6.169   6.729  15.162  0.5213 -0.5893 -0.1563
 1963TIP3    H227305   6.138   6.653  15.035  1.5227 -1.5307  0.1472
 1964TIP3   OH227306   5.081   6.366   0.492  0.3270  0.3297  0.4253
 1964TIP3    H127307   5.121   6.414   0.565 -0.7916  0.7517  0.7788
 1964TIP3    H227308   5.103   6.418   0.415 -1.6393  1.9841  0.8970
 1965TIP3   OH227309   4.797   5.492   1.063 -0.6636 -0.2206 -0.4159
 1965TIP3    H127310   4.802   5.494   0.967 -0.6408  0.5811 -0.3971
 1965TIP3    H227311   4.708   5.521   1.082 -0.0538  1.5301 -0.1250
 1966TIP3   OH227312   3.244   2.968  11.925 -0.3419 -0.1102 -0.0887
 1966TIP3    H127313   3.257   3.049  11.975 -0.8087  0.3924 -0.7666
 1966TIP3    H227314   3.209   2.997  11.841 -0.4658 -1.0193 -0.3605
 1967TIP3   OH227315   3.932   3.145   2.872 -0.7162 -0.4409  0.2346
 1967TIP3    H127316   3.870   3.212   2.901  1.0909  1.4521 -0.0459
 1967TIP3    H227317   4.003   3.194   2.830  1.2869 -2.4341  1.0850
 1968TIP3   OH227318   1.669   0.679  12.116 -0.1043 -0.0506  0.4114
 1968TIP3    H127319   1.632   0.617  12.179 -0.8242  1.6050  1.6931
 1968TIP3    H227320   1.658   0.764  12.158 -1.0953  1.1973 -2.2086
 1969TIP3   OH227321   2.176   5.426  14.637  0.2522  0.2028 -0.1110
 1969TIP3    H127322   2.220   5.511  14.643  1.1768 -0.3381  0.8843
 1969TIP3    H227323   2.223   5.379  14.568 -0.9740  0.8723 -1.4822
 1970TIP3   OH227324   3.687   0.326   3.342 -0.7464 -0.0351  0.1126
 1970TIP3    H127325   3.767   0.318   3.394 -1.6013 -0.7913  1.3602
 1970TIP3    H227326   3.680   0.419   3.323 -0.3220  0.2390  1.2217
 1971TIP3   OH227327   0.409   1.483   5.507 -0.4054  0.3056  0.2119
 1971TIP3    H127328   0.451   1.453   5.426 -1.1580 -3.1140  0.9095
 1971TIP3    H227329   0.349   1.552   5.479 -0.2553 -0.4028 -2.0863
 1972TIP3   OH227330   1.731   5.125   1.002  0.3674  0.6469 -0.2345
 1972TIP3    H127331   1.826   5.121   0.992  0.2925  0.1968 -0.9006
 1972TIP3    H227332   1.717   5.164   1.088  1.1800 -0.9808  0.6956
 1973TIP3   OH227333   5.098   3.643   3.814  0.0850 -0.4474 -0.0470
 1973TIP3    H127334   5.189   3.630   3.842  0.1205 -0.1462 -0.0187
 1973TIP3    H227335   5.094   3.607   3.726  0.5248  0.5770 -0.4993
 1974TIP3   OH227336   3.793   3.393  11.058  0.1059 -0.3448 -0.2773
 1974TIP3    H127337   3.812   3.306  11.024 -0.6758 -0.5565 -0.1805
 1974TIP3    H227338   3.724   3.427  11.002 -0.0745 -0.0642  0.1108
 1975TIP3   OH227339   1.786   0.197  11.833  0.5071 -0.4172 -0.0555
 1975TIP3    H127340   1.747   0.265  11.888 -0.3629 -0.3055 -0.8054
 1975TIP3    H227341   1.829   0.138  11.896  0.9945  0.6290  0.6241
 1976TIP3   OH227342   6.761   5.881  15.896 -0.7637  0.3068 -0.4020
 1976TIP3    H127343   6.847   5.844  15.916 -0.0690  2.5195  1.0900
 1976TIP3    H227344   6.780   5.954  15.837 -1.3650  1.7626  1.1099
 1977TIP3   OH227345   2.041   3.072   6.069 -0.3899  0.4479  0.1970
 1977TIP3    H127346   1.964   3.016   6.063 -0.0039  0.0375 -2.0481
 1977TIP3    H227347   2.005   3.160   6.085 -1.1062 -0.1084  1.8616
 1978TIP3   OH227348   4.493   1.335   2.841  0.9099 -0.5613 -0.8147
 1978TIP3    H127349   4.581   1.297   2.840  0.7459 -0.9959  0.3674
 1978TIP3    H227350   4.508   1.429   2.848  1.2785 -0.6352 -0.6102
 1979TIP3   OH227351   3.737   6.642   1.696  0.1598 -0.7258  0.2900
 1979TIP3    H127352   3.675   6.697   1.744 -1.2738 -0.1708 -2.0100
 1979TIP3    H227353   3.792   6.703   1.648  0.2461 -1.2568 -0.3105
 1980TIP3   OH227354   1.433   1.372   1.312  0.7162  0.4618  0.2172
 1980TIP3    H127355   1.507   1.311   1.309  0.8554  0.5121  1.5958
 1980TIP3    H227356   1.417   1.396   1.221  1.7655 -0.3068 -0.1909
 1981TIP3   OH227357   2.510   0.937   4.000  0.5128  0.2045  0.0876
 1981TIP3    H127358   2.556   0.863   3.961  0.0251 -0.7577  1.2625
 1981TIP3    H227359   2.521   1.008   3.937  2.1623 -0.4649 -0.4359
 1982TIP3   OH227360   2.762   5.282   3.180  0.1230 -0.1882  0.2893
 1982TIP3    H127361   2.771   5.211   3.244  0.3173  0.8802  1.4883
 1982TIP3    H227362   2.724   5.354   3.230  2.0005  1.2875 -0.3250
 1983TIP3   OH227363   5.592   3.377   0.327 -0.3484 -0.7433 -0.2381
 1983TIP3    H127364   5.664   3.331   0.284  1.9613 -0.2085  2.7527
 1983TIP3    H227365   5.562   3.317   0.395 -0.3784  0.3235  0.7361
 1984TIP3   OH227366   5.571   5.547  12.006  0.1818  0.4027 -0.1994
 1984TIP3    H127367   5.580   5.600  12.086  1.9102  0.9559 -0.7232
 1984TIP3    H227368   5.486   5.571  11.971 -0.8602 -0.2175  1.7069
 1985TIP3   OH227369   4.984   0.190   0.195  0.3534  0.1372  0.2667
 1985TIP3    H127370   5.032   0.126   0.143 -3.0347 -1.4171 -1.2622
 1985TIP3    H227371   4.980   0.268   0.140  1.0412  0.2752  0.3998
 1986TIP3   OH227372   5.358   3.071  12.479 -0.1256  0.1627  0.0958
 1986TIP3    H127373   5.375   3.136  12.410  0.7944  0.0516  0.2081
 1986TIP3    H227374   5.273   3.033  12.455  0.2862 -0.0451 -1.1169
 1987TIP3   OH227375   5.178   1.784   5.588 -0.5382 -0.6649  0.2703
 1987TIP3    H127376   5.213   1.850   5.528  0.2321  0.0606  1.4597
 1987TIP3    H227377   5.225   1.703   5.565  0.0612 -0.2956  0.1737
 1988TIP3   OH227378   3.071   5.745   2.006  0.2234  0.2350 -0.6320
 1988TIP3    H127379   3.165   5.726   2.000  0.6486  1.9244 -0.0468
 1988TIP3    H227380   3.053   5.799   1.929 -0.0349  0.7715 -0.1956
 1989TIP3   OH227381   2.168   4.573   6.395  0.1608 -0.4447  0.4329
 1989TIP3    H127382   2.236   4.600   6.457  1.3462 -0.3259 -0.8688
 1989TIP3    H227383   2.090   4.558   6.449  0.2105  2.7582  1.6053
 1990TIP3   OH227384   3.609   4.282  12.787 -0.4546 -0.3800  0.1110
 1990TIP3    H127385   3.686   4.236  12.755 -0.0478  0.7760 -0.6472
 1990TIP3    H227386   3.627   4.297  12.880  0.4142  0.2011 -0.1407
 1991TIP3   OH227387   5.755   0.947   4.691 -0.6687  0.6565 -0.0447
 1991TIP3    H127388   5.839   0.927   4.649 -1.4475 -0.7428 -1.0119
 1991TIP3    H227389   5.745   1.042   4.680 -0.2015  0.5365 -1.8510
 1992TIP3   OH227390   3.065   2.180   5.349 -0.2475  0.5413  0.2241
 1992TIP3    H127391   3.092   2.166   5.258  0.2421 -0.4207  0.4942
 1992TIP3    H227392   3.147   2.192   5.396 -0.4040 -0.3515  0.7434
 1993TIP3   OH227393   5.480   6.338   4.989 -0.0723 -0.3841 -0.4509
 1993TIP3    H127394   5.457   6.429   5.007 -0.6821 -0.3693 -1.2517
 1993TIP3    H227395   5.573   6.332   5.009 -0.0583  0.3740 -0.2560
 1994TIP3   OH227396   1.896   1.472  12.401 -0.0894 -0.2035  0.2498
 1994TIP3    H127397   1.933   1.559  12.384  0.2423 -0.3760  0.0805
 1994TIP3    H227398   1.820   1.489  12.457 -0.3119  0.2416 -0.1775
 1995TIP3   OH227399   2.934   0.523   3.269 -0.2255  0.4531  0.3279
 1995TIP3    H127400   2.985   0.594   3.308 -0.0181  0.1627  0.5853
 1995TIP3    H227401   2.996   0.450   3.261  0.2903  1.0527 -2.2637
 1996TIP3   OH227402   5.810   6.245   0.940  0.1620  0.0911 -0.4299
 1996TIP3    H127403   5.904   6.238   0.920  0.1227  0.2415 -0.6760
 1996TIP3    H227404   5.768   6.245   0.854 -0.0155  0.7263 -0.3489
 1997TIP3   OH227405   6.335   2.438   2.323  0.1502  0.3162  0.7027
 1997TIP3    H127406   6.409   2.463   2.268  1.0650 -1.8458  0.8746
 1997TIP3    H227407   6.374   2.411   2.406 -0.8834 -0.3504  0.9931
 1998TIP3   OH227408   6.673   4.392  15.219  0.4802 -0.3803  0.0084
 1998TIP3    H127409   6.578   4.382  15.225  0.3816  0.8503  0.8964
 1998TIP3    H227410   6.691   4.473  15.266  2.2740 -1.9579  2.2639
 1999TIP3   OH227411   5.832   5.433  15.754 -0.1643 -0.1841  0.5928
 1999TIP3    H127412   5.841   5.477  15.839  0.7046  0.6783  0.0864
 1999TIP3    H227413   5.740   5.442  15.732 -0.1685  0.6384  0.9062
 2000TIP3   OH227414   6.744   0.782   3.994  0.3311  0.3346  0.4056
 2000TIP3    H127415   6.770   0.796   3.903 -2.5226  2.7640 -0.2019
 2000TIP3    H227416   6.825   0.791   4.044  1.4248  2.9052 -1.6045
 2001TIP3   OH227417   3.134   2.148  10.118  0.2667  0.0116 -0.1036
 2001TIP3    H127418   3.052   2.187  10.088 -0.6802 -2.2566 -0.6717
 2001TIP3    H227419   3.149   2.187  10.204 -1.6505  0.2054  0.1951
 2002TIP3   OH227420   1.220   2.775   4.085  0.6293  0.1780 -0.1992
 2002TIP3    H127421   1.231   2.855   4.034 -0.7364  0.2752 -0.3632
 2002TIP3    H227422   1.151   2.726   4.039 -0.4588  0.1533  1.3943
 2003TIP3   OH227423   1.627   3.022  13.811  0.1034  0.0702 -0.2268
 2003TIP3    H127424   1.669   2.987  13.733 -0.4357  0.3951 -0.6608
 2003TIP3    H227425   1.571   2.951  13.842  1.7836 -0.7988  1.0075
 2004TIP3   OH227426   0.670   6.015   3.384  0.5196 -0.0214 -0.1639
 2004TIP3    H127427   0.754   6.017   3.432  0.7753  0.7685 -0.6329
 2004TIP3    H227428   0.631   5.930   3.408  2.4467 -1.4217 -1.6501
 2005TIP3   OH227429   2.896   1.421   0.334  0.7821  0.4625  0.1352
 2005TIP3    H127430   2.877   1.505   0.292 -0.3434  0.5138  0.7330
 2005TIP3    H227431   2.955   1.443   0.406 -1.1589  1.0734  1.6139
 2006TIP3   OH227432   6.577   1.776   3.928 -0.5309  0.4449 -0.4961
 2006TIP3    H127433   6.570   1.736   4.015 -1.8199  0.3811 -0.6238
 2006TIP3    H227434   6.610   1.864   3.945 -1.3155  0.6303  0.1140
 2007TIP3   OH227435   2.409   4.002   2.735 -0.0707 -0.1780 -0.6274
 2007TIP3    H127436   2.468   4.058   2.786 -2.1051  1.2103  0.3445
 2007TIP3    H227437   2.430   4.023   2.644 -0.4840  1.9587 -0.2997
 2008TIP3   OH227438   3.711   3.388   3.583  0.2925 -0.2611  0.0994
 2008TIP3    H127439   3.761   3.468   3.564  0.4216 -0.0183  1.3782
 2008TIP3    H227440   3.761   3.345   3.652 -1.1163 -0.1586  1.2117
 2009TIP3   OH227441   3.136   2.694  16.589 -0.4942  0.2720 -0.1731
 2009TIP3    H127442   3.099   2.783  16.588 -1.1360  0.0387 -2.3447
 2009TIP3    H227443   3.129   2.667  16.680  0.1104  2.5939  0.6493
 2010TIP3   OH227444   6.531   4.057  16.789  0.9702 -0.1374 -0.2333
 2010TIP3    H127445   6.469   3.988  16.765 -0.4434  0.3148  1.8450
 2010TIP3    H227446   6.527   4.120  16.717 -0.3038 -0.5775 -0.5653
 2011TIP3   OH227447   4.022   5.709  16.779  0.5220 -0.6132 -0.2202
 2011TIP3    H127448   4.042   5.763  16.703  1.1726 -0.1119  0.2944
 2011TIP3    H227449   3.956   5.647  16.748 -1.0128  1.1032 -0.5681
 2012TIP3   OH227450   4.648   0.915  16.385 -0.4595  0.1634 -0.4757
 2012TIP3    H127451   4.723   0.882  16.334 -0.1637  0.3004 -0.1275
 2012TIP3    H227452   4.645   0.859  16.462 -0.9569 -0.0907 -0.6742
 2013TIP3   OH227453   6.110   4.810  11.088 -0.2919  0.3577 -0.0016
 2013TIP3    H127454   6.069   4.887  11.049 -1.4451 -0.1682  0.1351
 2013TIP3    H227455   6.037   4.756  11.117  0.5146  0.3952  2.2901
 2014TIP3   OH227456   6.700   3.028  15.319 -0.2957  0.4215  0.3906
 2014TIP3    H127457   6.637   3.094  15.289  0.1247  0.5317 -0.3004
 2014TIP3    H227458   6.687   3.022  15.413 -0.1441  1.7227  0.5144
 2015TIP3   OH227459   5.288   0.118  17.128 -0.0772  0.3571 -0.4613
 2015TIP3    H127460   5.353   0.056  17.163  0.7621 -0.8873 -3.8585
 2015TIP3    H227461   5.318   0.204  17.157  1.8952 -0.3788 -0.1743
 2016TIP3   OH227462   1.289   2.916  11.293 -0.0112 -0.0692  0.5350
 2016TIP3    H127463   1.305   3.008  11.274 -0.4555 -0.0733  0.1337
 2016TIP3    H227464   1.375   2.874  11.283 -0.3405 -0.2264 -2.3765
 2017TIP3   OH227465   0.068   0.256  15.804  0.2858  0.0007 -0.6600
 2017TIP3    H127466   0.002   0.245  15.873  1.4444  1.6159  0.7795
 2017TIP3    H227467   0.017   0.277  15.726 -0.9649  0.1509  0.1601
 2018TIP3   OH227468   0.673   5.679   1.050  0.9088  0.6416  0.1294
 2018TIP3    H127469   0.630   5.599   1.081  0.1350  1.3945  1.0679
 2018TIP3    H227470   0.714   5.653   0.968  0.9364 -0.7962  0.5602
 2019TIP3   OH227471   4.587   6.736   4.657 -0.0034 -0.5451  0.2266
 2019TIP3    H127472   4.527   6.754   4.729 -0.6327  0.7831 -0.5843
 2019TIP3    H227473   4.674   6.736   4.697 -0.1612  1.9810  0.7791
 2020TIP3   OH227474   4.834   6.490   4.853 -0.0088  0.1564 -0.2105
 2020TIP3    H127475   4.880   6.451   4.778 -0.5696 -0.4531 -0.2405
 2020TIP3    H227476   4.869   6.445   4.929  0.2944  0.5213 -0.1298
 2021TIP3   OH227477   3.187   5.841   6.633  0.5325  0.2896 -0.3365
 2021TIP3    H127478   3.128   5.914   6.614  1.5416  1.2168 -0.0495
 2021TIP3    H227479   3.169   5.777   6.565 -0.7677  0.5556 -0.2710
 2022TIP3   OH227480   2.478   6.284   2.407 -0.0938  0.0135  0.2143
 2022TIP3    H127481   2.425   6.246   2.477  0.9716 -0.6507  0.6703
 2022TIP3    H227482   2.453   6.235   2.329 -2.1645  1.5440 -0.1623
 2023TIP3   OH227483   2.408   5.883   1.753  0.3809  0.0871  0.1533
 2023TIP3    H127484   2.368   5.892   1.667  1.4594  0.0722 -0.3682
 2023TIP3    H227485   2.390   5.793   1.779  1.7428 -0.5428 -0.9664
 2024TIP3   OH227486   6.781   4.763  14.466  0.2490  0.2728 -0.5312
 2024TIP3    H127487   6.802   4.747  14.374 -2.0263  1.9643 -1.4397
 2024TIP3    H227488   6.815   4.686  14.512 -0.7015 -1.8606 -3.1174
 2025TIP3   OH227489   1.350   1.065   4.704  0.4300  0.3202 -0.3035
 2025TIP3    H127490   1.315   0.986   4.662  0.8292  1.0806 -2.1334
 2025TIP3    H227491   1.289   1.135   4.677  1.4248  1.0494 -0.7032
 2026TIP3   OH227492   3.828   6.649   2.512 -0.3537 -0.0329  0.2074
 2026TIP3    H127493   3.764   6.636   2.442  0.1853  1.4041 -0.5971
 2026TIP3    H227494   3.780   6.697   2.580  0.2829  2.9673 -1.2758
 2027TIP3   OH227495   6.006   2.166  13.823 -0.1976 -0.2068 -0.6221
 2027TIP3    H127496   5.916   2.134  13.819 -0.4382  0.4864 -1.0262
 2027TIP3    H227497   5.999   2.249  13.870  0.4177 -0.7450  0.4460
 2028TIP3   OH227498   0.687   5.712  11.108  0.1977  0.0294 -0.2111
 2028TIP3    H127499   0.661   5.652  11.177  0.1578  0.7424  0.3987
 2028TIP3    H227500   0.650   5.796  11.134  0.6617  0.4256 -0.8122
 2029TIP3   OH227501   0.985   6.711   1.743  0.6750 -0.0762  0.6859
 2029TIP3    H127502   0.956   6.707   1.652  2.3195 -0.5345  0.1573
 2029TIP3    H227503   1.078   6.731   1.738  1.0427 -1.2456  2.2242
 2030TIP3   OH227504   0.368   3.683  14.503 -0.9181  0.0832 -0.1380
 2030TIP3    H127505   0.422   3.722  14.572 -1.5887  1.1727 -0.1952
 2030TIP3    H227506   0.419   3.697  14.423 -0.6836 -0.0895 -0.0189
 2031TIP3   OH227507   0.706   0.168  13.246  0.2567 -0.0069 -0.0077
 2031TIP3    H127508   0.697   0.159  13.340 -0.9164 -1.8620 -0.2464
 2031TIP3    H227509   0.643   0.236  13.222  1.0546  0.9622  0.6052
 2032TIP3   OH227510   3.159   4.365  16.816  0.5478 -0.1811 -0.1977
 2032TIP3    H127511   3.084   4.370  16.758  1.2302 -0.3890 -1.1148
 2032TIP3    H227512   3.121   4.352  16.903 -0.5196  1.0545 -0.4486
 2033TIP3   OH227513   0.257   2.706   0.393 -0.7861 -0.3498  0.3681
 2033TIP3    H127514   0.342   2.741   0.366 -1.3765 -0.4010 -1.8289
 2033TIP3    H227515   0.223   2.770   0.455  0.6334 -0.0748  0.8940
 2034TIP3   OH227516   0.365   2.467  16.625  0.4852  0.3043  0.4030
 2034TIP3    H127517   0.315   2.467  16.543  2.2944  1.8007 -0.7729
 2034TIP3    H227518   0.340   2.384  16.668 -3.2046  1.1004  0.1259
 2035TIP3   OH227519   0.518   1.338   3.409  0.5296  0.0252 -0.6889
 2035TIP3    H127520   0.462   1.375   3.341  0.3771 -0.9621 -1.1280
 2035TIP3    H227521   0.577   1.279   3.362  0.0913 -1.0565  0.0783
 2036TIP3   OH227522   5.691   1.690  16.775  0.5764 -0.3764 -0.0342
 2036TIP3    H127523   5.749   1.766  16.775 -0.2559  0.2743  0.1953
 2036TIP3    H227524   5.733   1.628  16.716  1.4998  0.0845  0.1275
 2037TIP3   OH227525   0.606   0.597   3.558  0.3176 -1.0925 -0.6875
 2037TIP3    H127526   0.558   0.517   3.534 -1.2257 -1.1155  2.1426
 2037TIP3    H227527   0.540   0.655   3.595  1.3888  1.6145 -2.6619
 2038TIP3   OH227528   2.139   4.966   3.210  0.4898 -0.1749  1.0761
 2038TIP3    H127529   2.104   4.988   3.297 -1.1279 -1.6543  0.8445
 2038TIP3    H227530   2.061   4.953   3.156  1.4693 -0.2529 -0.3544
 2039TIP3   OH227531   2.183   1.107  15.251 -0.0646 -0.3916 -0.0624
 2039TIP3    H127532   2.273   1.107  15.218  0.1015 -1.3952  0.3414
 2039TIP3    H227533   2.175   1.024  15.299 -1.4103 -0.6396 -0.6603
 2040TIP3   OH227534   1.241   2.279  12.073 -0.1143  0.1566 -0.0033
 2040TIP3    H127535   1.241   2.184  12.082 -0.0458  0.1039 -0.5582
 2040TIP3    H227536   1.327   2.306  12.103 -0.1884  0.0584  0.2987
 2041TIP3   OH227537   0.700   2.990  16.199  0.2723  0.2243 -0.0545
 2041TIP3    H127538   0.629   3.024  16.144 -0.0642  0.3314  0.4370
 2041TIP3    H227539   0.722   3.063  16.257  1.8465  0.7251 -1.2026
 2042TIP3   OH227540   6.601   3.480   6.002 -0.0535  0.3173 -0.3930
 2042TIP3    H127541   6.543   3.554   5.990  0.5031  1.0068  0.8977
 2042TIP3    H227542   6.579   3.446   6.089 -0.0297 -0.7859 -0.8007
 2043TIP3   OH227543   2.342   0.730  13.021  0.0054 -0.5051 -0.0039
 2043TIP3    H127544   2.252   0.721  12.989 -0.4037  0.3697  0.8402
 2043TIP3    H227545   2.393   0.748  12.942 -0.3682 -2.0819 -0.6315
 2044TIP3   OH227546   0.313   4.525   4.060  0.4585  0.9558 -0.0205
 2044TIP3    H127547   0.403   4.548   4.085  0.4645  3.9304 -2.2010
 2044TIP3    H227548   0.323   4.473   3.980  0.2482 -0.1641  0.6710
 2045TIP3   OH227549   1.182   0.319  14.735  0.1179 -0.1387  0.5307
 2045TIP3    H127550   1.159   0.376  14.662  0.4856 -0.7961 -0.1082
 2045TIP3    H227551   1.100   0.306  14.783 -0.2641 -0.2420 -0.1502
 2046TIP3   OH227552   3.099   3.876   0.223  0.8612 -0.1175 -0.0976
 2046TIP3    H127553   3.164   3.811   0.199 -0.2019 -0.9991 -0.7057
 2046TIP3    H227554   3.015   3.829   0.219 -0.3243  1.9244 -3.4041
 2047TIP3   OH227555   1.629   5.553  11.384  0.1728  0.0231  0.2014
 2047TIP3    H127556   1.694   5.544  11.454 -1.9033  0.1319  2.2665
 2047TIP3    H227557   1.649   5.638  11.344  1.0953  0.2130  1.0118
 2048TIP3   OH227558   3.686   5.469  16.184 -0.8624  0.1668 -0.4250
 2048TIP3    H127559   3.669   5.443  16.093 -1.0197 -2.0518  0.1725
 2048TIP3    H227560   3.601   5.497  16.217 -0.7267  1.3629 -1.0558
 2049TIP3   OH227561   2.072   4.469  17.203 -0.3433  0.6621 -0.4151
 2049TIP3    H127562   2.114   4.499  17.123  0.7040  0.7747  0.1562
 2049TIP3    H227563   2.120   4.513  17.273 -0.8814  0.1368  0.2973
 2050TIP3   OH227564   2.434   4.618   0.586 -0.6324  0.3074 -0.0107
 2050TIP3    H127565   2.473   4.698   0.622 -0.8705  0.1531  0.5947
 2050TIP3    H227566   2.477   4.547   0.634  1.0122 -0.0393 -1.8880
 2051TIP3   OH227567   6.166   1.363   2.858  0.0451  0.8172  0.3377
 2051TIP3    H127568   6.207   1.280   2.880  0.3701  1.0180  0.4955
 2051TIP3    H227569   6.238   1.420   2.832 -0.3225  0.5801 -1.3305
 2052TIP3   OH227570   3.696   1.625  11.562 -0.0751 -0.0039 -0.0414
 2052TIP3    H127571   3.735   1.548  11.521  3.5464  1.0878  0.9620
 2052TIP3    H227572   3.767   1.690  11.565 -1.7196  1.9330  2.8177
 2053TIP3   OH227573   0.427   5.027   3.063 -0.1188 -0.0301  0.3934
 2053TIP3    H127574   0.515   5.057   3.039 -0.2132 -1.8653 -2.8067
 2053TIP3    H227575   0.441   4.940   3.100 -0.4527  0.6899  2.3112
 2054TIP3   OH227576   1.445   6.376  15.594 -0.2997 -0.0374  0.0525
 2054TIP3    H127577   1.483   6.292  15.620  0.2393  0.2261  0.1132
 2054TIP3    H227578   1.409   6.412  15.676  1.9561  1.0854  0.6180
 2055TIP3   OH227579   4.358   1.610   3.349 -0.1796  0.0658  0.1447
 2055TIP3    H127580   4.343   1.696   3.387  2.4030 -0.2718  2.2283
 2055TIP3    H227581   4.361   1.550   3.423 -4.1916 -2.3972 -1.3447
 2056TIP3   OH227582   4.273   6.339  11.470  0.0339 -0.2904 -0.1867
 2056TIP3    H127583   4.233   6.425  11.484  0.5907  0.0725 -0.7417
 2056TIP3    H227584   4.336   6.354  11.400  1.0875 -0.8539  0.6100
 2057TIP3   OH227585   1.459   0.921   0.818  0.1557  0.7029  0.4187
 2057TIP3    H127586   1.503   0.837   0.826  1.8890  1.6893  2.1776
 2057TIP3    H227587   1.525   0.980   0.781 -1.4512  1.0717 -2.1765
 2058TIP3   OH227588   3.501   0.119  15.143  0.4706  0.2610 -0.0652
 2058TIP3    H127589   3.470   0.087  15.228  3.3139 -1.5297  0.4344
 2058TIP3    H227590   3.593   0.094  15.141  0.6983  1.0250 -3.3569
 2059TIP3   OH227591   3.989   6.598   2.982  0.0819 -0.1877  0.5209
 2059TIP3    H127592   3.962   6.666   3.043  2.1471  1.8499 -0.6778
 2059TIP3    H227593   4.079   6.621   2.958  0.5963 -2.9129 -0.5749
 2060TIP3   OH227594   2.577   4.643  15.990  0.0110  0.1699 -0.0452
 2060TIP3    H127595   2.496   4.691  16.003 -0.4095 -0.7306  0.7985
 2060TIP3    H227596   2.639   4.708  15.958 -1.1465  0.7841 -1.1128
 2061TIP3   OH227597   2.778   5.963  15.083 -0.0701  0.5404  0.4951
 2061TIP3    H127598   2.774   5.882  15.134  0.0863  0.9224  1.1323
 2061TIP3    H227599   2.816   6.026  15.143 -1.5041  1.4567  0.4796
 2062TIP3   OH227600   1.512   1.911  10.941 -0.0542 -0.1836 -0.3383
 2062TIP3    H127601   1.552   1.828  10.915  1.0310  0.2257 -0.0503
 2062TIP3    H227602   1.560   1.977  10.891 -2.2595  0.1584 -2.1181
 2063TIP3   OH227603   0.104   3.325  16.927 -0.1473 -0.3045  0.4719
 2063TIP3    H127604   0.191   3.290  16.905 -0.6933 -1.0421 -0.5636
 2063TIP3    H227605   0.047   3.249  16.928 -1.3664  0.4818 -1.7952
 2064TIP3   OH227606   5.831   3.256   4.503  0.0864  0.2644  0.1487
 2064TIP3    H127607   5.800   3.213   4.583  0.2319 -0.2141 -0.0501
 2064TIP3    H227608   5.890   3.193   4.463  0.7707  0.8887  0.1539
 2065TIP3   OH227609   2.650   4.687  16.257  0.2927  0.1012  0.3696
 2065TIP3    H127610   2.659   4.717  16.167  0.9444  0.0535  0.4095
 2065TIP3    H227611   2.601   4.756  16.301  1.1479  0.7807  0.2910
 2066TIP3   OH227612   0.335   0.051   4.673 -0.0867  0.3352 -0.0904
 2066TIP3    H127613   0.397   0.043   4.601  0.3230 -1.7910  0.4211
 2066TIP3    H227614   0.368   0.124   4.726  0.4447  0.9419 -1.2359
 2067TIP3   OH227615   2.798   2.309  16.797 -0.0437 -0.5019 -0.2973
 2067TIP3    H127616   2.790   2.325  16.703 -1.1946 -1.2113 -0.3388
 2067TIP3    H227617   2.752   2.383  16.838  0.4655 -0.1880 -0.2717
 2068TIP3   OH227618   5.996   6.581  13.488 -0.3059 -0.0342  0.2141
 2068TIP3    H127619   5.993   6.584  13.392  0.7201  2.3254  0.1965
 2068TIP3    H227620   6.056   6.508  13.507  2.4932  1.7389 -1.1061
 2069TIP3   OH227621   1.178   4.979  11.367  0.1953 -0.2736  0.4459
 2069TIP3    H127622   1.223   4.914  11.313 -1.0186  0.1184 -1.1030
 2069TIP3    H227623   1.088   4.946  11.374 -0.5574  1.4042 -0.7249
 2070TIP3   OH227624   6.327   6.695  11.373 -0.4253  0.1239  0.0860
 2070TIP3    H127625   6.385   6.705  11.449 -1.0332 -1.1646  0.7604
 2070TIP3    H227626   6.385   6.703  11.298  0.5819 -0.7571  0.7391
 2071TIP3   OH227627   3.015   4.341  12.279 -0.1982  0.2549 -0.5888
 2071TIP3    H127628   2.949   4.274  12.264  0.4243 -0.4812 -0.0977
 2071TIP3    H227629   2.987   4.383  12.361  0.2218 -0.4195 -0.0880
 2072TIP3   OH227630   1.037   4.272  16.785  0.5353 -0.0671  0.3252
 2072TIP3    H127631   0.956   4.322  16.793  0.6527  0.4290 -1.2956
 2072TIP3    H227632   1.083   4.312  16.711  1.7403 -1.0750  0.4921
 2073TIP3   OH227633   5.785   4.835   4.961  0.1885 -0.9576  0.0373
 2073TIP3    H127634   5.866   4.791   4.933 -0.2855 -2.0294  0.2820
 2073TIP3    H227635   5.804   4.864   5.050  0.2559 -1.3533  0.1566
 2074TIP3   OH227636   1.135   4.751  15.909  0.5517  0.3590  0.2188
 2074TIP3    H127637   1.224   4.786  15.903  0.7822 -0.4626 -2.9516
 2074TIP3    H227638   1.136   4.672  15.855 -2.6048  1.4757 -1.7310
 2075TIP3   OH227639   4.525   6.341   5.710  0.1133  0.1229  0.0949
 2075TIP3    H127640   4.486   6.373   5.792  0.8562  1.3587 -0.0077
 2075TIP3    H227641   4.555   6.252   5.731 -0.1534  0.2336  1.0165
 2076TIP3   OH227642   1.059   2.023   0.334 -0.7872  0.0768  0.1879
 2076TIP3    H127643   1.058   2.081   0.410 -0.0638  1.1280 -0.5776
 2076TIP3    H227644   1.059   1.934   0.371 -1.0651  0.5630  1.3884
 2077TIP3   OH227645   2.206   2.108   2.484  0.3758  0.2094 -0.3261
 2077TIP3    H127646   2.198   2.122   2.578  0.1813 -0.2836 -0.2627
 2077TIP3    H227647   2.233   2.016   2.476  0.7762  0.3556 -0.7376
 2078TIP3   OH227648   1.612   1.940  17.233 -0.2631  0.7607 -0.2481
 2078TIP3    H127649   1.677   1.892  17.284 -0.5814  0.5343 -0.0552
 2078TIP3    H227650   1.557   1.982  17.299  0.6092  2.2138 -0.4049
 2079TIP3   OH227651   3.714   0.684   5.976 -0.2398  0.0620 -0.0832
 2079TIP3    H127652   3.752   0.599   5.953 -0.4629 -0.1144  0.1965
 2079TIP3    H227653   3.775   0.721   6.040  0.3448  0.5231 -0.8944
 2080TIP3   OH227654   5.522   2.399   5.568  0.0697 -0.3126  0.1369
 2080TIP3    H127655   5.539   2.412   5.661 -0.7820  1.0368  0.1269
 2080TIP3    H227656   5.474   2.477   5.541  0.8358 -0.3847 -1.5799
 2081TIP3   OH227657   1.185   3.695  12.476 -0.2768 -0.1993  0.3820
 2081TIP3    H127658   1.279   3.691  12.458 -0.2147 -1.7417  0.8718
 2081TIP3    H227659   1.178   3.694  12.572 -0.7862 -0.1691  0.3507
 2082TIP3   OH227660   2.642   5.851  12.744 -0.3692  0.0109 -0.0184
 2082TIP3    H127661   2.587   5.836  12.822  2.8222 -2.1555  2.0405
 2082TIP3    H227662   2.647   5.946  12.737  1.6417  0.4611  4.4682
 2083TIP3   OH227663   5.066   5.659  12.802  0.2149 -0.2430 -0.5881
 2083TIP3    H127664   5.098   5.628  12.887 -0.3809  0.3655 -0.1289
 2083TIP3    H227665   4.972   5.645  12.805 -0.0879  1.6143 -0.3414
 2084TIP3   OH227666   4.205   6.758   5.468  0.4058 -0.6135  0.7606
 2084TIP3    H127667   4.202   6.694   5.539  0.8139 -0.9658  0.4639
 2084TIP3    H227668   4.114   6.771   5.443  0.1933 -0.0107  1.7745
 2085TIP3   OH227669   2.199   3.470  14.974 -0.1550  0.7638 -0.4955
 2085TIP3    H127670   2.137   3.541  14.989  0.3579  1.2224 -0.4868
 2085TIP3    H227671   2.253   3.501  14.900  0.4199  0.6282 -0.1421
 2086TIP3   OH227672   1.033   6.334   1.061 -0.3831 -0.0362  0.6733
 2086TIP3    H127673   1.022   6.273   1.134 -3.1950 -1.1667 -0.5521
 2086TIP3    H227674   1.002   6.286   0.984  2.6754  1.0142 -1.3989
 2087TIP3   OH227675   1.834   6.078  12.758 -0.0587 -0.4298 -0.0033
 2087TIP3    H127676   1.744   6.057  12.782 -0.1015  0.6209  0.8018
 2087TIP3    H227677   1.832   6.171  12.734  0.7932 -0.4185 -0.0589
 2088TIP3   OH227678   2.662   4.457   4.830 -0.1463 -0.2934 -0.5598
 2088TIP3    H127679   2.631   4.470   4.919  0.2701  1.1004 -0.5834
 2088TIP3    H227680   2.751   4.425   4.839  0.0470  0.2595 -0.4593
 2089TIP3   OH227681   2.633   2.282   5.754 -0.3953  0.2419  0.2397
 2089TIP3    H127682   2.615   2.206   5.698 -0.3939 -0.1985  0.8177
 2089TIP3    H227683   2.551   2.332   5.754  0.2910  1.5136 -2.0001
 2090TIP3   OH227684   3.489   2.930   1.775 -0.1923  0.5037  0.2377
 2090TIP3    H127685   3.577   2.906   1.803  0.0713  0.1962 -0.8115
 2090TIP3    H227686   3.450   2.847   1.747  0.1225  1.0053 -1.8011
 2091TIP3   OH227687   2.714   3.909   0.728 -0.1451  0.1467 -0.4549
 2091TIP3    H127688   2.745   3.917   0.818  0.0053 -2.6379 -0.1621
 2091TIP3    H227689   2.664   3.827   0.727 -1.5101  0.9223 -2.5582
 2092TIP3   OH227690   0.567   3.188   1.017  0.0384 -0.2326  0.3148
 2092TIP3    H127691   0.657   3.218   1.003  0.2078 -1.1403 -0.6766
 2092TIP3    H227692   0.513   3.261   0.988  0.4509 -0.2478 -0.5194
 2093TIP3   OH227693   4.544   1.418  14.583  0.2742  0.0900 -0.5503
 2093TIP3    H127694   4.575   1.480  14.650  0.3383  1.2715 -1.6195
 2093TIP3    H227695   4.551   1.332  14.625 -0.5263  0.8444  1.2648
 2094TIP3   OH227696   3.947   5.878  17.220 -0.1742 -0.9019  0.2268
 2094TIP3    H127697   4.029   5.886  17.270  0.3215  1.2241 -0.8573
 2094TIP3    H227698   3.960   5.799  17.167  1.3763 -0.3478 -0.2683
 2095TIP3   OH227699   0.287   3.788  13.084  0.0996  0.1389  0.4463
 2095TIP3    H127700   0.239   3.766  13.164 -2.3809 -1.2476 -1.2787
 2095TIP3    H227701   0.280   3.709  13.030 -0.5992  1.8527 -2.1566
 2096TIP3   OH227702   2.681   1.993   5.046  0.0750 -0.0599 -0.0830
 2096TIP3    H127703   2.741   2.057   5.084 -0.5789  1.1648 -1.0388
 2096TIP3    H227704   2.620   2.045   4.993 -0.9347 -1.4039 -0.3081
 2097TIP3   OH227705   1.023   4.581   4.315  0.6398  0.3793 -0.0509
 2097TIP3    H127706   1.110   4.549   4.293 -0.3431 -1.3097 -1.7723
 2097TIP3    H227707   0.994   4.525   4.387  0.8214  0.6991  0.2740
 2098TIP3   OH227708   2.710   1.122  16.889  0.0075  0.3256 -0.3403
 2098TIP3    H127709   2.677   1.033  16.874 -0.0939  0.5164 -1.3133
 2098TIP3    H227710   2.697   1.137  16.983 -4.8262  1.2079 -0.8936
 2099TIP3   OH227711   2.392   5.700  16.320 -0.3877 -0.2179  0.6091
 2099TIP3    H127712   2.306   5.725  16.287 -0.7091 -0.7640  1.0012
 2099TIP3    H227713   2.443   5.679  16.242 -1.3511 -2.1894  0.4382
 2100TIP3   OH227714   1.253   3.059  15.958  0.3139  0.1992  0.6694
 2100TIP3    H127715   1.162   3.046  15.930  1.1585 -2.9513 -1.1620
 2100TIP3    H227716   1.253   3.038  16.051 -0.6002 -1.3834  0.3445
 2101TIP3   OH227717   4.187   3.765   5.175 -0.3655  0.3187  0.2649
 2101TIP3    H127718   4.096   3.765   5.206 -1.4444 -2.4457 -2.3867
 2101TIP3    H227719   4.215   3.674   5.181  1.8596  0.9276 -0.0258
 2102TIP3   OH227720   0.149   0.710  17.208  0.3896 -0.4559  0.0064
 2102TIP3    H127721   0.137   0.631  17.261  1.0213 -0.2320  0.4930
 2102TIP3    H227722   0.087   0.773  17.245  1.1981 -0.1271  0.8463
 2103TIP3   OH227723   4.272   5.292   1.639 -0.7926  0.1205  0.1621
 2103TIP3    H127724   4.336   5.354   1.672  1.1681 -1.2019 -0.9526
 2103TIP3    H227725   4.234   5.252   1.717  1.7162 -0.9545  0.9252
 2104TIP3   OH227726   3.647   6.374   3.096  0.1404  0.1145 -0.3915
 2104TIP3    H127727   3.589   6.437   3.054 -0.6830  0.6775  1.4605
 2104TIP3    H227728   3.716   6.427   3.136  0.4227 -0.3166 -0.2936
 2105TIP3   OH227729   5.032   0.724   0.244 -1.1325  0.3375 -0.0319
 2105TIP3    H127730   5.034   0.819   0.228 -0.1871  0.0112 -2.2793
 2105TIP3    H227731   5.093   0.710   0.315  0.4737  1.2412 -1.1714
 2106TIP3   OH227732   4.354   2.921   2.353 -0.4285  0.5122 -0.6872
 2106TIP3    H127733   4.258   2.923   2.354 -0.4901 -0.9150 -0.8585
 2106TIP3    H227734   4.376   2.882   2.268  0.3524  1.6020 -1.0099
 2107TIP3   OH227735   4.070   6.123   3.285 -0.6399 -0.2356  0.4454
 2107TIP3    H127736   4.035   6.036   3.305 -1.6483  0.0355 -0.0409
 2107TIP3    H227737   4.113   6.112   3.200 -0.7525 -0.2702  0.3916
 2108TIP3   OH227738   4.902   3.597  15.419 -0.0703 -0.2306 -0.4694
 2108TIP3    H127739   4.832   3.596  15.354 -1.3855 -0.2055  0.8821
 2108TIP3    H227740   4.886   3.676  15.470  0.6032 -0.5232  0.2149
 2109TIP3   OH227741   5.614   3.812   4.497 -0.0517  0.3908  0.1921
 2109TIP3    H127742   5.533   3.838   4.453 -1.0022  1.0696  2.1887
 2109TIP3    H227743   5.675   3.884   4.479 -0.3867  0.6054 -0.1044
 2110TIP3   OH227744   3.291   5.817  11.367  0.0623 -0.1534 -0.7159
 2110TIP3    H127745   3.229   5.819  11.440  1.1284 -2.0584  0.3419
 2110TIP3    H227746   3.331   5.904  11.367 -0.6785  0.2107  0.3323
 2111TIP3   OH227747   6.150   5.719  16.223 -0.2148 -0.6561 -0.4218
 2111TIP3    H127748   6.121   5.629  16.217 -0.6916 -0.8646  3.1362
 2111TIP3    H227749   6.070   5.770  16.233  0.1215 -0.6254  3.6897
 2112TIP3   OH227750   5.585   2.701   0.591 -0.0353  0.1862  0.0243
 2112TIP3    H127751   5.621   2.731   0.675 -0.5338 -0.1787  0.3717
 2112TIP3    H227752   5.560   2.610   0.607  2.0887 -0.6865 -1.1962
 2113TIP3   OH227753   6.618   1.484  16.254 -0.0800  0.4800  0.2800
 2113TIP3    H127754   6.594   1.461  16.164 -2.9117  1.6924  0.6044
 2113TIP3    H227755   6.576   1.416  16.308  2.0888 -0.5857  0.7469
 2114TIP3   OH227756   5.219   6.397   4.267 -0.4610 -0.2311  0.0159
 2114TIP3    H127757   5.224   6.383   4.173 -0.3313  1.0413 -0.1804
 2114TIP3    H227758   5.170   6.479   4.277  1.6797  1.0404  0.9050
 2115TIP3   OH227759   0.104   5.411   4.250 -0.1766  0.4802  0.4383
 2115TIP3    H127760   0.101   5.472   4.176 -0.1405  1.2898  1.0899
 2115TIP3    H227761   0.114   5.467   4.327 -0.6026 -0.3303  1.0971
 2116TIP3   OH227762   2.035   5.432  17.204  0.2351  0.2121 -0.2551
 2116TIP3    H127763   1.961   5.387  17.245 -0.5362  0.2465 -1.5418
 2116TIP3    H227764   2.103   5.433  17.271 -0.6092 -0.6466  0.6463
 2117TIP3   OH227765   4.095   4.422  15.002 -0.1767  0.3487  0.3246
 2117TIP3    H127766   4.093   4.511  14.966 -2.1653  0.7114  1.1778
 2117TIP3    H227767   4.111   4.366  14.926  1.0652  1.4006 -0.2312
 2118TIP3   OH227768   2.761   1.742   3.314  0.1143 -0.3450 -0.0516
 2118TIP3    H127769   2.853   1.726   3.336 -0.1782 -1.8995  0.1519
 2118TIP3    H227770   2.737   1.668   3.259 -1.4980 -0.9328  1.3661
 2119TIP3   OH227771   4.612   1.247  12.552  0.1340 -0.4212 -0.3683
 2119TIP3    H127772   4.579   1.331  12.584  0.9401  0.1941 -1.1164
 2119TIP3    H227773   4.556   1.227  12.476  0.1673 -0.3981 -0.3985
 2120TIP3   OH227774   1.837   4.184  11.866 -0.0991  0.3662  0.0982
 2120TIP3    H127775   1.785   4.164  11.789  0.0663  2.3014 -0.5661
 2120TIP3    H227776   1.788   4.253  11.911  0.9643  0.9202  0.4435
 2121TIP3   OH227777   6.160   0.781   3.577  0.2407  0.3589  0.0813
 2121TIP3    H127778   6.166   0.761   3.484  0.8215  0.5994  0.0663
 2121TIP3    H227779   6.191   0.871   3.585  1.2849 -0.0385  0.6543
 2122TIP3   OH227780   5.360   6.148   5.182  0.5774  0.8384 -0.7558
 2122TIP3    H127781   5.376   6.204   5.106  0.9957 -1.2259 -2.2907
 2122TIP3    H227782   5.268   6.124   5.175  1.0680 -0.9439 -1.8461
 2123TIP3   OH227783   2.673   2.135   2.674  0.4057  0.2196  0.0759
 2123TIP3    H127784   2.664   2.041   2.688 -0.6411  0.7529  3.9889
 2123TIP3    H227785   2.589   2.163   2.638 -0.5340  0.0568  2.0537
 2124TIP3   OH227786   0.588   5.037   0.454  0.1265 -0.2336  0.3933
 2124TIP3    H127787   0.626   5.118   0.488  0.8551 -1.1596  1.9176
 2124TIP3    H227788   0.663   4.981   0.434 -0.3625 -0.6719 -0.2703
 2125TIP3   OH227789   1.753   5.317   5.564  0.0956  0.0090  0.4904
 2125TIP3    H127790   1.742   5.222   5.555  0.8582 -0.1060  0.7084
 2125TIP3    H227791   1.681   5.344   5.621 -1.2869 -0.1318 -1.0801
 2126TIP3   OH227792   3.922   2.463  14.647  0.1561  0.3673 -0.1899
 2126TIP3    H127793   3.957   2.506  14.569 -0.4860  0.3271 -0.5091
 2126TIP3    H227794   3.829   2.449  14.627  0.3837 -1.3827 -0.2102
 2127TIP3   OH227795   0.309   2.253   3.258 -0.4833  0.7980  0.0197
 2127TIP3    H127796   0.371   2.325   3.270  1.2740 -0.3556 -1.6074
 2127TIP3    H227797   0.273   2.266   3.170 -1.5030  0.6514  0.4006
 2128TIP3   OH227798   1.111   1.746  15.078 -0.1219  0.1690 -0.4283
 2128TIP3    H127799   1.119   1.842  15.076  1.3570  0.0494 -1.0963
 2128TIP3    H227800   1.068   1.724  14.996 -0.9540  0.2681 -0.0397
 2129TIP3   OH227801   6.548   0.398  12.967  0.4057 -0.3975  0.2223
 2129TIP3    H127802   6.568   0.441  13.050  0.9525 -2.9457  1.5080
 2129TIP3    H227803   6.455   0.379  12.971  0.4337 -0.5264  0.2563
 2130TIP3   OH227804   3.501   1.518  12.354  0.2133  0.1169 -0.6376
 2130TIP3    H127805   3.541   1.470  12.426 -0.9884  1.3590  0.9076
 2130TIP3    H227806   3.561   1.590  12.336 -0.2612  0.7450  0.2417
 2131TIP3   OH227807   2.552   0.547  17.204  0.1722  0.2220 -0.1844
 2131TIP3    H127808   2.504   0.486  17.259  0.7131 -1.5320 -1.5806
 2131TIP3    H227809   2.624   0.496  17.166 -0.3967  1.1822 -2.8320
 2132TIP3   OH227810   5.530   6.720  13.160 -0.0349 -0.0688  0.0708
 2132TIP3    H127811   5.483   6.637  13.157 -0.4691  0.1575  0.4890
 2132TIP3    H227812   5.610   6.704  13.110 -0.2991 -0.6191 -0.1834
 2133TIP3   OH227813   2.444   1.262   1.249 -0.0310  0.1753 -0.0085
 2133TIP3    H127814   2.432   1.241   1.156  1.2762  0.2636 -0.2176
 2133TIP3    H227815   2.400   1.191   1.295  2.4923 -1.9835 -0.7155
 2134TIP3   OH227816   3.960   4.247   3.100  0.1416  0.0745 -0.0527
 2134TIP3    H127817   4.032   4.205   3.146 -0.3543 -0.6791  0.0607
 2134TIP3    H227818   3.945   4.329   3.147  0.1896 -0.2930  0.6092
 2135TIP3   OH227819   4.877   3.461   4.477  0.2319 -0.0965 -0.3375
 2135TIP3    H127820   4.890   3.484   4.569  0.3126 -0.2700 -0.3052
 2135TIP3    H227821   4.941   3.514   4.429  1.6901 -1.5871 -0.1095
 2136TIP3   OH227822   4.172   0.531   3.816  0.5823  0.3365 -0.0074
 2136TIP3    H127823   4.218   0.590   3.757  2.1207  0.6726  1.4656
 2136TIP3    H227824   4.229   0.454   3.822  0.3436  0.2161  0.8464
 2137TIP3   OH227825   3.391   4.657   2.917 -0.2046 -0.0151 -0.0338
 2137TIP3    H127826   3.379   4.749   2.941  0.6412  0.4105 -1.1276
 2137TIP3    H227827   3.315   4.637   2.861 -0.3520  0.0432  0.1456
 2138TIP3   OH227828   2.567   0.806   0.359 -0.5570 -0.0512 -0.2638
 2138TIP3    H127829   2.559   0.869   0.430  0.6326 -0.3845  0.2052
 2138TIP3    H227830   2.550   0.856   0.280 -0.3286  0.6983  0.1475
 2139TIP3   OH227831   3.105   2.705  11.570  0.0483  0.0633 -0.1074
 2139TIP3    H127832   3.166   2.742  11.506 -0.4671  0.0906 -0.5927
 2139TIP3    H227833   3.045   2.652  11.518 -0.7630  0.5965  0.2673
 2140TIP3   OH227834   2.874   0.368  15.489 -0.0784  0.0632 -0.2125
 2140TIP3    H127835   2.829   0.429  15.548 -0.4934 -0.0715 -0.3884
 2140TIP3    H227836   2.967   0.384  15.505 -0.1764  1.2449 -0.7630
 2141TIP3   OH227837   5.931   0.747  15.504  0.2028  0.1327 -0.2721
 2141TIP3    H127838   5.905   0.832  15.467  3.1425  1.1350 -0.3698
 2141TIP3    H227839   5.864   0.686  15.475 -0.6951  1.9650 -2.3656
 2142TIP3   OH227840   2.130   0.065   5.030  0.6522  0.6354 -0.0778
 2142TIP3    H127841   2.064   0.086   5.095  1.7738  2.2081  0.6106
 2142TIP3    H227842   2.101  -0.018   4.991  0.2302 -0.6375  2.7577
 2143TIP3   OH227843   2.854   4.494  13.360 -0.4827  0.5882  0.1918
 2143TIP3    H127844   2.813   4.571  13.320 -0.0758  0.6678 -0.0856
 2143TIP3    H227845   2.881   4.523  13.447  2.6307  1.8051 -1.0535
 2144TIP3   OH227846   3.240   5.791  12.026  0.0274  0.6917  0.1254
 2144TIP3    H127847   3.301   5.783  12.099  0.4440 -0.8805 -0.3589
 2144TIP3    H227848   3.157   5.815  12.066  0.8607  2.6437  0.8189
 2145TIP3   OH227849   3.654   4.675   0.675  0.0222 -0.2821 -0.4177
 2145TIP3    H127850   3.614   4.729   0.743 -1.2376 -1.7774  0.1139
 2145TIP3    H227851   3.622   4.586   0.694  0.6348 -0.9389 -2.2365
 2146TIP3   OH227852   0.757   0.984  13.203  0.0533  0.1125 -0.1018
 2146TIP3    H127853   0.852   0.984  13.193 -0.0672 -2.2096 -2.2465
 2146TIP3    H227854   0.725   1.023  13.122 -0.8389 -0.0584  0.1621
 2147TIP3   OH227855   2.182   4.026   1.577  0.4297 -0.1061 -0.1026
 2147TIP3    H127856   2.171   3.949   1.521 -0.3089 -1.1563  1.4320
 2147TIP3    H227857   2.179   4.100   1.516 -1.0981 -1.1595 -1.3823
 2148TIP3   OH227858   5.483   1.835   1.019  0.0311 -0.0219 -0.0550
 2148TIP3    H127859   5.495   1.901   0.950 -0.1785  3.7682  3.1664
 2148TIP3    H227860   5.388   1.835   1.035  0.1924 -0.0220  0.9470
 2149TIP3   OH227861   4.237   5.583  15.039  0.5974  0.0157  0.2873
 2149TIP3    H127862   4.249   5.559  15.131  0.7292  0.5724  0.4225
 2149TIP3    H227863   4.250   5.678  15.038 -0.0517  0.1018 -0.2021
 2150TIP3   OH227864   2.660   1.235  17.202 -0.4839  0.3353  0.0303
 2150TIP3    H127865   2.682   1.154  17.248 -1.7236  1.0423  2.0076
 2150TIP3    H227866   2.717   1.301  17.242 -1.2869  0.8906  0.2735
 2151TIP3   OH227867   4.911   2.791  10.943  0.4062  0.0917  0.0770
 2151TIP3    H127868   4.908   2.721  10.878 -1.4414  0.8462 -0.7461
 2151TIP3    H227869   4.899   2.746  11.027  1.4072 -0.7568 -0.2159
 2152TIP3   OH227870   5.272   5.434   6.089  0.2356 -0.1693  0.6676
 2152TIP3    H127871   5.203   5.490   6.126 -0.8675  0.4512 -2.0573
 2152TIP3    H227872   5.273   5.357   6.146 -2.9939 -0.3483  0.7123
 2153TIP3   OH227873   5.560   6.227  15.055 -0.0106  0.0519  0.3897
 2153TIP3    H127874   5.558   6.173  15.134 -0.4368 -0.6406 -0.0809
 2153TIP3    H227875   5.617   6.180  14.995 -2.7140 -1.5363 -1.1413
 2154TIP3   OH227876   0.922   0.919  14.685 -0.3267 -0.2183  0.0263
 2154TIP3    H127877   0.976   0.876  14.618 -1.9953 -0.4620 -1.2584
 2154TIP3    H227878   0.977   0.922  14.763  1.2148 -1.1887 -0.9668
 2155TIP3   OH227879   5.883   1.516  15.956 -0.2064  0.0413  0.3382
 2155TIP3    H127880   5.855   1.587  16.014  2.6002  2.5235 -1.0640
 2155TIP3    H227881   5.904   1.443  16.015 -3.2109  0.1968  1.8301
 2156TIP3   OH227882   3.153   2.739   2.102  0.4846  0.1342 -0.1969
 2156TIP3    H127883   3.119   2.654   2.075 -0.8869  0.6454 -0.1384
 2156TIP3    H227884   3.088   2.802   2.073  1.1762  1.1154  0.3117
 2157TIP3   OH227885   5.950   1.739   0.608  0.3714 -0.5108 -0.0039
 2157TIP3    H127886   5.910   1.719   0.524 -1.2568  0.0909  0.5722
 2157TIP3    H227887   5.968   1.654   0.647 -2.2552 -0.9262  0.5245
 2158TIP3   OH227888   2.437   1.371  11.024 -0.7869  0.0833 -0.4069
 2158TIP3    H127889   2.453   1.352  10.932 -1.5771  0.1809 -0.5740
 2158TIP3    H227890   2.400   1.460  11.024  0.6014  0.6921  0.1442
 2159TIP3   OH227891   3.663   0.322  16.474 -0.0796  0.0233 -0.0171
 2159TIP3    H127892   3.705   0.301  16.391 -1.2859  0.1848 -0.7018
 2159TIP3    H227893   3.733   0.357  16.529  0.9424 -1.0297 -0.6058
 2160TIP3   OH227894   4.795   6.720   0.954  0.0474  0.0771 -0.3673
 2160TIP3    H127895   4.748   6.728   1.037 -0.1807  1.4190 -0.6005
 2160TIP3    H227896   4.872   6.775   0.964 -1.2046  2.2427 -1.8411
 2161TIP3   OH227897   3.810   3.379   3.887 -0.5900  0.5033 -0.2207
 2161TIP3    H127898   3.902   3.391   3.866  0.3203 -1.8919  1.8543
 2161TIP3    H227899   3.794   3.436   3.962  0.3068 -1.6232  1.7138
 2162TIP3   OH227900   3.842   2.721   2.934  0.3074 -0.3952  0.7252
 2162TIP3    H127901   3.822   2.801   2.884  1.0613 -1.2082 -0.9804
 2162TIP3    H227902   3.861   2.752   3.022  0.5003  1.3150  0.1296
 2163TIP3   OH227903   3.037   5.883   6.273  0.2865 -0.1621 -0.1966
 2163TIP3    H127904   3.051   5.977   6.259  3.0522 -0.5089 -0.2434
 2163TIP3    H227905   2.950   5.877   6.311 -0.3044  2.3382 -0.9888
 2164TIP3   OH227906   6.568   3.669  11.585 -0.4952  0.1331  0.3727
 2164TIP3    H127907   6.656   3.636  11.602 -1.4804 -2.5712  0.7415
 2164TIP3    H227908   6.564   3.677  11.490  0.7518  2.2721  0.4550
 2165TIP3   OH227909   2.389   6.518   4.691  0.5079 -0.2200 -0.3667
 2165TIP3    H127910   2.456   6.586   4.700  0.3683 -0.0215 -0.7761
 2165TIP3    H227911   2.378   6.483   4.779 -1.1023  1.8752  0.3375
 2166TIP3   OH227912   3.332   0.514  14.981  0.1959  0.6958  0.2940
 2166TIP3    H127913   3.392   0.570  15.030 -0.4544  0.7852  1.0125
 2166TIP3    H227914   3.382   0.433  14.964 -0.4538 -0.5847  3.7184
 2167TIP3   OH227915   4.160   4.471  17.187  0.3378 -0.4516 -0.3006
 2167TIP3    H127916   4.083   4.505  17.230 -0.2144 -1.7181 -0.2434
 2167TIP3    H227917   4.181   4.536  17.120 -0.8598 -0.1488 -0.4039
 2168TIP3   OH227918   1.822   0.554  14.330  0.4738 -0.2374 -0.1524
 2168TIP3    H127919   1.832   0.516  14.417  2.9909  0.4197 -0.0673
 2168TIP3    H227920   1.912   0.559  14.296 -0.3624  0.2503 -2.4741
 2169TIP3   OH227921   4.853   3.283   2.126 -0.5356  0.0713 -0.1430
 2169TIP3    H127922   4.759   3.300   2.114 -0.6121 -0.2176  0.0260
 2169TIP3    H227923   4.873   3.215   2.062 -0.1994  0.8857 -0.9169
 2170TIP3   OH227924   1.701   2.405   3.831 -0.0555  0.0325  0.0322
 2170TIP3    H127925   1.643   2.467   3.875  1.5199  1.6072 -0.0547
 2170TIP3    H227926   1.644   2.360   3.768 -1.0580  2.0569 -0.5885
 2171TIP3   OH227927   4.636   0.629  13.837 -0.6694 -0.0440  0.3333
 2171TIP3    H127928   4.627   0.607  13.744 -1.5724  0.4777  0.2863
 2171TIP3    H227929   4.547   0.649  13.866 -0.2941  0.5369  1.1303
 2172TIP3   OH227930   3.716   3.004  13.556 -0.1348 -0.6208 -0.5697
 2172TIP3    H127931   3.743   2.952  13.631  0.2904 -2.4540 -1.9271
 2172TIP3    H227932   3.794   3.057  13.535  0.0119 -0.6986 -0.2355
 2173TIP3   OH227933   2.940   5.994   5.124 -0.3806 -0.1537  0.3790
 2173TIP3    H127934   2.909   5.965   5.210 -1.1201  0.1346  0.2112
 2173TIP3    H227935   2.875   6.059   5.095  0.1745  0.1819 -0.1407
 2174TIP3   OH227936   1.885   0.665   0.728  0.3567 -0.9071 -0.2406
 2174TIP3    H127937   1.973   0.658   0.692  1.7820  2.5464  2.0170
 2174TIP3    H227938   1.894   0.636   0.819 -0.9120 -0.7956 -0.0636
 2175TIP3   OH227939   1.184   5.005   4.487 -1.0017 -0.0945  0.8875
 2175TIP3    H127940   1.243   5.043   4.552  1.4758  1.3349 -1.9458
 2175TIP3    H227941   1.096   5.023   4.520  0.0311 -1.2742  4.7467
 2176TIP3   OH227942   0.389   1.667  14.662 -0.7348  0.1519  0.0151
 2176TIP3    H127943   0.457   1.599  14.660 -1.0459 -0.2109  0.9688
 2176TIP3    H227944   0.317   1.632  14.610 -0.1718  0.5775 -1.0799
 2177TIP3   OH227945   1.713   1.121  10.866 -0.0566 -0.3919 -0.1951
 2177TIP3    H127946   1.678   1.090  10.783  0.7899 -0.2731 -0.6047
 2177TIP3    H227947   1.762   1.200  10.844 -0.1234 -0.1547  0.4705
 2178TIP3   OH227948   6.347   3.756  13.369 -0.2464 -0.3225 -0.0781
 2178TIP3    H127949   6.321   3.843  13.397  0.2827 -0.5526  1.1980
 2178TIP3    H227950   6.388   3.769  13.284 -0.2877  0.6495  0.0436
 2179TIP3   OH227951   0.086   1.164  16.950  0.5433  0.2379  0.1034
 2179TIP3    H127952   0.140   1.086  16.955  0.0419 -0.0056  2.6671
 2179TIP3    H227953  -0.002   1.134  16.970 -0.4042  0.8776 -2.5978
 2180TIP3   OH227954   1.569   3.002  14.775 -0.4826 -0.0114 -0.4173
 2180TIP3    H127955   1.588   2.947  14.850 -1.0917 -0.8820 -0.8817
 2180TIP3    H227956   1.520   2.945  14.715 -1.5073  1.1500 -0.7261
 2181TIP3   OH227957   4.484   5.748   1.787 -0.1901 -0.6950  0.3245
 2181TIP3    H127958   4.448   5.833   1.764  0.5831 -0.3194  0.4752
 2181TIP3    H227959   4.574   5.766   1.817 -0.3347 -1.4353  1.2932
 2182TIP3   OH227960   4.940   6.336   1.416 -0.3642  0.6437  0.1333
 2182TIP3    H127961   4.976   6.277   1.481  0.7135  0.0425 -0.9784
 2182TIP3    H227962   4.849   6.307   1.404 -0.0997 -0.2295  0.2230
 2183TIP3   OH227963   5.950   0.706  15.782 -0.1483  0.0555 -0.3397
 2183TIP3    H127964   5.907   0.784  15.815 -1.3452 -0.5100 -0.5161
 2183TIP3    H227965   5.965   0.723  15.689 -0.3935  0.0765 -0.3738
 2184TIP3   OH227966   1.972   5.912   4.658  0.2220 -0.3968 -0.3208
 2184TIP3    H127967   2.003   5.912   4.568  0.7507  1.5805 -0.1721
 2184TIP3    H227968   1.908   5.983   4.661 -1.5718 -1.9374  0.3286
 2185TIP3   OH227969   6.588   2.912   5.649 -0.0928  0.3737 -0.0794
 2185TIP3    H127970   6.609   2.911   5.556  0.4678 -1.0043  0.0469
 2185TIP3    H227971   6.583   2.820   5.674  2.1504  0.6509  1.7749
 2186TIP3   OH227972   0.783   4.617   2.519  0.3143  0.2419 -0.9359
 2186TIP3    H127973   0.703   4.564   2.519  0.3562  0.1542 -2.1084
 2186TIP3    H227974   0.805   4.628   2.611 -0.4776 -0.6073 -0.6369
 2187TIP3   OH227975   0.356   4.508   6.057 -0.4997 -0.6347  0.6535
 2187TIP3    H127976   0.344   4.454   5.978 -0.4911  1.1530 -0.6263
 2187TIP3    H227977   0.275   4.558   6.064  0.6961  1.5551 -0.1359
 2188TIP3   OH227978   6.547   4.712  13.670  0.2891  0.3885  0.2700
 2188TIP3    H127979   6.525   4.762  13.591  0.2344  1.4315  0.9327
 2188TIP3    H227980   6.554   4.778  13.739 -0.6457 -0.6094  1.3611
 2189TIP3   OH227981   0.607   1.904   1.046  0.2051 -0.9547 -0.1452
 2189TIP3    H127982   0.511   1.900   1.036 -0.0643  1.6059  0.5110
 2189TIP3    H227983   0.621   1.896   1.140  0.7833 -2.5145 -0.3396
 2190TIP3   OH227984   6.106   6.024  11.414  0.3848  0.9197 -0.3135
 2190TIP3    H127985   6.049   5.952  11.442  1.4896  0.3528  0.5555
 2190TIP3    H227986   6.054   6.103  11.429 -0.9903  0.3176 -1.6312
 2191TIP3   OH227987   0.813   4.613   1.002  0.5209  0.2273  0.1011
 2191TIP3    H127988   0.814   4.699   1.046 -0.0657 -0.3795  1.3621
 2191TIP3    H227989   0.818   4.634   0.909  2.0283  1.5729  0.4316
 2192TIP3   OH227990   5.468   2.077  12.147 -0.4010 -0.1685 -0.2209
 2192TIP3    H127991   5.492   1.989  12.175 -2.3798 -0.7699 -0.2336
 2192TIP3    H227992   5.551   2.118  12.122  0.7426 -1.5045  1.1784
 2193TIP3   OH227993   4.391   1.216   1.567 -0.2677 -0.4825 -0.1210
 2193TIP3    H127994   4.446   1.285   1.529 -0.1386  0.5777  1.8857
 2193TIP3    H227995   4.453   1.151   1.599  0.0669  1.2868  3.2655
 2194TIP3   OH227996   5.080   6.737   4.895 -0.4973 -0.4776  0.4002
 2194TIP3    H127997   5.059   6.831   4.894 -0.6606 -0.4554 -2.6530
 2194TIP3    H227998   5.104   6.720   4.986  0.9121  2.8425  0.8249
 2195TIP3   OH227999   4.312   4.175   6.028 -0.4852  0.0152  0.0975
 2195TIP3    H128000   4.376   4.111   5.997 -1.9346 -0.4700 -2.1117
 2195TIP3    H228001   4.271   4.133   6.103 -0.5077 -1.1008 -0.5182
 2196TIP3   OH228002   1.650   1.718   6.651 -0.2856 -0.4862  0.0146
 2196TIP3    H128003   1.568   1.680   6.621 -0.9103 -1.1709  2.3381
 2196TIP3    H228004   1.709   1.643   6.664  0.5118 -0.0612 -0.9989
 2197TIP3   OH228005   4.587   3.304  16.757 -0.1877  0.1763 -0.0992
 2197TIP3    H128006   4.550   3.251  16.828  0.6055  0.9074  0.8917
 2197TIP3    H228007   4.511   3.344  16.716 -0.7150 -0.8281 -0.1395
 2198TIP3   OH228008   0.977   0.741   2.520 -0.4749  0.2291 -0.0679
 2198TIP3    H128009   0.961   0.681   2.593  0.2675  0.4745  0.3077
 2198TIP3    H228010   0.937   0.824   2.548 -0.8479  0.1169 -0.2656
 2199TIP3   OH228011   5.308   0.182   2.048 -0.5870 -0.8307  0.0303
 2199TIP3    H128012   5.238   0.132   2.091 -0.4625  0.4489  1.7886
 2199TIP3    H228013   5.347   0.234   2.117  0.4599  0.3963 -1.4187
 2200TIP3   OH228014   0.690   5.138   3.054 -0.3235 -0.4342  0.4503
 2200TIP3    H128015   0.733   5.147   3.139  0.6139  0.4756 -0.0967
 2200TIP3    H228016   0.757   5.100   2.997 -0.8204 -0.6612  0.0078
 2201TIP3   OH228017   5.767   6.235   1.890  0.6705  0.2505 -0.6376
 2201TIP3    H128018   5.850   6.243   1.842  0.4175 -0.0385 -1.1375
 2201TIP3    H228019   5.701   6.271   1.830  0.3179 -0.3262 -0.6074
 2202TIP3   OH228020   2.969   3.935  16.452 -0.9425 -0.7915 -0.1025
 2202TIP3    H128021   2.965   3.979  16.367  0.2087  1.0726  0.7227
 2202TIP3    H228022   3.054   3.892  16.453 -1.8688 -2.7202 -0.7121
 2203TIP3   OH228023   4.521   4.643   0.914  0.1783 -0.2409 -0.1864
 2203TIP3    H128024   4.462   4.718   0.909 -1.4094 -1.4096  0.3259
 2203TIP3    H228025   4.597   4.676   0.963 -0.6806  0.9000  0.4243
 2204TIP3   OH228026   2.248   5.864  14.693 -0.4978  0.9354 -0.0284
 2204TIP3    H128027   2.298   5.821  14.624  0.2994  2.2985 -0.3302
 2204TIP3    H228028   2.162   5.823  14.690  0.0551 -0.2149 -0.6802
 2205TIP3   OH228029   6.504   3.975  14.008  0.0135  0.4972  0.2525
 2205TIP3    H128030   6.427   4.016  13.968  0.1347 -1.0788 -1.7018
 2205TIP3    H228031   6.546   4.047  14.056 -1.5010  1.8883 -0.3925
 2206TIP3   OH228032   6.011   4.926  12.885 -0.4253  0.2054  0.1168
 2206TIP3    H128033   6.035   4.840  12.850 -1.2048  0.4630 -1.1105
 2206TIP3    H228034   5.961   4.907  12.964  0.5121 -0.4225  0.5799
 2207TIP3   OH228035   0.184   3.730  13.326  0.1177  0.3824 -0.4597
 2207TIP3    H128036   0.091   3.709  13.320  0.5149 -1.0512 -2.6673
 2207TIP3    H228037   0.220   3.664  13.385 -0.2671  1.1337  0.6573
 2208TIP3   OH228038   4.434   6.259   3.887  0.1157  0.3463  0.0107
 2208TIP3    H128039   4.371   6.196   3.921  0.3834  0.5184  0.8509
 2208TIP3    H228040   4.519   6.215   3.895  0.1081  0.0542 -1.2602
 2209TIP3   OH228041   5.054   5.220   1.494 -0.5249 -0.2025 -0.2354
 2209TIP3    H128042   5.097   5.295   1.536  2.6746 -1.5511 -0.8053
 2209TIP3    H228043   4.966   5.218   1.533 -0.1638  2.7973  1.0186
 2210TIP3   OH228044   2.291   5.726   0.231  0.3062  0.3630 -0.5253
 2210TIP3    H128045   2.286   5.639   0.272  0.4782 -0.4378 -2.1150
 2210TIP3    H228046   2.307   5.786   0.304  1.3934 -1.0772  0.4867
 2211TIP3   OH228047   2.705   5.797   5.079  0.3932  0.1877  0.1501
 2211TIP3    H128048   2.648   5.841   5.016 -1.9617  0.8489  2.5349
 2211TIP3    H228049   2.719   5.709   5.043 -1.1940  0.4152 -1.0977
 2212TIP3   OH228050   1.719   5.923   5.329  0.0083 -0.9263 -0.4396
 2212TIP3    H128051   1.698   5.932   5.422  2.1499  0.1309  0.0020
 2212TIP3    H228052   1.796   5.867   5.327 -0.1868 -1.1731 -1.6114
 2213TIP3   OH228053   5.291   1.515   4.389 -0.0023  1.1873 -0.0232
 2213TIP3    H128054   5.257   1.426   4.400  1.8467  0.4141 -0.2530
 2213TIP3    H228055   5.212   1.569   4.377 -1.0982 -0.7695 -2.6229
 2214TIP3   OH228056   4.820   0.169   6.585 -0.3543  0.3987  0.2198
 2214TIP3    H128057   4.808   0.208   6.499 -0.4623  1.6053  0.7541
 2214TIP3    H228058   4.747   0.109   6.595  1.6727 -2.7393 -2.0407
 2215TIP3   OH228059   5.134   2.470  16.544  0.0077  0.2889 -0.3204
 2215TIP3    H128060   5.140   2.378  16.569 -0.7844  0.7781  1.9170
 2215TIP3    H228061   5.040   2.484  16.528  0.3819  0.2016 -3.0804
 2216TIP3   OH228062   0.220   3.582  11.904  0.1034 -0.6164  0.4359
 2216TIP3    H128063   0.198   3.501  11.950 -2.4883  0.7595  1.8349
 2216TIP3    H228064   0.139   3.632  11.904  1.5964  1.9705 -0.4499
 2217TIP3   OH228065   1.942   1.289  11.194 -0.3935 -0.3428  0.0029
 2217TIP3    H128066   2.026   1.243  11.197 -0.0407  0.2056 -1.0209
 2217TIP3    H228067   1.958   1.366  11.139 -1.6298 -0.3778 -0.4472
 2218TIP3   OH228068   2.656   1.771   3.935  0.3197 -0.2263 -0.1900
 2218TIP3    H128069   2.720   1.704   3.958 -1.7261 -1.5089  2.1769
 2218TIP3    H228070   2.684   1.849   3.984  0.2322 -0.7018  0.6258
 2219TIP3   OH228071   0.759   5.684   5.608  0.7533 -0.3944 -0.4209
 2219TIP3    H128072   0.713   5.634   5.675  1.6518 -1.8062 -0.8084
 2219TIP3    H228073   0.705   5.674   5.530  0.5529 -0.1206 -0.3206
 2220TIP3   OH228074   5.172   4.503  15.994 -0.2391  0.6852 -0.0884
 2220TIP3    H128075   5.106   4.531  15.930  0.0964  0.9415 -0.3242
 2220TIP3    H228076   5.256   4.527  15.955  0.0401 -0.2651 -0.1019
 2221TIP3   OH228077   6.317   1.111   0.060  0.2990  0.1854  0.6504
 2221TIP3    H128078   6.281   1.186   0.013  0.8741 -1.5251 -2.8948
 2221TIP3    H228079   6.401   1.142   0.093  0.2706  1.2737 -0.2413
 2222TIP3   OH228080   0.835   4.208   4.338 -0.0625 -0.7022  0.0599
 2222TIP3    H128081   0.745   4.180   4.319 -0.5589 -0.8972  2.4658
 2222TIP3    H228082   0.889   4.149   4.284 -1.3182 -1.7313 -0.1366
 2223TIP3   OH228083   4.573   1.993   2.152  0.0573 -0.0777  0.1187
 2223TIP3    H128084   4.483   1.967   2.172  0.2536 -1.9212 -1.1172
 2223TIP3    H228085   4.627   1.927   2.196  0.7185 -0.0340 -0.6143
 2224TIP3   OH228086   6.341   6.360   1.386  0.0189  0.5531  0.2335
 2224TIP3    H128087   6.335   6.321   1.474  0.9839 -1.0999 -0.3877
 2224TIP3    H228088   6.435   6.369   1.370 -0.0520 -0.9747 -1.3425
 2225TIP3   OH228089   4.206   3.699   3.896 -0.1224 -0.0056 -0.3363
 2225TIP3    H128090   4.221   3.771   3.956  0.9753 -0.2258 -0.3280
 2225TIP3    H228091   4.133   3.728   3.841  0.4098  1.1816 -0.4498
 2226TIP3   OH228092   3.953   3.189   5.045 -0.0988  0.1234  0.1528
 2226TIP3    H128093   3.929   3.270   5.001  0.6125  0.1610 -0.1861
 2226TIP3    H228094   3.935   3.120   4.981  1.5221  0.2294 -0.4752
 2227TIP3   OH228095   2.584   1.983  16.889  0.6242  0.7142 -0.0722
 2227TIP3    H128096   2.650   2.034  16.842 -0.2450  0.4284 -1.6675
 2227TIP3    H228097   2.531   2.048  16.934 -0.0740  1.2278 -1.5604
 2228TIP3   OH228098   4.653   0.957   1.007  0.0315 -0.1208 -0.2584
 2228TIP3    H128099   4.712   0.988   0.938 -0.8995 -0.1890 -1.1251
 2228TIP3    H228100   4.693   0.987   1.088  2.1436 -1.6395 -0.6629
 2229TIP3   OH228101   3.022   6.711  10.542 -0.2575  0.0365 -0.0436
 2229TIP3    H128102   2.957   6.642  10.528  1.2597 -1.7536  1.2791
 2229TIP3    H228103   3.049   6.701  10.633  1.2308  1.3098 -0.2947
 2230TIP3   OH228104   5.852   1.951  12.009  0.5483 -0.0581  0.0126
 2230TIP3    H128105   5.889   1.955  11.921  1.2906  1.2426  0.3555
 2230TIP3    H228106   5.902   1.882  12.053  1.8318  0.9198  0.1264
 2231TIP3   OH228107   4.947   5.769   1.601  0.0193 -0.1930 -0.9426
 2231TIP3    H128108   4.865   5.783   1.649 -0.3117  1.0894 -1.8228
 2231TIP3    H228109   4.983   5.858   1.589  2.3684 -0.7893  0.7872
 2232TIP3   OH228110   1.104   3.143  10.583  0.0942 -0.5656 -0.3112
 2232TIP3    H128111   1.185   3.177  10.622  0.4901 -1.6278 -0.1547
 2232TIP3    H228112   1.035   3.198  10.618  0.3588 -1.7734  2.3811
 2233TIP3   OH228113   2.103   6.496  11.212 -0.2613 -0.1586 -0.2993
 2233TIP3    H128114   2.125   6.409  11.178 -0.9863 -0.0465 -1.0841
 2233TIP3    H228115   2.007   6.496  11.217 -0.2331  0.3427  0.3932
 2234TIP3   OH228116   6.220   2.983  16.393  0.0147 -0.2990  0.2177
 2234TIP3    H128117   6.298   2.969  16.340 -0.1315 -1.9681  0.4025
 2234TIP3    H228118   6.241   3.059  16.448  1.4505 -0.6438  0.1737
 2235TIP3   OH228119   1.896   4.818  15.583  0.4700 -0.5835 -0.1273
 2235TIP3    H128120   1.934   4.904  15.602  0.4799 -1.0745  2.5827
 2235TIP3    H228121   1.890   4.814  15.488 -0.3264  2.7495 -0.3513
 2236TIP3   OH228122   2.105   1.795  13.464  0.2935  0.0231 -0.5145
 2236TIP3    H128123   2.093   1.871  13.522  1.2781  0.7156 -1.2048
 2236TIP3    H228124   2.158   1.827  13.392  2.3645 -1.7824  0.1046
 2237TIP3   OH228125   3.002   3.320  14.438 -0.1057 -0.1417 -0.5827
 2237TIP3    H128126   2.915   3.349  14.412 -1.0486 -0.2244  2.2021
 2237TIP3    H228127   2.994   3.225  14.448 -0.7809  0.1325  2.8747
 2238TIP3   OH228128   0.450   6.199   0.726 -0.9165 -0.4215  0.0024
 2238TIP3    H128129   0.384   6.137   0.759  1.6264 -2.8594  0.9550
 2238TIP3    H228130   0.509   6.213   0.800  0.5677  0.2925 -1.2519
 2239TIP3   OH228131   0.881   2.982   4.350  0.2046  0.3668 -0.0293
 2239TIP3    H128132   0.813   2.938   4.299  0.9472 -0.2170 -0.5396
 2239TIP3    H228133   0.919   3.044   4.288  1.0954 -0.3297 -0.2009
 2240TIP3   OH228134   1.388   3.167   6.421 -0.2533  0.0682 -0.1624
 2240TIP3    H128135   1.314   3.133   6.471 -0.7270  0.9762 -0.2335
 2240TIP3    H228136   1.416   3.093   6.367 -1.6461 -0.0556 -0.7556
 2241TIP3   OH228137   2.350   0.362  13.073  0.4185 -0.4876 -0.3845
 2241TIP3    H128138   2.377   0.400  12.990  0.8390 -0.5412 -0.2714
 2241TIP3    H228139   2.327   0.438  13.127  1.1364 -0.3973 -0.2021
 2242TIP3   OH228140   3.136   5.563  11.117 -0.2926  0.0889  0.1687
 2242TIP3    H128141   3.046   5.531  11.110  0.1577 -1.7913  2.0944
 2242TIP3    H228142   3.153   5.568  11.211  1.3239  1.3310 -0.1483
 2243TIP3   OH228143   2.700   4.324  14.389  0.2505 -0.0139  0.4353
 2243TIP3    H128144   2.712   4.270  14.467 -0.4085  1.9996  2.0071
 2243TIP3    H228145   2.789   4.345  14.360  0.5044 -0.2348  1.0439
 2244TIP3   OH228146   1.935   5.607  13.460 -0.3016 -0.2022  0.5131
 2244TIP3    H128147   1.976   5.556  13.530  0.4830  0.5519  0.6175
 2244TIP3    H228148   1.913   5.542  13.393 -0.2036 -0.8021  1.0501
 2245TIP3   OH228149   6.399   3.963  15.510  0.2803 -0.5615  0.5211
 2245TIP3    H128150   6.473   3.955  15.570 -1.8775 -2.7659  3.1638
 2245TIP3    H228151   6.349   4.037  15.544 -0.1724 -0.8525  0.4923
 2246TIP3   OH228152   1.373   3.725  16.025 -0.9763  0.1058  0.5884
 2246TIP3    H128153   1.358   3.748  16.117  0.9718  1.5369  0.6161
 2246TIP3    H228154   1.451   3.776  16.000 -0.6462 -1.2851 -1.4647
 2247TIP3   OH228155   1.491   5.547  12.474  0.2310 -0.2338  0.2776
 2247TIP3    H128156   1.490   5.534  12.379 -0.3546  0.6039  0.1568
 2247TIP3    H228157   1.399   5.542  12.500  0.3159  0.2579  0.6877
 2248TIP3   OH228158   6.396   1.595   2.509 -0.0912  0.1644  0.3270
 2248TIP3    H128159   6.394   1.601   2.413  0.1470  1.2202  0.3773
 2248TIP3    H228160   6.489   1.596   2.531 -0.1575  0.7952  0.6069
 2249TIP3   OH228161   3.289   0.806   2.899  0.8508  0.0293 -0.3355
 2249TIP3    H128162   3.344   0.873   2.940 -0.9309  0.3789  1.6348
 2249TIP3    H228163   3.252   0.849   2.823  0.5807  0.9624  0.3025
 2250TIP3   OH228164   5.355   5.246   1.467  0.0895  0.2440  0.1133
 2250TIP3    H128165   5.313   5.330   1.448  2.3294  1.5638  0.6216
 2250TIP3    H228166   5.407   5.228   1.389 -0.5059 -0.7961 -0.0589
 2251TIP3   OH228167   5.418   0.649  14.354 -0.0895 -0.0825  0.1957
 2251TIP3    H128168   5.341   0.592  14.348  1.0636 -1.5505 -2.0613
 2251TIP3    H228169   5.403   0.718  14.290  1.0913 -1.3073 -1.5067
 2252TIP3   OH228170   2.562   0.379  11.899  0.1540 -0.3875 -0.4158
 2252TIP3    H128171   2.621   0.445  11.864 -1.1794  0.7135 -0.6418
 2252TIP3    H228172   2.494   0.369  11.832 -1.4034  0.3736  0.9803
 2253TIP3   OH228173   0.256   5.451   1.020 -0.6886  0.6675  0.0265
 2253TIP3    H128174   0.244   5.457   1.115 -1.2204  0.1072 -0.0052
 2253TIP3    H228175   0.190   5.388   0.991  2.1141 -2.4730 -0.1558
 2254TIP3   OH228176   3.330   3.135   3.498  0.2573 -0.1930 -0.1117
 2254TIP3    H128177   3.352   3.091   3.580 -2.5394  0.6048  1.2013
 2254TIP3    H228178   3.405   3.120   3.441  1.8679 -1.6420  2.2419
 2255TIP3   OH228179   0.544   1.857   1.704 -0.6441  0.4148 -0.7451
 2255TIP3    H128180   0.456   1.819   1.708  0.1434 -1.3976  0.9022
 2255TIP3    H228181   0.602   1.782   1.691  0.9031  1.1083  1.5912
 2256TIP3   OH228182   4.602   1.408  17.019 -0.3501  0.0984  0.6001
 2256TIP3    H128183   4.526   1.447  17.062  0.4781  2.7891 -0.2252
 2256TIP3    H228184   4.620   1.465  16.944  0.1144 -2.6931 -1.6116
 2257TIP3   OH228185   4.001   3.205  16.951  0.0679  0.0377  0.2384
 2257TIP3    H128186   4.053   3.211  16.870  1.4529 -1.5336  0.9583
 2257TIP3    H228187   3.963   3.292  16.961  2.3277  1.1985 -0.5076
 2258TIP3   OH228188   3.193   1.240  14.889  0.5332  0.1316 -0.6157
 2258TIP3    H128189   3.123   1.280  14.941 -0.2948 -0.9662 -0.8423
 2258TIP3    H228190   3.150   1.168  14.842  2.3020 -2.3927  1.3572
 2259TIP3   OH228191   6.085   6.320   2.390  0.1733  0.1868  0.7843
 2259TIP3    H128192   6.173   6.343   2.417  1.2251 -1.6557 -0.8218
 2259TIP3    H228193   6.057   6.253   2.452  1.0666 -1.2541 -0.3013
 2260TIP3   OH228194   4.979   0.165  11.812 -0.1669  0.0268 -0.6019
 2260TIP3    H128195   4.936   0.119  11.885 -1.4115  0.0479 -1.2910
 2260TIP3    H228196   4.949   0.119  11.734  0.6127  0.4257 -1.1446
 2261TIP3   OH228197   5.070   3.029  17.233  0.3506 -0.5165  0.2278
 2261TIP3    H128198   5.010   3.104  17.238  0.5939 -0.3401  0.5419
 2261TIP3    H228199   5.028   2.969  17.171 -0.3371 -0.5691  0.7307
 2262TIP3   OH228200   0.641   0.040   6.004  0.1169 -0.0515  0.0334
 2262TIP3    H128201   0.668  -0.046   5.973 -0.6047 -0.8869  1.6377
 2262TIP3    H228202   0.691   0.053   6.084 -0.3190  0.7146  0.1908
 2263TIP3   OH228203   6.776   3.346  14.360  0.1316 -0.1058 -0.3842
 2263TIP3    H128204   6.728   3.428  14.348 -0.7461 -0.6695 -0.7848
 2263TIP3    H228205   6.830   3.339  14.281  0.5838  0.3209 -0.1227
 2264TIP3   OH228206   3.536   4.659   1.970 -0.1237 -0.0046  0.0773
 2264TIP3    H128207   3.558   4.632   2.060  1.8727 -0.9701 -0.6410
 2264TIP3    H228208   3.547   4.579   1.918 -0.5078  0.7111 -1.1464
 2265TIP3   OH228209   6.298   4.719   1.686 -0.0624  0.0324 -0.0980
 2265TIP3    H128210   6.288   4.663   1.763  0.9265  1.5116  1.1634
 2265TIP3    H228211   6.255   4.801   1.711  0.4555  0.6125 -1.0620
 2266TIP3   OH228212   4.130   1.494  12.477  0.2476 -0.1524 -0.2588
 2266TIP3    H128213   4.146   1.582  12.442 -0.0763  0.7176  1.6535
 2266TIP3    H228214   4.062   1.507  12.543  1.1854 -1.6204  1.0468
 2267TIP3   OH228215   1.377   0.138  14.383 -0.5608  0.1884  0.4484
 2267TIP3    H128216   1.384   0.193  14.305 -2.4288  1.7952  1.3309
 2267TIP3    H228217   1.307   0.076  14.363 -0.7834  0.3563  0.6948
 2268TIP3   OH228218   3.069   6.075  15.096 -0.1546  0.0719 -0.6915
 2268TIP3    H128219   3.075   6.107  15.187  0.7523 -0.8334 -0.4219
 2268TIP3    H228220   2.991   6.118  15.062 -0.6215  0.2973  0.5803
 2269TIP3   OH228221   0.929   2.603   4.213 -0.1366 -0.3573 -0.1830
 2269TIP3    H128222   0.914   2.636   4.124 -0.5604 -1.2025 -0.4372
 2269TIP3    H228223   0.947   2.510   4.201 -1.4303 -0.7446  0.7106
 2270TIP3   OH228224   6.213   3.504   2.215  0.4074  0.3758  0.1410
 2270TIP3    H128225   6.260   3.441   2.270  0.8565 -0.1832 -0.8572
 2270TIP3    H228226   6.181   3.453   2.142 -1.2919  0.8643  0.4940
 2271TIP3   OH228227   1.588   1.309   4.186 -0.1677 -0.0490 -0.4650
 2271TIP3    H128228   1.512   1.349   4.144  1.3139  0.6171 -2.6663
 2271TIP3    H228229   1.606   1.365   4.261 -1.3491  0.2442 -0.3825
 2272TIP3   OH228230   5.550   0.604  12.635 -0.0356 -0.0381 -0.3487
 2272TIP3    H128231   5.639   0.616  12.600 -0.3301 -0.3270 -1.2199
 2272TIP3    H228232   5.563   0.582  12.727  0.8451 -1.1078 -0.7116
 2273TIP3   OH228233   2.545   0.956   5.118 -0.1342  0.2782 -0.4194
 2273TIP3    H128234   2.516   1.044   5.095 -1.1757 -0.2398 -1.1306
 2273TIP3    H228235   2.471   0.899   5.096  1.1836 -1.0142 -1.7061
 2274TIP3   OH228236   4.872   2.847   0.851 -0.6257 -0.1087  0.4205
 2274TIP3    H128237   4.869   2.902   0.773  2.6583 -1.3257 -0.7413
 2274TIP3    H228238   4.809   2.777   0.835 -0.6849  0.1923 -0.6840
 2275TIP3   OH228239   2.929   5.643   0.727 -0.2015  0.4290 -0.0635
 2275TIP3    H128240   2.859   5.584   0.754 -0.2620  0.7021  0.3903
 2275TIP3    H228241   2.952   5.614   0.639 -1.1838  0.6068 -0.3938
 2276TIP3   OH228242   0.364   4.511  12.370  0.0038 -0.5582  0.7111
 2276TIP3    H128243   0.425   4.495  12.442  0.5728 -0.1538  0.3327
 2276TIP3    H228244   0.321   4.427  12.355  1.0899 -1.0917  0.4247
 2277TIP3   OH228245   1.435   3.083  12.959 -0.5730 -0.4947 -0.6728
 2277TIP3    H128246   1.503   3.016  12.951  0.1987  0.0841  0.7801
 2277TIP3    H228247   1.473   3.160  12.918 -0.5540 -0.3111 -0.3114
 2278TIP3   OH228248   4.109   1.524  15.489 -0.5130  0.0346  0.1666
 2278TIP3    H128249   4.115   1.553  15.580  0.9580  1.2402 -0.2782
 2278TIP3    H228250   4.132   1.431  15.492  1.6620  0.5392  0.8115
 2279TIP3   OH228251   2.561   1.469  12.257  0.4182  0.3970  0.4192
 2279TIP3    H128252   2.653   1.487  12.278  0.7911  0.8166 -1.3754
 2279TIP3    H228253   2.545   1.519  12.177 -0.9444 -0.8382 -0.1283
 2280TIP3   OH228254   6.607   0.306  15.980 -0.4362 -0.5554 -0.7752
 2280TIP3    H128255   6.565   0.296  16.065 -0.9670 -2.2357 -1.1963
 2280TIP3    H228256   6.542   0.351  15.926 -0.1889  0.2962 -0.3973
 2281TIP3   OH228257   5.629   5.585  11.722 -0.0428  0.0345  0.6970
 2281TIP3    H128258   5.590   5.671  11.706 -0.9750 -0.2179  1.4725
 2281TIP3    H228259   5.632   5.577  11.818 -0.9459 -1.1963  0.6551
 2282TIP3   OH228260   4.907   4.049   1.283  0.3802 -0.4090 -0.2145
 2282TIP3    H128261   4.888   4.140   1.302 -1.3837 -1.0340  1.3670
 2282TIP3    H228262   4.984   4.028   1.337  0.3784 -0.0220 -0.0619
 2283TIP3   OH228263   4.815   4.830  11.121 -0.4323  0.1912 -0.1776
 2283TIP3    H128264   4.855   4.853  11.037 -1.1971  0.8102 -0.3889
 2283TIP3    H228265   4.885   4.842  11.185 -0.7742  3.5064 -0.2087
 2284TIP3   OH228266   2.373   4.732   2.004  0.3509  0.0310 -0.1490
 2284TIP3    H128267   2.430   4.727   1.928  2.5148  3.2908  1.0716
 2284TIP3    H228268   2.307   4.798   1.981  0.0307 -0.1425  0.2472
 2285TIP3   OH228269   0.994   0.644   4.608 -0.0476 -0.3249  0.6819
 2285TIP3    H128270   1.004   0.693   4.690 -0.2829 -1.2108  1.2619
 2285TIP3    H228271   0.992   0.711   4.540 -2.1394  0.6222  1.5767
 2286TIP3   OH228272   0.789   6.403   4.242  0.4557 -0.0876  0.3784
 2286TIP3    H128273   0.700   6.369   4.254  0.4817 -0.5396 -0.6338
 2286TIP3    H228274   0.782   6.466   4.171  1.1958 -1.2761 -0.8110
 2287TIP3   OH228275   3.619   0.294  15.356 -0.3205  0.3281  0.3481
 2287TIP3    H128276   3.681   0.242  15.303  0.7488  1.6721  0.2393
 2287TIP3    H228277   3.655   0.382  15.356 -1.3110  0.7699  1.7872
 2288TIP3   OH228278   1.507   0.365   2.531 -0.1579  0.2757  0.1809
 2288TIP3    H128279   1.598   0.388   2.510 -0.5056  0.1911 -1.4935
 2288TIP3    H228280   1.458   0.445   2.515 -0.8992 -0.6417 -2.5778
 2289TIP3   OH228281   6.386   2.768  12.034  0.5006 -0.5369 -0.1004
 2289TIP3    H128282   6.420   2.679  12.027  2.0002  0.0913 -1.7948
 2289TIP3    H228283   6.301   2.759  12.077  0.7563 -2.7283  0.0478
 2290TIP3   OH228284   0.359   5.264   1.291  0.1409  0.7116 -0.4655
 2290TIP3    H128285   0.386   5.233   1.204 -0.6849 -1.2372 -0.0860
 2290TIP3    H228286   0.441   5.288   1.334  0.8341 -0.7757 -0.9010
 2291TIP3   OH228287   4.259   0.962   3.488  0.5368 -0.2734  0.2138
 2291TIP3    H128288   4.329   0.966   3.423  1.2032  0.1894  0.9402
 2291TIP3    H228289   4.207   1.041   3.472 -0.7860 -1.4123 -1.3595
 2292TIP3   OH228290   4.012   3.385   1.065 -0.1744  0.3433 -0.0260
 2292TIP3    H128291   4.050   3.443   1.132  2.1719 -0.8308 -0.2256
 2292TIP3    H228292   3.991   3.305   1.113 -0.1209  0.1269 -0.3602
 2293TIP3   OH228293   4.748   3.369  12.276 -0.3966 -0.1935  0.2627
 2293TIP3    H128294   4.700   3.327  12.348  0.9382 -2.5558 -0.1036
 2293TIP3    H228295   4.826   3.406  12.318 -0.7514  0.4756  0.3422
 2294TIP3   OH228296   5.632   3.186   6.029  0.3584  0.0353  0.0019
 2294TIP3    H128297   5.720   3.149   6.035  0.1259 -0.5706 -0.3168
 2294TIP3    H228298   5.599   3.184   6.119 -0.1063 -1.6480 -0.1907
 2295TIP3   OH228299   6.062   1.293  10.324 -0.2270  0.1131 -0.7404
 2295TIP3    H128300   6.051   1.202  10.353 -1.1529  0.3381 -0.3555
 2295TIP3    H228301   5.974   1.330  10.327  0.4921  1.9913  2.4294
 2296TIP3   OH228302   6.120   5.934   1.718 -0.5551 -0.2833  0.1788
 2296TIP3    H128303   6.034   5.965   1.745 -0.5862 -0.3586  0.1659
 2296TIP3    H228304   6.181   6.000   1.750 -0.3194 -1.6153  2.6646
 2297TIP3   OH228305   4.948   1.557  16.610  0.0704  0.1394  0.4058
 2297TIP3    H128306   4.933   1.476  16.657  1.9199 -0.7901 -0.5042
 2297TIP3    H228307   4.918   1.539  16.521  0.4884  0.4373  0.2009
 2298TIP3   OH228308   2.342   4.329   3.619 -0.2847  0.5524 -0.1446
 2298TIP3    H128309   2.382   4.257   3.667  2.3975  0.4027 -2.3815
 2298TIP3    H228310   2.365   4.407   3.670  2.0354  0.3419 -0.7487
 2299TIP3   OH228311   1.445   2.466  15.432 -0.3922  0.2263 -0.4154
 2299TIP3    H128312   1.469   2.382  15.393 -1.1761  0.1023 -0.6542
 2299TIP3    H228313   1.357   2.452  15.467 -0.8927  1.1882 -1.2279
 2300TIP3   OH228314   6.627   6.613  14.463 -1.0812 -0.5193  0.1198
 2300TIP3    H128315   6.676   6.558  14.401 -2.8544 -2.1193  0.0566
 2300TIP3    H228316   6.641   6.702  14.432  0.8401 -0.9951 -0.5383
 2301TIP3   OH228317   4.528   1.142   0.444  0.2737 -0.0574  0.3504
 2301TIP3    H128318   4.618   1.114   0.457  0.4074 -0.7472 -1.7441
 2301TIP3    H228319   4.482   1.114   0.523  1.3815 -2.0364  0.3485
 2302TIP3   OH228320   6.466   6.646  15.758 -0.7793 -0.0714 -0.4681
 2302TIP3    H128321   6.377   6.677  15.745 -0.5366  0.4103 -1.0142
 2302TIP3    H228322   6.517   6.726  15.772 -0.3364 -0.3033 -0.7501
 2303TIP3   OH228323   1.463   3.208   6.089  0.1562 -0.0542 -0.3193
 2303TIP3    H128324   1.484   3.115   6.101 -1.1871 -0.3684 -0.1648
 2303TIP3    H228325   1.477   3.224   5.996 -1.4628 -0.9563 -0.7671
 2304TIP3   OH228326   0.106   4.823   5.707  0.2303  0.4237 -0.2615
 2304TIP3    H128327   0.161   4.888   5.752  1.5728 -1.8159  1.5165
 2304TIP3    H228328   0.165   4.750   5.689 -1.6003 -1.0207 -0.6837
 2305TIP3   OH228329   5.818   4.608  11.904  0.3279  0.3616  0.0273
 2305TIP3    H128330   5.768   4.658  11.840 -2.3178 -1.7663  0.2718
 2305TIP3    H228331   5.873   4.550  11.851  3.4920  3.2810 -0.2621
 2306TIP3   OH228332   3.930   0.337  15.943 -0.2254  0.2799 -0.3594
 2306TIP3    H128333   3.904   0.279  16.015 -0.1713  0.5967 -0.0872
 2306TIP3    H228334   4.025   0.344  15.951 -0.1781  0.0476 -0.6662
 2307TIP3   OH228335   0.726   6.290  10.761  0.5764  0.9812 -0.4173
 2307TIP3    H128336   0.805   6.322  10.718  0.9530  0.7172  0.0682
 2307TIP3    H228337   0.656   6.303  10.697  0.6584  3.0187 -0.1753
 2308TIP3   OH228338   2.493   3.195  14.954  0.4349 -0.3002 -0.3737
 2308TIP3    H128339   2.414   3.179  14.902  0.9358  0.4319 -1.3915
 2308TIP3    H228340   2.474   3.277  15.001  0.5271 -0.2190 -0.4800
 2309TIP3   OH228341   1.888   1.723  15.326 -0.3944 -0.3974  0.0031
 2309TIP3    H128342   1.913   1.738  15.417 -2.5631 -0.2123  0.6221
 2309TIP3    H228343   1.859   1.631  15.324  2.6914 -1.4689 -1.3075
 2310TIP3   OH228344   6.378   2.085  15.750 -0.1827  0.4273 -0.5245
 2310TIP3    H128345   6.433   2.060  15.824 -0.8427  0.0919 -0.1388
 2310TIP3    H228346   6.354   2.002  15.710  2.8365  0.6157 -3.1601
 2311TIP3   OH228347   0.052   2.639   0.184  0.8193  0.4365 -0.0645
 2311TIP3    H128348   0.113   2.670   0.251  0.9097  0.3903 -0.1239
 2311TIP3    H228349   0.062   2.544   0.184 -1.9678  0.0152  2.5347
 2312TIP3   OH228350   0.727   1.742   6.208 -0.3910 -0.2347  0.3389
 2312TIP3    H128351   0.732   1.836   6.195 -0.0926 -0.3489 -0.3990
 2312TIP3    H228352   0.733   1.731   6.303 -0.8048  0.5056  0.4541
 2313TIP3   OH228353   2.292   1.514  16.242  0.2320 -0.0195 -0.4085
 2313TIP3    H128354   2.270   1.596  16.287  0.9602  0.1942 -0.4202
 2313TIP3    H228355   2.273   1.446  16.306  1.7994  0.3183  0.4818
 2314TIP3   OH228356   2.783   1.257   2.151  0.7844 -0.3049 -0.0869
 2314TIP3    H128357   2.716   1.294   2.210 -0.4053 -0.2519 -1.4179
 2314TIP3    H228358   2.846   1.328   2.140  0.8788 -0.2156  0.8784
 2315TIP3   OH228359   0.997   1.787   4.393  0.6623  0.8919 -0.0013
 2315TIP3    H128360   1.072   1.728   4.390  0.5890  0.8291 -0.6330
 2315TIP3    H228361   0.959   1.773   4.480  0.7104  0.0989 -0.1076
 2316TIP3   OH228362   4.462   2.219   2.559  0.3657  0.0025 -0.0687
 2316TIP3    H128363   4.409   2.249   2.485  0.0579  1.6504  0.7708
 2316TIP3    H228364   4.406   2.235   2.635  0.6629 -1.6866  0.5436
 2317TIP3   OH228365   4.080   3.386  12.897  0.8664 -0.3115 -0.1190
 2317TIP3    H128366   4.053   3.446  12.967 -0.9513 -1.7208  0.4815
 2317TIP3    H228367   4.156   3.339  12.933  2.0260  1.2498 -0.4299
 2318TIP3   OH228368   5.079   3.255  14.990  0.5334 -0.4007  0.1549
 2318TIP3    H128369   5.008   3.318  14.993  1.6009  1.0737 -2.5744
 2318TIP3    H228370   5.085   3.221  15.080 -1.0766  2.2153  1.3490
 2319TIP3   OH228371   4.553   1.935   3.886 -0.4815 -0.9644 -0.3854
 2319TIP3    H128372   4.597   1.957   3.968 -2.8097 -0.3068  0.7827
 2319TIP3    H228373   4.624   1.924   3.822  1.3559 -0.7630  1.5299
 2320TIP3   OH228374   2.489   2.332   0.252 -0.0532 -0.5139 -0.4609
 2320TIP3    H128375   2.582   2.309   0.241 -0.0292 -0.4768 -0.3412
 2320TIP3    H228376   2.450   2.315   0.166  0.4351  1.1868 -1.0690
 2321TIP3   OH228377   0.826   0.932   1.561  0.3533 -0.1144 -0.2777
 2321TIP3    H128378   0.866   1.011   1.524 -0.2426  1.4020  2.0727
 2321TIP3    H228379   0.886   0.906   1.631 -0.2284 -0.8469 -0.0381
 2322TIP3   OH228380   0.347   6.187   1.167 -0.0960 -0.1812 -0.4069
 2322TIP3    H128381   0.283   6.123   1.198 -1.6413  0.9080 -1.1548
 2322TIP3    H228382   0.294   6.265   1.147  1.6818  1.3210  0.4336
 2323TIP3   OH228383   4.540   5.347   5.641  0.2811 -0.4751  0.3812
 2323TIP3    H128384   4.540   5.305   5.555 -2.5446  1.2057 -0.5881
 2323TIP3    H228385   4.626   5.387   5.649  0.8983 -1.4061 -1.2929
 2324TIP3   OH228386   5.459   5.737   2.342 -0.2463  0.6100  0.2534
 2324TIP3    H128387   5.465   5.687   2.260  0.3836  0.7436  0.2121
 2324TIP3    H228388   5.482   5.675   2.410  0.0378  0.7142  0.2514
 2325TIP3   OH228389   1.694   5.450   1.165 -0.0417 -0.0241  0.1280
 2325TIP3    H128390   1.709   5.360   1.194 -0.9117  0.0260  0.7440
 2325TIP3    H228391   1.726   5.505   1.237 -0.4614  0.1405  0.1910
 2326TIP3   OH228392   5.894   4.509  16.174  0.4586  0.0314  0.0067
 2326TIP3    H128393   5.803   4.514  16.144  0.0815  0.8829  1.2013
 2326TIP3    H228394   5.903   4.420  16.208  0.0787 -0.0615 -0.1279
 2327TIP3   OH228395   3.199   4.862  13.860  0.1859  0.0409  0.6167
 2327TIP3    H128396   3.114   4.902  13.878 -0.0142 -0.4456  0.7560
 2327TIP3    H228397   3.187   4.770  13.882  0.6326 -0.1044  0.2565
 2328TIP3   OH228398   4.216   3.118  13.788  0.6971  0.0748  0.0035
 2328TIP3    H128399   4.282   3.167  13.837  0.1174 -0.0841  0.9722
 2328TIP3    H228400   4.154   3.089  13.854  1.1931 -2.2736 -0.4806
 2329TIP3   OH228401   1.475   2.896  16.870 -0.1782  0.5111  0.2911
 2329TIP3    H128402   1.455   2.826  16.808 -0.1590 -1.4366  2.3456
 2329TIP3    H228403   1.568   2.916  16.854  0.2249 -0.9726  0.5645
 2330TIP3   OH228404   4.353   2.272  11.451  0.5533  0.0907 -0.3516
 2330TIP3    H128405   4.337   2.206  11.383  0.6030 -0.6492  0.3485
 2330TIP3    H228406   4.274   2.270  11.505  0.7513  0.2787 -0.0530
 2331TIP3   OH228407   4.251   0.443  14.618 -0.0696  0.5344  0.6803
 2331TIP3    H128408   4.262   0.529  14.578  1.3536 -0.6391 -1.6738
 2331TIP3    H228409   4.328   0.432  14.673  0.4735  0.2687 -0.1051
 2332TIP3   OH228410   0.271   0.157   5.175  0.0001 -0.1437  0.1069
 2332TIP3    H128411   0.178   0.162   5.154  0.5465  0.3773 -2.4333
 2332TIP3    H228412   0.293   0.244   5.207 -0.8035 -0.9075  3.1236
 2333TIP3   OH228413   5.884   0.588   0.254  0.2940  0.0396 -0.3813
 2333TIP3    H128414   5.821   0.650   0.216 -0.9291 -0.3278  0.9943
 2333TIP3    H228415   5.925   0.637   0.325  0.5041 -0.2125 -0.3289
 2334TIP3   OH228416   1.692   4.430  16.663 -0.2312  0.1126  0.7428
 2334TIP3    H128417   1.754   4.502  16.652 -0.3609  0.3329  1.4158
 2334TIP3    H228418   1.730   4.357  16.613 -0.5295  0.8888 -0.6764
 2335TIP3   OH228419   3.079   5.868   5.627 -0.7268  0.4049  0.2321
 2335TIP3    H128420   3.090   5.823   5.710  0.2402  0.9503  0.4089
 2335TIP3    H228421   2.996   5.915   5.635 -0.5436  0.6050  0.9555
 2336TIP3   OH228422   5.707   3.595  15.652  0.1349 -0.8458 -0.9762
 2336TIP3    H128423   5.684   3.519  15.598 -2.2400 -0.3437 -0.8175
 2336TIP3    H228424   5.624   3.643  15.661  1.4249  1.4542 -0.5703
 2337TIP3   OH228425   5.157   2.800   3.782  0.3438  0.0272 -0.2532
 2337TIP3    H128426   5.090   2.815   3.849 -0.9259 -1.8735 -0.9968
 2337TIP3    H228427   5.239   2.824   3.825 -0.4002 -1.2281  2.0599
 2338TIP3   OH228428   4.621   6.016   0.948 -0.1252  0.2306 -0.2092
 2338TIP3    H128429   4.686   5.946   0.955 -0.6645 -0.2420  0.0933
 2338TIP3    H228430   4.654   6.085   1.006  0.5670  0.3641 -0.7446
 2339TIP3   OH228431   2.323   1.879  10.804  0.3719 -0.0661 -0.0004
 2339TIP3    H128432   2.407   1.841  10.778 -0.2947 -0.4001 -1.8326
 2339TIP3    H228433   2.345   1.967  10.833  1.6047 -0.8690  1.6753
 2340TIP3   OH228434   0.363   6.569  12.340 -0.8520  0.5734  0.2331
 2340TIP3    H128435   0.455   6.578  12.364 -0.2014 -3.8362  0.0786
 2340TIP3    H228436   0.316   6.580  12.423  0.0602  0.2399  0.8088
 2341TIP3   OH228437   3.773   6.075  15.084  0.3728  0.4423  0.8424
 2341TIP3    H128438   3.753   6.002  15.142  1.6640  0.0349  0.8128
 2341TIP3    H228439   3.713   6.066  15.011  0.7765 -0.8333  0.6513
 2342TIP3   OH228440   3.815   4.493  11.373  0.1465 -0.2970 -0.2108
 2342TIP3    H128441   3.778   4.495  11.285  0.1047 -1.6093 -0.2395
 2342TIP3    H228442   3.909   4.506  11.360  0.3168 -1.7352 -0.5877
 2343TIP3   OH228443   6.486   6.539   0.452 -0.4702 -0.2298 -0.5237
 2343TIP3    H128444   6.505   6.617   0.400  0.3769  0.0465  0.1852
 2343TIP3    H228445   6.550   6.540   0.522 -2.3382  0.0995  1.2863
 2344TIP3   OH228446   3.105   0.056  14.722  0.0379 -0.5657  0.0516
 2344TIP3    H128447   3.182   0.068  14.665 -0.3415  0.2946 -0.3029
 2344TIP3    H228448   3.110   0.129  14.784 -0.4758 -0.5175  0.0402
 2345TIP3   OH228449   2.802   2.900  15.214  0.5095 -0.7248  0.0559
 2345TIP3    H128450   2.869   2.923  15.279  1.3282 -0.0840 -0.9855
 2345TIP3    H228451   2.754   2.827  15.254  0.1168  0.4994  1.9558
 2346TIP3   OH228452   4.287   0.690  11.615 -0.8446  0.7227 -0.9824
 2346TIP3    H128453   4.206   0.731  11.645 -1.9294 -1.4396 -0.7115
 2346TIP3    H228454   4.280   0.692  11.519 -0.4721  1.8858 -0.9944
 2347TIP3   OH228455   6.021   0.403  12.338 -0.1574 -0.2854 -0.5701
 2347TIP3    H128456   5.978   0.411  12.253  1.5226  0.9269 -1.3534
 2347TIP3    H228457   6.070   0.321  12.332  0.5639  0.1760 -1.0711
 2348TIP3   OH228458   0.425   2.691   3.486 -0.2740  0.0724  0.0159
 2348TIP3    H128459   0.447   2.754   3.554  0.8599 -0.0994 -0.1755
 2348TIP3    H228460   0.413   2.608   3.532  0.3442 -0.0116  0.0389
 2349TIP3   OH228461   5.880   2.057   2.381 -0.2036  0.0036 -0.8518
 2349TIP3    H128462   5.913   2.071   2.292 -0.2887 -0.5260 -0.9706
 2349TIP3    H228463   5.786   2.039   2.369 -0.1008 -0.6657 -0.7188
 2350TIP3   OH228464   4.771   3.021   3.761  0.1949 -0.0986 -0.2537
 2350TIP3    H128465   4.776   3.058   3.850 -0.4886 -0.4770 -0.0584
 2350TIP3    H228466   4.834   3.074   3.711  0.4245  0.2675  0.3974
 2351TIP3   OH228467   1.473   0.929   6.121 -0.3295  0.1907 -0.3351
 2351TIP3    H128468   1.384   0.952   6.151 -0.4427 -0.1907 -0.3744
 2351TIP3    H228469   1.471   0.944   6.027 -0.6506 -0.7568 -0.4841
 2352TIP3   OH228470   6.210   1.265   0.627  0.0194 -0.2815  0.1483
 2352TIP3    H128471   6.241   1.263   0.537 -0.4912 -0.8032 -0.0243
 2352TIP3    H228472   6.289   1.279   0.680  0.4360 -0.7985 -0.3291
 2353TIP3   OH228473   3.406   5.234  11.911 -0.1948  0.2303 -0.1912
 2353TIP3    H128474   3.373   5.280  11.987 -1.5294 -1.6599  0.4492
 2353TIP3    H228475   3.337   5.172  11.888  0.3605  0.4329 -2.6859
 2354TIP3   OH228476   0.222   0.778   1.288 -0.2170  0.3737 -0.2012
 2354TIP3    H128477   0.255   0.688   1.285 -0.4351  0.2233  1.1500
 2354TIP3    H228478   0.213   0.797   1.381  1.3019  2.3407 -0.3778
 2355TIP3   OH228479   4.522   2.792  10.870  0.1780 -0.1275 -0.2012
 2355TIP3    H128480   4.525   2.805  10.776  0.5115  0.1552 -0.1557
 2355TIP3    H228481   4.566   2.708  10.884 -0.5740 -0.5562 -0.3617
 2356TIP3   OH228482   1.082   1.178   2.433 -0.1043  0.0424 -0.1387
 2356TIP3    H128483   1.165   1.215   2.401  0.7737 -0.2600  1.6456
 2356TIP3    H228484   1.050   1.124   2.360 -0.0119  2.0716 -1.7719
 2357TIP3   OH228485   2.115   3.807  10.882  0.6772 -0.4279  0.3648
 2357TIP3    H128486   2.192   3.850  10.844  0.7550  0.3529  1.3837
 2357TIP3    H228487   2.123   3.716  10.853  2.5087 -0.5837  1.1731
 2358TIP3   OH228488   1.837   5.668   2.774 -0.1579  0.3228  0.0152
 2358TIP3    H128489   1.910   5.607   2.759  0.2847  0.6240  0.8554
 2358TIP3    H228490   1.764   5.612   2.800 -0.1286  0.0457 -0.4870
 2359TIP3   OH228491   2.401   3.683  15.979  0.5492  0.2723  0.4179
 2359TIP3    H128492   2.474   3.739  16.008  1.1323  0.2090 -0.8403
 2359TIP3    H228493   2.356   3.659  16.060  3.1520 -1.3996  1.5177
 2360TIP3   OH228494   1.064   1.727  15.856  0.5825 -0.0962  0.2064
 2360TIP3    H128495   0.991   1.773  15.897 -0.2367 -0.4548 -0.8091
 2360TIP3    H228496   1.080   1.651  15.912  0.5215  0.2624  0.7115
 2361TIP3   OH228497   4.513   5.565  15.784  0.0800 -0.0233  0.4774
 2361TIP3    H128498   4.464   5.512  15.721 -0.8829 -0.0789  1.2376
 2361TIP3    H228499   4.557   5.502  15.840  0.5573  0.0173  0.1474
 2362TIP3   OH228500   1.397   0.563   3.889 -0.2592 -0.2696  0.5702
 2362TIP3    H128501   1.478   0.521   3.918  0.0826  0.1548  0.2430
 2362TIP3    H228502   1.418   0.597   3.801 -0.0713  1.8073  1.3622
 2363TIP3   OH228503   0.449   6.756   2.103 -0.4379  0.4311  0.0483
 2363TIP3    H128504   0.398   6.678   2.082 -1.0114  0.8913 -0.3328
 2363TIP3    H228505   0.400   6.797   2.175  0.4901 -0.1557  1.0304
 2364TIP3   OH228506   0.636   2.258   2.140 -0.3016 -0.1426  0.0708
 2364TIP3    H128507   0.576   2.329   2.162 -0.9651 -0.9498  0.9324
 2364TIP3    H228508   0.587   2.201   2.082 -0.1713 -0.4964  0.3006
 2365TIP3   OH228509   5.654   4.052   5.731 -0.7194  0.4818  0.5624
 2365TIP3    H128510   5.747   4.038   5.749 -0.6984 -1.6664 -0.8351
 2365TIP3    H228511   5.621   4.097   5.809  1.2875  0.4936  1.4776
 2366TIP3   OH228512   3.509   2.108   0.391 -0.1547  0.7765  0.3589
 2366TIP3    H128513   3.488   2.176   0.455 -0.1900  1.6679 -0.5737
 2366TIP3    H228514   3.475   2.142   0.308  0.2178 -0.1874 -0.2010
 2367TIP3   OH228515   0.490   1.195   3.843 -0.1241  0.0809  0.0373
 2367TIP3    H128516   0.580   1.215   3.815  0.5697  0.8718  2.5574
 2367TIP3    H228517   0.444   1.174   3.762  2.4003 -0.6694 -1.3095
 2368TIP3   OH228518   5.814   6.283  17.163 -0.4088 -0.1651  0.0331
 2368TIP3    H128519   5.866   6.291  17.243  0.9389  2.1103 -0.9594
 2368TIP3    H228520   5.829   6.194  17.133 -1.9127 -1.4823  2.8858
 2369TIP3   OH228521   0.963   1.414   5.116  0.4021  0.3077 -0.1325
 2369TIP3    H128522   0.960   1.509   5.128 -0.4344  0.5519 -1.9636
 2369TIP3    H228523   0.930   1.379   5.199  1.9785  1.5367  1.0777
 2370TIP3   OH228524   5.170   3.963   1.426  0.6270  0.3961 -0.2935
 2370TIP3    H128525   5.183   4.033   1.490  3.1545 -0.6149  0.3944
 2370TIP3    H228526   5.107   3.904   1.467 -0.1574  1.3381 -0.1117
 2371TIP3   OH228527   5.268   6.555   4.814  0.3515  0.4361  0.1497
 2371TIP3    H128528   5.328   6.569   4.887  1.1652  1.2290 -0.6390
 2371TIP3    H228529   5.208   6.629   4.818 -0.0256  0.1223  0.4008
 2372TIP3   OH228530   4.727   2.816  16.478  0.0675 -0.4245  0.4137
 2372TIP3    H128531   4.693   2.888  16.424  0.1706  0.6494  1.7156
 2372TIP3    H228532   4.790   2.772  16.422 -0.8648 -0.2494 -0.8228
 2373TIP3   OH228533   6.286   5.897   4.403 -0.0236 -0.0520  0.5906
 2373TIP3    H128534   6.202   5.876   4.362 -0.4821  1.9980  0.3357
 2373TIP3    H228535   6.352   5.867   4.342 -0.5180 -2.1951  1.0388
 2374TIP3   OH228536   5.518   3.475   2.882 -0.5762 -0.5258 -0.5046
 2374TIP3    H128537   5.583   3.459   2.814  0.1083  1.2282 -0.3291
 2374TIP3    H228538   5.436   3.488   2.835 -0.2950 -0.2896 -0.9339
 2375TIP3   OH228539   5.927   1.508  17.192 -0.1233 -0.5967 -0.4698
 2375TIP3    H128540   5.849   1.454  17.204 -0.5707 -0.3340 -2.0469
 2375TIP3    H228541   5.894   1.597  17.183  0.2302 -0.6055 -2.2015
 2376TIP3   OH228542   3.035   1.632   6.389  0.3767  0.1964  0.4546
 2376TIP3    H128543   3.061   1.671   6.473 -1.9126 -0.0703  1.3624
 2376TIP3    H228544   2.994   1.704   6.341  0.4236  0.0260  0.1607
 2377TIP3   OH228545   1.998   5.205  12.640 -0.1723 -0.2536 -0.1708
 2377TIP3    H128546   2.050   5.285  12.640  1.4534 -1.2560 -1.0174
 2377TIP3    H228547   2.020   5.162  12.723 -1.1307  0.2000  0.3364
 2378TIP3   OH228548   3.303   3.919   3.304 -0.2274  0.1004 -0.3084
 2378TIP3    H128549   3.331   3.828   3.297 -0.2579  0.0209  0.5024
 2378TIP3    H228550   3.240   3.930   3.233 -0.4058 -0.5811 -0.2684
 2379TIP3   OH228551   5.670   1.469   4.620 -0.4738 -0.0514  0.7585
 2379TIP3    H128552   5.642   1.555   4.588 -1.3216 -0.2184  1.0243
 2379TIP3    H228553   5.754   1.485   4.663  0.8965  0.1287 -1.8101
 2380TIP3   OH228554   0.647   3.328  13.116 -0.2741 -0.0380  0.1457
 2380TIP3    H128555   0.572   3.343  13.059  0.3027 -0.1942 -0.6709
 2380TIP3    H228556   0.700   3.407  13.107 -1.0120  0.7039  1.8293
 2381TIP3   OH228557   1.897   6.516   1.313  0.2525  0.1252 -0.1563
 2381TIP3    H128558   1.881   6.533   1.220 -0.9516 -0.7936 -0.1368
 2381TIP3    H228559   1.980   6.469   1.316  0.1935 -0.0166 -0.7880
 2382TIP3   OH228560   5.824   5.406   3.339  0.0870 -0.1489  0.0797
 2382TIP3    H128561   5.859   5.321   3.311 -0.4582 -0.3881  0.1274
 2382TIP3    H228562   5.888   5.470   3.306  2.0628 -0.7419  2.5138
 2383TIP3   OH228563   4.479   6.628  13.591  0.5494  0.5020 -0.1751
 2383TIP3    H128564   4.520   6.562  13.648 -2.5868 -0.3061  1.3922
 2383TIP3    H228565   4.443   6.577  13.519 -0.2685  0.7325  0.0610
 2384TIP3   OH228566   6.308   1.269   4.298  0.3069 -0.3021  0.0722
 2384TIP3    H128567   6.215   1.258   4.278  0.5901  0.2310 -1.8171
 2384TIP3    H228568   6.312   1.346   4.354 -0.4334 -0.7170  0.7095
 2385TIP3   OH228569   1.043   2.048   4.369 -0.5838  0.3704  0.5806
 2385TIP3    H128570   1.100   2.050   4.292  0.9450 -1.9002  1.5394
 2385TIP3    H228571   1.008   1.959   4.370 -2.7589  1.1791  1.0640
 2386TIP3   OH228572   2.743   5.728  15.787 -0.3488 -0.2190 -0.1857
 2386TIP3    H128573   2.739   5.788  15.861 -2.3024  1.2359 -1.3614
 2386TIP3    H228574   2.662   5.676  15.794 -0.6189  0.0203 -1.3304
 2387TIP3   OH228575   2.817   5.646   5.837 -0.2678  0.4343  0.1776
 2387TIP3    H128576   2.887   5.641   5.772 -0.3031  1.3482  0.0591
 2387TIP3    H228577   2.862   5.671   5.918 -0.1860 -0.9465  0.5880
 2388TIP3   OH228578   5.482   4.673  14.786  0.4090 -0.0628  0.0123
 2388TIP3    H128579   5.444   4.730  14.719  1.4620  1.6353  0.7895
 2388TIP3    H228580   5.558   4.633  14.743  0.1432 -0.2329 -0.2977
 2389TIP3   OH228581   4.329   4.773   6.485 -0.7793  0.0402  0.0349
 2389TIP3    H128582   4.270   4.815   6.548 -2.4555  0.7222 -1.8917
 2389TIP3    H228583   4.305   4.681   6.487 -1.3151  0.1728 -0.0941
 2390TIP3   OH228584   3.966   1.637  11.677 -0.3552  0.0577 -0.0229
 2390TIP3    H128585   4.049   1.629  11.723 -0.9660  1.4992  1.4274
 2390TIP3    H228586   3.988   1.677  11.593  0.6035 -1.3209 -0.4786
 2391TIP3   OH228587   1.772   4.245   4.733  0.1490 -0.2178  0.1386
 2391TIP3    H128588   1.817   4.211   4.656  0.4522  0.2364  0.1119
 2391TIP3    H228589   1.724   4.170   4.768 -0.3684 -0.3234 -0.7532
 2392TIP3   OH228590   6.451   4.036   1.633 -0.0741  0.2098  0.6923
 2392TIP3    H128591   6.460   4.126   1.667 -1.2417  0.4960  0.2976
 2392TIP3    H228592   6.371   4.004   1.674  1.0016 -1.1359  1.8225
 2393TIP3   OH228593   1.285   0.350  12.196  0.1456  0.0008  1.0207
 2393TIP3    H128594   1.373   0.341  12.234  1.1427 -0.7459 -1.3264
 2393TIP3    H228595   1.300   0.369  12.104 -2.1913  2.0923  0.9612
 2394TIP3   OH228596   5.797   1.640  13.602 -0.2513 -0.2802 -0.6834
 2394TIP3    H128597   5.757   1.635  13.689  3.0397 -1.4760  0.9049
 2394TIP3    H228598   5.790   1.551  13.568  2.4192 -0.9962  0.3983
 2395TIP3   OH228599   5.748   5.224  12.421  0.3493  0.4169 -0.5029
 2395TIP3    H128600   5.710   5.165  12.357  0.8766  1.5243 -1.8920
 2395TIP3    H228601   5.786   5.295  12.369 -0.8391  2.3536  1.1103
 2396TIP3   OH228602   2.335   6.036   0.088  0.1506  0.1480  0.5274
 2396TIP3    H128603   2.392   5.962   0.108  0.1888 -0.6623 -2.1938
 2396TIP3    H228604   2.383   6.086   0.022 -1.0690  1.0796  0.3162
 2397TIP3   OH228605   3.245   5.745  12.665 -0.4676  0.2740 -0.3643
 2397TIP3    H128606   3.257   5.840  12.671 -0.4053  0.4048 -2.0279
 2397TIP3    H228607   3.264   5.713  12.753 -1.6527  1.9099  0.5446
 2398TIP3   OH228608   1.783   2.159  14.787 -0.2601 -0.0935 -0.4653
 2398TIP3    H128609   1.700   2.178  14.831 -0.8232 -1.6239 -0.7887
 2398TIP3    H228610   1.830   2.242  14.788 -0.9422  0.3406  1.5279
 2399TIP3   OH228611   2.242   0.890   5.734  0.5543  0.3200  0.2859
 2399TIP3    H128612   2.198   0.906   5.817 -0.8841  0.0884 -0.4136
 2399TIP3    H228613   2.297   0.967   5.721  0.5765  0.4909  1.2998
 2400TIP3   OH228614   3.396   4.565  13.021 -0.2309  0.3540 -0.4766
 2400TIP3    H128615   3.451   4.632  12.981 -1.1618  1.3919 -0.0746
 2400TIP3    H228616   3.456   4.512  13.073  0.5943  0.5549 -1.2069
 2401TIP3   OH228617   0.127   0.096   0.021  0.3826 -0.1217  0.5568
 2401TIP3    H128618   0.115   0.149  -0.058 -0.7016 -1.8743 -0.5092
 2401TIP3    H228619   0.219   0.069   0.018  0.3192 -0.2862 -0.2031
 2402TIP3   OH228620   2.604   1.036   2.358  0.2571  0.0614  0.1515
 2402TIP3    H128621   2.643   0.969   2.416 -1.6518  0.8747  2.5596
 2402TIP3    H228622   2.676   1.063   2.301  1.8437 -1.9824  1.0328
 2403TIP3   OH228623   0.450   1.971   0.112  0.0884 -0.7320 -0.6018
 2403TIP3    H128624   0.543   1.993   0.104 -0.3685  0.6904 -2.4932
 2403TIP3    H228625   0.429   1.991   0.204  1.2672  0.5437 -0.5764
 2404TIP3   OH228626   4.317   5.969  15.901 -0.3030  0.5682 -0.0507
 2404TIP3    H128627   4.321   5.891  15.845  1.6596  0.1991  0.5111
 2404TIP3    H228628   4.361   6.037  15.850 -0.7499  0.9156  0.0286
 2405TIP3   OH228629   2.931   3.665  12.940  0.2554 -0.4044 -0.1938
 2405TIP3    H128630   2.951   3.598  13.006  1.3510 -0.3646 -0.4665
 2405TIP3    H228631   2.862   3.718  12.980  0.0679 -1.0992  0.4282
 2406TIP3   OH228632   4.414   0.331   5.086 -0.2142  0.1781  0.4267
 2406TIP3    H128633   4.413   0.386   5.165  1.3325  1.4408 -0.3686
 2406TIP3    H228634   4.493   0.278   5.095 -0.7172 -0.6137  0.3084
 2407TIP3   OH228635   3.593   5.750   5.955 -0.0264  0.8799 -0.0660
 2407TIP3    H128636   3.645   5.771   6.033  0.4474  1.8640 -0.6283
 2407TIP3    H228637   3.562   5.661   5.970  1.6804  0.3128  0.3783
 2408TIP3   OH228638   4.792   2.575   2.790  0.6801  0.0774  0.3418
 2408TIP3    H128639   4.699   2.582   2.813  0.8739  1.4908  0.7793
 2408TIP3    H228640   4.792   2.542   2.700 -0.1660 -2.6276  1.2443
 2409TIP3   OH228641   4.144   4.966   4.960 -0.0624  0.2200  0.0300
 2409TIP3    H128642   4.234   4.992   4.981  0.2879  0.2453 -1.3850
 2409TIP3    H228643   4.099   5.049   4.944 -0.2424  0.1854  0.3423
 2410TIP3   OH228644   1.286   5.819  16.426  0.1880  0.5706  0.5925
 2410TIP3    H128645   1.283   5.869  16.508 -0.0462 -0.9875  1.5783
 2410TIP3    H228646   1.321   5.734  16.451 -0.2474 -0.0695 -0.8620
 2411TIP3   OH228647   1.484   5.016  11.256 -0.0785  0.3179  0.3025
 2411TIP3    H128648   1.444   5.102  11.242  1.0969  1.1270  1.4857
 2411TIP3    H228649   1.525   4.994  11.173 -2.1634 -0.1265 -0.6558
 2412TIP3   OH228650   0.144   2.924   2.369  0.4100  0.2703  0.2286
 2412TIP3    H128651   0.232   2.951   2.395  0.5909 -0.9169  0.9487
 2412TIP3    H228652   0.137   2.834   2.401 -0.0160 -0.6740 -2.2954
 2413TIP3   OH228653   0.859   1.028  12.621  0.0396 -0.4924 -0.6897
 2413TIP3    H128654   0.795   1.078  12.572 -0.3823 -0.1976  0.1370
 2413TIP3    H228655   0.849   0.938  12.590 -0.5712 -0.3979 -0.7759
 2414TIP3   OH228656   2.400   3.008   2.724  0.0766 -0.0781  0.4437
 2414TIP3    H128657   2.477   2.957   2.751  1.0329 -0.4416 -2.5779
 2414TIP3    H228658   2.334   2.942   2.704 -0.1507  0.1185  0.5376
 2415TIP3   OH228659   6.040   2.710   4.404  0.0012 -0.6240 -0.3069
 2415TIP3    H128660   6.076   2.621   4.400  0.6678 -0.3731 -0.0269
 2415TIP3    H228661   6.023   2.725   4.496  0.2877 -0.3115 -0.3021
 2416TIP3   OH228662   4.658   4.063  15.613 -0.0954 -0.3785  0.1663
 2416TIP3    H128663   4.652   4.156  15.591  0.1554  0.6971  3.9691
 2416TIP3    H228664   4.571   4.028  15.593 -0.8277  1.1654  0.5287
 2417TIP3   OH228665   2.713   3.979   0.286  0.2136  0.2610  0.0342
 2417TIP3    H128666   2.803   4.009   0.297 -0.6382  2.9023  0.5481
 2417TIP3    H228667   2.667   4.012   0.363 -1.1854 -1.1495 -0.1418
 2418TIP3   OH228668   5.935   0.827   6.249 -0.1415  0.1294 -0.0435
 2418TIP3    H128669   5.966   0.914   6.222 -0.4300 -0.5921 -3.0011
 2418TIP3    H228670   5.841   0.838   6.262  0.2963  0.9891  3.1910
 2419TIP3   OH228671   4.126   4.365   3.989 -0.1302 -0.3949  0.1449
 2419TIP3    H128672   4.179   4.441   4.009 -3.3434  2.1735 -0.1818
 2419TIP3    H228673   4.147   4.344   3.897  0.7329  0.1230  0.2167
 2420TIP3   OH228674   0.048   3.038   2.629  0.0481  0.0388 -0.0796
 2420TIP3    H128675   0.139   3.043   2.600 -0.3301  0.6259 -1.2790
 2420TIP3    H228676   0.029   3.126   2.662 -0.8042  0.7555 -2.2886
 2421TIP3   OH228677   3.138   2.757  14.682 -0.1211 -0.4722  0.0788
 2421TIP3    H128678   3.203   2.823  14.708 -1.2272  0.9666 -0.6211
 2421TIP3    H228679   3.173   2.722  14.600 -0.7116  1.1295 -0.9186
 2422TIP3   OH228680   2.355   0.024  16.036  0.1250 -0.1508 -0.0738
 2422TIP3    H128681   2.306  -0.051  16.068 -0.6309  0.6145  0.6083
 2422TIP3    H228682   2.392  -0.006  15.953  1.9612 -2.1029  1.3389
 2423TIP3   OH228683   1.964   5.848  17.229  0.1329 -0.0518  0.0821
 2423TIP3    H128684   1.924   5.875  17.146 -0.0057 -0.7090 -0.0730
 2423TIP3    H228685   1.893   5.805  17.277  0.8658 -2.2000 -0.6357
 2424TIP3   OH228686   4.248   2.558   5.507  0.1390 -0.7199  0.1221
 2424TIP3    H128687   4.174   2.502   5.482 -0.1937 -0.5084  0.6080
 2424TIP3    H228688   4.209   2.626   5.562  0.5808 -0.1526 -0.2554
 2425TIP3   OH228689   2.772   6.524  13.898  0.5118 -0.3295  0.0376
 2425TIP3    H128690   2.684   6.498  13.925  1.4268 -0.6836  3.0744
 2425TIP3    H228691   2.828   6.453  13.929  2.0066  0.5230 -0.6201
 2426TIP3   OH228692   3.853   1.940  12.511 -0.3878 -0.5400  0.0949
 2426TIP3    H128693   3.760   1.936  12.533 -0.0296 -0.9078  1.5943
 2426TIP3    H228694   3.870   1.858  12.464 -0.8719 -0.3267 -0.4740
 2427TIP3   OH228695   1.138   3.224  14.040 -0.1441  0.1856 -0.1256
 2427TIP3    H128696   1.164   3.144  14.085 -1.2585 -1.6324 -2.5072
 2427TIP3    H228697   1.075   3.265  14.099 -0.1096 -1.0831  0.8288
 2428TIP3   OH228698   1.373   6.545  11.732 -0.1333 -0.5660  0.6409
 2428TIP3    H128699   1.403   6.594  11.809 -0.9138 -0.4784  0.8890
 2428TIP3    H228700   1.295   6.591  11.703  0.6348 -0.0771 -0.7390
 2429TIP3   OH228701   1.362   6.525  12.855 -0.1285  0.1100  0.5736
 2429TIP3    H128702   1.394   6.512  12.944  0.8242 -0.0417  0.2272
 2429TIP3    H228703   1.367   6.438  12.815  1.5185  0.5305 -0.2550
 2430TIP3   OH228704   5.967   1.378   1.595 -0.4789  0.6688 -0.1674
 2430TIP3    H128705   6.014   1.359   1.676 -1.4871  0.1403  0.3105
 2430TIP3    H228706   6.025   1.347   1.525  0.1219  0.5502  0.3797
 2431TIP3   OH228707   3.239   1.502  15.360 -0.8267 -0.0226 -0.2750
 2431TIP3    H128708   3.317   1.552  15.383 -1.5119  2.1244 -2.2212
 2431TIP3    H228709   3.242   1.425  15.417  1.2752  1.3033  1.5835
 2432TIP3   OH228710   0.953   5.235   1.199 -0.4157 -0.4274  0.3408
 2432TIP3    H128711   1.021   5.302   1.195  0.5307 -1.3744 -0.1358
 2432TIP3    H228712   0.976   5.181   1.275 -0.4570 -0.9169  0.0156
 2433TIP3   OH228713   6.233   1.339  12.832 -0.0741  0.7481 -0.8212
 2433TIP3    H128714   6.250   1.268  12.894 -0.5790 -1.7173 -3.3018
 2433TIP3    H228715   6.161   1.389  12.872 -0.2267 -0.5704  0.6794
 2434TIP3   OH228716   2.214   1.728   3.838  0.0758 -0.1776 -0.5908
 2434TIP3    H128717   2.249   1.776   3.913 -0.0529 -2.2628  0.9038
 2434TIP3    H228718   2.146   1.672   3.875 -3.0188  1.6967 -2.9627
 2435TIP3   OH228719   4.737   0.712  16.567 -0.4395 -0.1207  0.3894
 2435TIP3    H128720   4.831   0.706  16.580  0.1284 -0.1142 -2.8428
 2435TIP3    H228721   4.705   0.622  16.577 -0.3968  0.0776  2.8624
 2436TIP3   OH228722   4.596   0.354  11.884 -0.1392  0.2659  0.0820
 2436TIP3    H128723   4.515   0.390  11.849 -1.1074  0.3621  2.2310
 2436TIP3    H228724   4.650   0.431  11.904 -0.5224  0.3466  0.8524
 2437TIP3   OH228725   5.708   4.873  11.384  0.6154  0.5133 -0.2484
 2437TIP3    H128726   5.707   4.784  11.418 -0.6696  0.4181 -0.5194
 2437TIP3    H228727   5.635   4.877  11.322  1.7768  1.2202 -1.6481
 2438TIP3   OH228728   5.635   4.336   2.856  0.0753  0.1305  0.2069
 2438TIP3    H128729   5.660   4.422   2.824  0.0404 -0.0937 -0.4431
 2438TIP3    H228730   5.552   4.317   2.812 -0.6285  0.3489  1.4065
 2439TIP3   OH228731   2.260   0.840  13.659 -0.8059  0.6129 -0.2006
 2439TIP3    H128732   2.317   0.876  13.727 -1.4468 -1.1236  1.3509
 2439TIP3    H228733   2.192   0.907  13.647 -1.9535  0.1077  2.5595
 2440TIP3   OH228734   1.043   6.651  12.126 -0.7448 -0.0612 -0.1409
 2440TIP3    H128735   1.109   6.600  12.175 -1.5807  0.1423  1.2648
 2440TIP3    H228736   1.059   6.741  12.152 -0.8003  0.1319 -0.7640
 2441TIP3   OH228737   0.530   2.442   2.619 -0.2445  0.5622 -0.5760
 2441TIP3    H128738   0.576   2.487   2.689 -0.3008  0.4024 -0.4338
 2441TIP3    H228739   0.599   2.401   2.567 -0.2549 -0.2902  0.0601
 2442TIP3   OH228740   5.217   3.750  16.191  0.2566  0.0478  0.1340
 2442TIP3    H128741   5.221   3.844  16.212 -0.9192  0.6420 -1.9494
 2442TIP3    H228742   5.281   3.710  16.249  2.6471  2.4809 -0.5863
 2443TIP3   OH228743   5.181   6.259   5.445  0.2078 -0.1929  0.0697
 2443TIP3    H128744   5.095   6.273   5.406  0.1685  0.8662  0.5025
 2443TIP3    H228745   5.227   6.342   5.432  0.6088 -0.2222  1.2131
 2444TIP3   OH228746   5.341   5.008  17.213 -0.1902  0.2772  0.5879
 2444TIP3    H128747   5.294   5.026  17.295 -2.3277  1.1145 -0.7379
 2444TIP3    H228748   5.317   5.081  17.156 -0.3247 -1.2837 -1.4392
 2445TIP3   OH228749   4.738   0.273   5.608 -0.7390  0.1621 -0.6138
 2445TIP3    H128750   4.648   0.270   5.640 -0.8534  0.0884 -0.9322
 2445TIP3    H228751   4.753   0.364   5.583 -1.0807 -0.0213 -1.5346
 2446TIP3   OH228752   3.812   3.226  16.052  0.7829  0.2120 -0.2074
 2446TIP3    H128753   3.814   3.130  16.053  0.8745  0.2110  0.9927
 2446TIP3    H228754   3.838   3.250  15.963 -2.7565 -0.9311 -1.7539
 2447TIP3   OH228755   1.543   3.088  11.453 -0.7184 -0.4114 -0.3891
 2447TIP3    H128756   1.538   2.998  11.421  2.1217 -0.8931  0.2666
 2447TIP3    H228757   1.608   3.130  11.396 -2.2683  1.4016 -0.9418
 2448TIP3   OH228758   1.998   3.996   5.769 -0.1414  0.0084 -0.4036
 2448TIP3    H128759   1.934   3.928   5.791 -1.1891  0.1777 -2.6282
 2448TIP3    H228760   2.063   3.991   5.839 -2.1435 -0.7160  1.5276
 2449TIP3   OH228761   5.096   1.613  13.622  0.3297  0.0335  0.0099
 2449TIP3    H128762   5.052   1.549  13.566  1.9403 -1.3047  0.1872
 2449TIP3    H228763   5.169   1.645  13.568 -0.4343  1.7683 -0.0698
 2450TIP3   OH228764   5.723   4.551  15.402 -0.6554  0.3865  0.2827
 2450TIP3    H128765   5.641   4.515  15.368 -0.4103  0.0833  0.0059
 2450TIP3    H228766   5.696   4.608  15.474 -1.3901  2.6903 -1.6955
 2451TIP3   OH228767   3.121   0.309  14.851  0.1750 -0.3688 -0.1566
 2451TIP3    H128768   3.051   0.360  14.892 -0.7634  0.5500 -2.6833
 2451TIP3    H228769   3.201   0.343  14.890 -0.5709  1.4123 -0.0643
 2452TIP3   OH228770   2.465   1.531   1.016  0.1985 -0.5047  0.0429
 2452TIP3    H128771   2.446   1.583   1.094 -0.4205 -1.5990  0.6519
 2452TIP3    H228772   2.549   1.488   1.036 -0.5992 -1.8208  0.6988
 2453TIP3   OH228773   5.624   4.402   3.151  0.5960 -0.2698  0.2967
 2453TIP3    H128774   5.616   4.367   3.063 -1.6379  0.8411 -0.0081
 2453TIP3    H228775   5.628   4.497   3.139  0.7873 -0.1268  1.3715
 2454TIP3   OH228776   4.117   0.102  12.130  0.1010  0.6565 -0.7703
 2454TIP3    H128777   4.180   0.123  12.060  0.7755  0.8217 -0.1280
 2454TIP3    H228778   4.077   0.186  12.153  0.1105  0.6531 -0.7409
 2455TIP3   OH228779   0.800   3.154   4.108  0.1625  0.5976 -0.3825
 2455TIP3    H128780   0.763   3.074   4.145  1.5115  0.9915  2.0833
 2455TIP3    H228781   0.810   3.136   4.015 -2.5684 -0.8651 -0.5071
 2456TIP3   OH228782   2.441   5.184   3.510 -0.1028 -0.4538  0.2604
 2456TIP3    H128783   2.415   5.271   3.481  0.5353 -0.1430  0.6155
 2456TIP3    H228784   2.482   5.198   3.595 -1.4656 -1.2861  1.0941
 2457TIP3   OH228785   2.828   1.031   1.506  0.2242  0.9439  0.4667
 2457TIP3    H128786   2.872   1.076   1.578 -1.4413  2.7839  0.4366
 2457TIP3    H228787   2.868   0.944   1.503  0.5436  0.8805  3.4517
 2458TIP3   OH228788   4.692   6.703   1.982  0.3114 -0.4867  0.0520
 2458TIP3    H128789   4.651   6.722   1.898  0.1810 -0.9289  0.0129
 2458TIP3    H228790   4.741   6.782   2.003 -2.5291  1.0994  1.2822
 2459TIP3   OH228791   4.627   2.431   2.378  0.2320  0.0558 -0.5602
 2459TIP3    H128792   4.573   2.506   2.403  1.1676 -0.1605  2.5009
 2459TIP3    H228793   4.579   2.355   2.411  0.3312 -0.5430 -1.7388
 2460TIP3   OH228794   3.514   2.998  11.326 -0.2286  0.6532 -0.5682
 2460TIP3    H128795   3.582   2.983  11.391 -0.4358  0.7145 -0.3360
 2460TIP3    H228796   3.523   3.090  11.303  0.3873  0.4387 -1.2479
 2461TIP3   OH228797   0.658   3.762  16.057 -0.0365 -0.4513 -0.6814
 2461TIP3    H128798   0.603   3.836  16.081  1.2216  1.3508 -2.9123
 2461TIP3    H228799   0.666   3.768  15.961  2.7559 -1.4831 -0.6228
 2462TIP3   OH228800   3.101   4.763  11.216 -0.0899 -0.0427  0.3720
 2462TIP3    H128801   3.024   4.722  11.178  0.6345 -0.8242 -0.2931
 2462TIP3    H228802   3.135   4.820  11.147 -0.4183  0.8051  0.8862
 2463TIP3   OH228803   4.598   4.726  12.263 -0.5858  0.5177  0.2142
 2463TIP3    H128804   4.573   4.656  12.203 -1.5234  0.9710  0.0541
 2463TIP3    H228805   4.550   4.708  12.343 -2.5361  2.1038 -0.5168
 2464TIP3   OH228806   6.309   1.683   3.917 -0.0058 -0.1084  0.1545
 2464TIP3    H128807   6.384   1.735   3.889 -0.8301 -1.0617 -4.8626
 2464TIP3    H228808   6.346   1.609   3.965  2.2836 -0.2312 -1.6538
 2465TIP3   OH228809   6.634   2.361  13.343 -0.0903  0.0235 -0.5153
 2465TIP3    H128810   6.724   2.337  13.365 -0.1283  0.9857  0.7913
 2465TIP3    H228811   6.581   2.288  13.375  0.0117  0.6465  1.1788
 2466TIP3   OH228812   6.724   2.799   2.682  0.3825 -0.0114 -0.4285
 2466TIP3    H128813   6.750   2.890   2.669 -2.2201  0.6813 -1.5904
 2466TIP3    H228814   6.774   2.749   2.618  1.1271  0.7437 -0.4384
 2467TIP3   OH228815   3.237   6.064   3.898  0.4664 -0.9183 -0.0700
 2467TIP3    H128816   3.221   6.115   3.819 -0.1008  0.2339  0.7626
 2467TIP3    H228817   3.332   6.053   3.900  0.4155 -1.8254 -1.4182
 2468TIP3   OH228818   4.733   0.126   4.468  0.3354 -0.4290 -0.1795
 2468TIP3    H128819   4.691   0.211   4.472  2.5899  0.7332  0.9390
 2468TIP3    H228820   4.695   0.077   4.541  0.8205  0.5601  0.7678
 2469TIP3   OH228821   3.690   5.380   1.115  0.7182  0.1692 -0.0776
 2469TIP3    H128822   3.612   5.431   1.094  0.2551 -0.7390 -0.5909
 2469TIP3    H228823   3.763   5.442   1.102  0.1105  0.9912  0.3182
 2470TIP3   OH228824   6.510   1.330   6.131  0.1526 -0.1634 -0.0393
 2470TIP3    H128825   6.437   1.298   6.079 -0.7586 -0.0611  1.1287
 2470TIP3    H228826   6.486   1.419   6.156 -0.1853 -0.7194  1.8121
 2471TIP3   OH228827   3.263   4.428  15.560 -0.2492 -0.9596  1.6449
 2471TIP3    H128828   3.270   4.394  15.471 -0.9329  0.7590  0.8740
 2471TIP3    H228829   3.346   4.473  15.575 -1.3146  1.5522  0.5518
 2472TIP3   OH228830   0.147   2.815  16.439 -0.1954  0.1000  0.4333
 2472TIP3    H128831   0.147   2.876  16.366  0.5378 -0.4166 -0.0124
 2472TIP3    H228832   0.062   2.828  16.481 -0.7036  0.2889 -0.6100
 2473TIP3   OH228833   3.940   3.067  11.854  0.4097 -0.2605  0.1298
 2473TIP3    H128834   3.994   3.078  11.932  0.2071  1.1455  0.0850
 2473TIP3    H228835   3.857   3.108  11.875  1.0753  2.1248 -1.5380
 2474TIP3   OH228836   4.539   6.033  13.773 -0.1936  0.3760  0.5399
 2474TIP3    H128837   4.569   5.955  13.820  2.3916  0.0945 -1.3714
 2474TIP3    H228838   4.617   6.088  13.765 -0.9459  1.2172 -1.8011
 2475TIP3   OH228839   2.588   4.439   5.517 -0.3131 -0.1454 -0.1465
 2475TIP3    H128840   2.579   4.387   5.437  0.2687  0.6913 -0.7787
 2475TIP3    H228841   2.677   4.420   5.548 -0.6855 -0.7960  0.5551
 2476TIP3   OH228842   0.402   6.612  16.929  0.3997  0.5262 -0.2983
 2476TIP3    H128843   0.474   6.599  16.992 -1.2263  1.5797  1.9344
 2476TIP3    H228844   0.419   6.699  16.892  1.8269 -0.4405 -2.0706
 2477TIP3   OH228845   5.676   6.743   4.048 -0.2582 -0.5571 -0.5063
 2477TIP3    H128846   5.600   6.768   3.997 -0.8095 -0.8298  0.1672
 2477TIP3    H228847   5.656   6.654   4.079 -0.9306  0.3847  1.9941
 2478TIP3   OH228848   5.305   3.927  14.691  0.8175 -0.2487 -0.8327
 2478TIP3    H128849   5.312   3.982  14.769  0.5468 -2.9994  1.2930
 2478TIP3    H228850   5.396   3.910  14.666  0.9437 -0.4713 -0.2404
 2479TIP3   OH228851   6.387   5.138  10.731 -0.5016 -0.1674  0.0352
 2479TIP3    H128852   6.416   5.048  10.723 -3.0607 -1.0490 -0.4869
 2479TIP3    H228853   6.332   5.139  10.809 -0.7253  0.8483 -0.1187
 2480TIP3   OH228854   1.057   3.431  11.456 -0.1399  0.3600  0.4390
 2480TIP3    H128855   1.021   3.343  11.451  3.5413 -1.3854  1.3127
 2480TIP3    H228856   1.051   3.454  11.548  0.3738  0.3086  0.4877
 2481TIP3   OH228857   0.946   5.470  14.836  0.1883  0.2920  0.6644
 2481TIP3    H128858   0.970   5.561  14.818 -0.2281 -0.1700 -2.8438
 2481TIP3    H228859   1.020   5.435  14.884  1.3762  1.8967  0.0938
 2482TIP3   OH228860   0.086   6.744   4.622 -0.0807 -0.1985 -0.5915
 2482TIP3    H128861   0.173   6.773   4.648 -0.5196 -0.6765  1.5650
 2482TIP3    H228862   0.089   6.648   4.630 -0.9822 -0.1799  0.2078
 2483TIP3   OH228863   1.190   0.169   5.054  0.2452 -0.2334  0.1959
 2483TIP3    H128864   1.185   0.263   5.039 -3.9368 -0.3213 -0.1544
 2483TIP3    H228865   1.169   0.158   5.147  1.1918 -0.8152  0.3503
 2484TIP3   OH228866   1.956   5.774   0.281  0.5334  0.2121  0.9400
 2484TIP3    H128867   2.001   5.780   0.196  1.1663 -0.2080  1.2384
 2484TIP3    H228868   1.873   5.821   0.267  0.2728 -0.5070 -0.1458
 2485TIP3   OH228869   0.628   1.662  12.783 -0.6987 -0.1703  0.1867
 2485TIP3    H128870   0.550   1.717  12.784 -1.6979 -1.5287  0.3197
 2485TIP3    H228871   0.637   1.630  12.873  0.6002  0.7359  0.4056
 2486TIP3   OH228872   0.824   1.422  16.081 -0.2250 -1.2387  0.5071
 2486TIP3    H128873   0.865   1.352  16.131  2.5524  0.9703  1.5657
 2486TIP3    H228874   0.885   1.439  16.009 -1.1033 -0.2394 -0.0307
 2487TIP3   OH228875   5.080   2.338   5.587  0.2899 -0.0839 -0.3677
 2487TIP3    H128876   5.086   2.267   5.524  0.7424  1.0205 -1.6150
 2487TIP3    H228877   5.120   2.304   5.667 -0.6960 -1.6629 -0.4977
 2488TIP3   OH228878   2.125   1.054  14.742 -0.2724  0.3819 -0.4313
 2488TIP3    H128879   2.174   1.128  14.776  1.0843 -0.8840  0.4757
 2488TIP3    H228880   2.154   1.045  14.651  2.0829 -0.9584  0.3510
 2489TIP3   OH228881   1.556   2.059   3.498  0.2254 -0.4428  0.0886
 2489TIP3    H128882   1.542   1.991   3.564 -2.5900  0.8240  0.9744
 2489TIP3    H228883   1.484   2.047   3.436  0.2341  1.1214 -0.2693
 2490TIP3   OH228884   4.000   2.176  14.362 -0.6453 -0.1371 -0.3805
 2490TIP3    H128885   4.030   2.257  14.320 -2.0947  0.3469 -0.5325
 2490TIP3    H228886   3.929   2.204  14.419  0.5522 -0.9440  1.6054
 2491TIP3   OH228887   4.685   1.865   5.228  0.2165 -0.6955 -0.3048
 2491TIP3    H128888   4.714   1.936   5.171  2.2637  0.1599  1.6687
 2491TIP3    H228889   4.741   1.791   5.206 -0.8758 -1.2551 -1.2863
 2492TIP3   OH228890   0.060   5.186  13.551  0.1254  0.0534 -0.6632
 2492TIP3    H128891   0.155   5.191  13.555  0.0946  0.2185  0.3221
 2492TIP3    H228892   0.037   5.123  13.619 -0.5082  0.6626 -0.2983
 2493TIP3   OH228893   1.289   0.742  12.182  0.3259  0.3834 -0.3437
 2493TIP3    H128894   1.263   0.811  12.121 -0.5917  0.9521  0.6673
 2493TIP3    H228895   1.364   0.777  12.229 -0.7050  1.0971  0.8201
 2494TIP3   OH228896   1.138   5.185  12.714 -0.0679 -0.0504  0.3858
 2494TIP3    H128897   1.193   5.156  12.641  0.0182 -0.8443  0.7562
 2494TIP3    H228898   1.071   5.240  12.673  0.5237  0.2609 -0.1721
 2495TIP3   OH228899   5.115   6.672  15.569  0.1351  0.3650  0.3573
 2495TIP3    H128900   5.125   6.587  15.528  1.4175 -0.1014  1.5428
 2495TIP3    H228901   5.204   6.706  15.575  0.1195  0.1181  3.2618
 2496TIP3   OH228902   5.755   5.029   3.542 -0.0979 -0.0180 -0.2108
 2496TIP3    H128903   5.795   4.946   3.568  2.1986  1.0039 -0.2579
 2496TIP3    H228904   5.813   5.063   3.474 -0.5245  2.0049  0.3649
 2497TIP3   OH228905   0.734   6.370   0.369  0.4271 -0.0759  0.0213
 2497TIP3    H128906   0.822   6.406   0.360  0.2578  0.3276 -0.0422
 2497TIP3    H228907   0.676   6.446   0.361  0.0570 -0.3881 -0.2961
 2498TIP3   OH228908   6.683   2.736   6.040 -0.3956  0.0404 -0.0312
 2498TIP3    H128909   6.616   2.741   6.108  0.3563  0.9701  0.6709
 2498TIP3    H228910   6.764   2.717   6.088  0.4007  2.0668 -0.4713
 2499TIP3   OH228911   1.598   1.507   0.198 -0.0944  0.4405 -0.5022
 2499TIP3    H128912   1.508   1.482   0.219 -0.0279  1.0175  0.5600
 2499TIP3    H228913   1.652   1.437   0.235 -0.1114 -0.0878 -1.4523
 2500TIP3   OH228914   5.989   2.280   6.172 -0.1332  0.0762  0.5097
 2500TIP3    H128915   6.084   2.269   6.171 -0.1586 -0.2258 -0.7415
 2500TIP3    H228916   5.957   2.216   6.235  0.4360 -0.3719  0.3466
 2501TIP3   OH228917   1.254   0.480  14.026 -0.6551  0.1277  0.1652
 2501TIP3    H128918   1.233   0.567  13.992  0.9479  0.2526 -0.5957
 2501TIP3    H228919   1.175   0.428  14.008 -0.7286  0.7957 -1.6750
 2502TIP3   OH228920   3.141   2.391  12.315  0.3653 -0.2157 -0.3328
 2502TIP3    H128921   3.170   2.374  12.225  0.3474 -0.7473 -0.2407
 2502TIP3    H228922   3.221   2.392  12.367  0.3797  0.1369 -0.3597
 2503TIP3   OH228923   1.778   0.403  15.934  0.4846  0.2318 -0.6050
 2503TIP3    H128924   1.738   0.486  15.959 -2.3300 -1.1457 -0.1029
 2503TIP3    H228925   1.753   0.391  15.842  0.9431 -0.0293 -0.6988
 2504TIP3   OH228926   2.371   0.930   1.825 -0.7039 -0.2786  0.4380
 2504TIP3    H128927   2.333   1.011   1.859  0.6604  0.2090  0.8772
 2504TIP3    H228928   2.454   0.957   1.786 -0.7639 -1.3098 -0.4618
 2505TIP3   OH228929   4.909   5.226  12.001 -0.1630 -0.2155 -0.3091
 2505TIP3    H128930   4.948   5.308  12.030 -0.5327 -0.7800  1.9476
 2505TIP3    H228931   4.907   5.233  11.905  1.8417  1.4483 -0.2962
 2506TIP3   OH228932   5.776   3.445   1.583  0.3065  0.1471 -0.0826
 2506TIP3    H128933   5.782   3.479   1.493  0.7363 -0.0597 -0.1341
 2506TIP3    H228934   5.806   3.355   1.576  2.5455  0.7662  0.6339
 2507TIP3   OH228935   3.897   1.740   5.918  0.2242 -0.0724 -0.2394
 2507TIP3    H128936   3.987   1.712   5.937  1.0333  1.7463 -1.1756
 2507TIP3    H228937   3.877   1.701   5.833  0.5414  0.3849 -0.5292
 2508TIP3   OH228938   1.825   0.933  14.386  0.0767  0.8281  0.0714
 2508TIP3    H128939   1.788   0.876  14.453 -0.4610  1.0668 -0.0136
 2508TIP3    H228940   1.749   0.977  14.347  0.2959  0.1686 -1.1783
 2509TIP3   OH228941   0.876   1.781   4.962 -0.2178 -0.0737 -0.0678
 2509TIP3    H128942   0.829   1.760   5.042  0.0565  1.6173  0.5864
 2509TIP3    H228943   0.964   1.805   4.991  0.9317 -2.5397 -1.2068
 2510TIP3   OH228944   2.082   5.001  16.479  0.0278  0.3378 -0.4473
 2510TIP3    H128945   2.095   5.031  16.389 -1.7646 -1.2089 -1.2859
 2510TIP3    H228946   1.988   5.006  16.493  0.1022 -1.0247  0.7736
 2511TIP3   OH228947   0.745   1.126  15.747 -0.3600 -0.2603  0.2985
 2511TIP3    H128948   0.812   1.130  15.679 -0.0440 -2.0219  0.4596
 2511TIP3    H228949   0.665   1.156  15.705 -0.0458 -0.8002 -0.7152
 2512TIP3   OH228950   2.455   4.746   1.718  0.2583  0.4370 -0.6805
 2512TIP3    H128951   2.535   4.719   1.674  0.6047 -1.3775  0.9102
 2512TIP3    H228952   2.386   4.695   1.676  0.3745 -0.1577 -0.1683
 2513TIP3   OH228953   2.710   1.848  15.362  0.0740  0.6910  0.0384
 2513TIP3    H128954   2.722   1.939  15.390 -0.5590  0.2377  1.9533
 2513TIP3    H228955   2.758   1.842  15.279 -0.1382  2.8366 -0.3159
 2514TIP3   OH228956   2.286   6.638  14.306 -0.2415  1.1431 -0.5395
 2514TIP3    H128957   2.327   6.635  14.219 -1.1467 -2.7869 -1.0344
 2514TIP3    H228958   2.202   6.682  14.292  0.3708  2.1390 -1.2211
 2515TIP3   OH228959   3.245   6.356  13.836  0.2487 -0.0004  0.5389
 2515TIP3    H128960   3.219   6.433  13.786 -1.7810 -0.6154  0.5450
 2515TIP3    H228961   3.338   6.344  13.816 -0.2827  0.1713 -2.5638
 2516TIP3   OH228962   6.743   2.628  14.793 -0.4741  0.1977 -0.3510
 2516TIP3    H128963   6.688   2.554  14.820 -0.7933  0.5168 -0.1106
 2516TIP3    H228964   6.703   2.704  14.837 -0.5225  0.6039 -1.0909
 2517TIP3   OH228965   6.282   1.113   2.180 -0.0237 -0.1103 -0.6529
 2517TIP3    H128966   6.304   1.039   2.123 -0.1901 -0.5375 -0.1664
 2517TIP3    H228967   6.205   1.083   2.229  0.8394 -0.2106  0.6689
 2518TIP3   OH228968   2.571   6.624  15.407  0.7151 -0.0139  0.0500
 2518TIP3    H128969   2.526   6.540  15.400  0.8315  0.0207 -1.5276
 2518TIP3    H228970   2.513   6.678  15.461  0.7833 -1.1755  1.3170
 2519TIP3   OH228971   4.405   2.124  13.978 -0.4723  0.2734 -0.0434
 2519TIP3    H128972   4.341   2.075  14.029  0.2997  0.2246  0.9054
 2519TIP3    H228973   4.470   2.153  14.042  1.4962 -1.2860 -1.1950
 2520TIP3   OH228974   2.650   5.107  16.461  0.3646  0.1689 -0.4962
 2520TIP3    H128975   2.733   5.114  16.509 -0.0343 -0.9634  0.4010
 2520TIP3    H228976   2.664   5.158  16.381  1.5688  0.8366  0.1206
 2521TIP3   OH228977   2.880   6.244  11.003 -0.0655  0.8162  0.0672
 2521TIP3    H128978   2.970   6.277  11.012  0.6094 -0.7234 -0.7366
 2521TIP3    H228979   2.838   6.304  10.941  1.0660  0.3411 -1.1994
 2522TIP3   OH228980   0.382   3.321   1.398  0.2337  0.3033  0.3452
 2522TIP3    H128981   0.396   3.359   1.485 -2.7325 -0.4474  1.2697
 2522TIP3    H228982   0.337   3.389   1.349  1.8574  0.7064 -0.6528
 2523TIP3   OH228983   0.779   3.093   3.170 -0.0317 -0.5311  0.1072
 2523TIP3    H128984   0.781   3.187   3.189 -0.4985 -0.7924  1.6000
 2523TIP3    H228985   0.687   3.072   3.159 -0.0368 -0.9910  0.8901
 2524TIP3   OH228986   5.661   0.794   4.398 -0.3908 -0.3787 -0.3449
 2524TIP3    H128987   5.586   0.840   4.360 -0.4045 -0.9623 -1.0370
 2524TIP3    H228988   5.638   0.783   4.491  0.2267  2.2757  0.2055
 2525TIP3   OH228989   6.707   5.652   5.783 -0.3145 -0.5743 -0.4782
 2525TIP3    H128990   6.789   5.672   5.740 -0.0496 -2.4962 -0.9639
 2525TIP3    H228991   6.656   5.733   5.777  1.1168  0.3137 -1.1128
 2526TIP3   OH228992   4.484   0.557   1.327 -0.1986 -0.0450  0.0044
 2526TIP3    H128993   4.405   0.519   1.288  0.9235 -2.0320 -0.4559
 2526TIP3    H228994   4.514   0.490   1.389  0.1659  1.4479  1.4988
 2527TIP3   OH228995   5.222   4.765   1.768  0.4113 -0.1406  0.2574
 2527TIP3    H128996   5.215   4.827   1.696 -1.6611 -0.6063 -0.0150
 2527TIP3    H228997   5.300   4.792   1.816  0.5125  1.6206 -0.8116
 2528TIP3   OH228998   6.496   2.105   2.200 -0.0992 -0.0561  0.1085
 2528TIP3    H128999   6.542   2.068   2.275 -1.2623  0.7666  1.2726
 2528TIP3    H229000   6.414   2.057   2.196  0.9320 -1.8224 -2.2258
 2529TIP3   OH229001   0.115   0.515   0.162 -0.6084 -0.0012  0.5532
 2529TIP3    H129002   0.163   0.467   0.229  0.1663  1.3230  0.9872
 2529TIP3    H229003   0.024   0.511   0.190 -0.3449  0.1658  1.4668
 2530TIP3   OH229004   2.638   3.333   0.598 -0.1131  0.0676  0.0781
 2530TIP3    H129005   2.583   3.301   0.669  0.9287 -1.2809  0.3187
 2530TIP3    H229006   2.727   3.305   0.622  0.1409 -1.3418 -2.2042
 2531TIP3   OH229007   1.339   0.028   7.045  0.1686  0.0293 -0.4138
 2531TIP3    H129008   1.433   0.039   7.062 -0.4202  1.5857  2.4220
 2531TIP3    H229009   1.314   0.105   6.995  0.5450 -0.9319 -2.1545
 2532TIP3   OH229010   1.042   1.256  11.932  0.1827 -0.0299  0.1151
 2532TIP3    H129011   1.093   1.260  11.852 -0.3830  2.7051 -0.1867
 2532TIP3    H229012   0.952   1.243  11.903  0.2318 -1.3751  0.4788
 2533TIP3   OH229013   0.821   4.563   3.143 -0.1040  0.8326 -0.6750
 2533TIP3    H129014   0.756   4.493   3.135 -0.7927  1.1668  1.4179
 2533TIP3    H229015   0.847   4.562   3.235  2.3021  1.2465 -1.2892
 2534TIP3   OH229016   5.870   1.594   6.654  0.4745 -0.5098  1.0617
 2534TIP3    H129017   5.830   1.536   6.720  0.5776  0.4580  2.0029
 2534TIP3    H229018   5.856   1.548   6.571 -1.1560 -0.9773  1.5442
 2535TIP3   OH229019   3.543   4.452   0.926  0.5087  0.1199 -0.4705
 2535TIP3    H129020   3.479   4.393   0.966 -0.2515  0.6423 -0.8861
 2535TIP3    H229021   3.577   4.402   0.852  0.4347 -0.0907 -0.3651
 2536TIP3   OH229022   2.545   2.686   6.661  0.0333 -0.4007 -0.5301
 2536TIP3    H129023   2.550   2.720   6.572 -0.1452 -1.4037 -0.9345
 2536TIP3    H229024   2.582   2.756   6.715  0.8934 -0.1002 -1.4704
 2537TIP3   OH229025   4.480   5.368   4.686  0.5893 -0.1863 -0.7735
 2537TIP3    H129026   4.399   5.332   4.650  0.4057  1.0567 -1.7001
 2537TIP3    H229027   4.463   5.462   4.691  1.0717 -0.1729  1.4455
 2538TIP3   OH229028   5.914   3.930  15.741 -0.6968 -0.2037 -0.1135
 2538TIP3    H129029   5.910   4.024  15.726  0.4928 -0.2300 -0.6766
 2538TIP3    H229030   5.822   3.902  15.745 -1.0803  1.0879  0.8850
 2539TIP3   OH229031   4.224   3.173   4.910 -0.2930 -0.6439 -0.3001
 2539TIP3    H129032   4.255   3.151   4.822 -1.0820 -1.9295 -0.2896
 2539TIP3    H229033   4.185   3.092   4.942 -1.4676  0.2520  0.6126
 2540TIP3   OH229034   3.998   4.258  17.026 -0.8938 -0.0094  0.0849
 2540TIP3    H129035   4.050   4.243  16.947  0.0804 -2.5445  1.0920
 2540TIP3    H229036   4.059   4.300  17.087 -2.1027  3.5367 -0.9167
 2541TIP3   OH229037   5.833   1.630   2.986 -0.1744  0.2754  0.2536
 2541TIP3    H129038   5.752   1.582   3.005 -0.0943 -0.7077 -1.6637
 2541TIP3    H229039   5.898   1.593   3.045 -0.3695 -1.3194 -0.4659
 2542TIP3   OH229040   6.144   0.711   4.773 -0.0008 -0.2549  0.0438
 2542TIP3    H129041   6.234   0.694   4.802 -0.3314  1.8106  2.6438
 2542TIP3    H229042   6.090   0.661   4.834 -0.6605  0.2782 -0.0984
 2543TIP3   OH229043   3.135   6.312   1.652  0.1489 -0.4447 -0.3238
 2543TIP3    H129044   3.109   6.398   1.684 -0.1490 -1.2579  1.7565
 2543TIP3    H229045   3.080   6.296   1.575 -1.3633  0.3003  0.5814
 2544TIP3   OH229046   0.240   2.788  16.063 -0.2068  0.2680 -0.1859
 2544TIP3    H129047   0.252   2.822  16.151  0.6050  1.8990 -0.8967
 2544TIP3    H229048   0.226   2.865  16.008 -1.0785 -0.7350 -1.4421
 2545TIP3   OH229049   3.794   6.449  10.776  0.5026 -1.0075  0.4343
 2545TIP3    H129050   3.727   6.506  10.737  1.9781  2.3871  2.4474
 2545TIP3    H229051   3.864   6.447  10.711  0.5319 -0.2847  0.4323
 2546TIP3   OH229052   5.286   5.679   0.919 -0.1183  0.3079 -0.2092
 2546TIP3    H129053   5.312   5.726   0.998 -1.3355  1.9841 -0.7485
 2546TIP3    H229054   5.249   5.746   0.862 -2.8505 -1.4124 -0.6353
 2547TIP3   OH229055   0.821   5.681   0.161  0.1431  0.5669 -0.5041
 2547TIP3    H129056   0.825   5.585   0.168  0.7630  0.6153 -0.1398
 2547TIP3    H229057   0.896   5.705   0.108  0.8563  0.9568  0.6349
 2548TIP3   OH229058   3.274   3.814  14.807 -0.2141  0.0993 -0.2329
 2548TIP3    H129059   3.319   3.734  14.833  1.1002  0.9042  0.0457
 2548TIP3    H229060   3.301   3.879  14.873  1.7401  1.7255 -2.4768
 2549TIP3   OH229061   4.945   1.524   1.123 -0.0598 -0.4067  0.3177
 2549TIP3    H129062   4.930   1.609   1.081  0.1984 -1.4893 -2.1340
 2549TIP3    H229063   5.038   1.525   1.146 -0.1444  0.1013  0.6533
 2550TIP3   OH229064   2.597   3.191  11.840 -0.1340  0.0285 -0.1219
 2550TIP3    H129065   2.616   3.265  11.782  0.7836 -0.0250  0.1032
 2550TIP3    H229066   2.682   3.156  11.864 -0.5384 -0.6589  0.3622
 2551TIP3   OH229067   6.565   5.674  17.064 -0.3447 -0.2793 -0.1532
 2551TIP3    H129068   6.573   5.692  17.158  1.0436  0.6836 -0.4336
 2551TIP3    H229069   6.530   5.585  17.061 -1.3843  0.0368  1.2683
 2552TIP3   OH229070   6.462   3.858  13.127  0.0101  0.2030  0.0287
 2552TIP3    H129071   6.488   3.948  13.107  0.9335 -0.0043  0.2741
 2552TIP3    H229072   6.429   3.824  13.043 -2.3538  1.4001  0.3728
 2553TIP3   OH229073   1.966   0.037  11.383  0.0221 -0.1593  0.1005
 2553TIP3    H129074   1.925   0.068  11.302  1.2267  0.4138 -0.3222
 2553TIP3    H229075   1.899  -0.017  11.424 -2.2069  2.8587  0.8263
 2554TIP3   OH229076   2.239   2.216   4.472  0.1459  0.1309  0.4224
 2554TIP3    H129077   2.192   2.280   4.419 -1.6383  0.8385  2.7114
 2554TIP3    H229078   2.295   2.269   4.529  1.0275 -0.5408  0.2039
 2555TIP3   OH229079   0.934   5.781   4.694 -0.1619 -0.5808  0.1229
 2555TIP3    H129080   0.963   5.794   4.784 -0.6565  1.0383  0.0733
 2555TIP3    H229081   0.957   5.862   4.649 -0.3745 -1.1724 -1.0917
 2556TIP3   OH229082   0.123   4.747  16.042 -0.3818  0.1087 -0.3516
 2556TIP3    H129083   0.135   4.842  16.031 -1.3122  0.4784  1.4303
 2556TIP3    H229084   0.211   4.711  16.033 -0.3595  0.6479 -4.4779
 2557TIP3   OH229085   5.888   4.407   0.581  0.4625  0.2746  0.3294
 2557TIP3    H129086   5.907   4.445   0.496  2.4696 -0.7138  0.2791
 2557TIP3    H229087   5.819   4.342   0.563  1.1885 -0.2501 -0.6363
 2558TIP3   OH229088   0.326   1.070   0.151  0.5477 -0.1292 -0.7580
 2558TIP3    H129089   0.395   1.042   0.091  1.0562  0.4301 -0.4341
 2558TIP3    H229090   0.286   1.145   0.108 -0.1170 -0.6750 -1.1210
 2559TIP3   OH229091   1.406   3.883  13.267  0.7161  0.2252 -0.1933
 2559TIP3    H129092   1.461   3.805  13.260 -1.2639 -1.4806  1.4327
 2559TIP3    H229093   1.328   3.852  13.313  0.5333  3.5581  2.1047
 2560TIP3   OH229094   6.177   3.717   1.408 -0.1501 -0.1304  0.0820
 2560TIP3    H129095   6.096   3.705   1.458 -0.1923  0.0027  0.0461
 2560TIP3    H229096   6.247   3.708   1.473 -0.1941 -0.2291  0.1161
 2561TIP3   OH229097   4.329   2.806  11.944  0.2139 -0.5266 -0.0535
 2561TIP3    H129098   4.301   2.881  11.892  0.0195  1.0309  2.1998
 2561TIP3    H229099   4.354   2.740  11.878  0.6270  1.5444 -2.0967
 2562TIP3   OH229100   4.507   4.857   6.282  0.5554  0.1483  0.4313
 2562TIP3    H129101   4.440   4.887   6.220  0.2533  0.2522  0.8045
 2562TIP3    H229102   4.457   4.833   6.361  0.8464 -0.7867  0.3397
 2563TIP3   OH229103   0.381   0.560   0.726  0.1580 -0.4053  0.5163
 2563TIP3    H129104   0.405   0.636   0.674  1.4494 -1.6130 -0.7521
 2563TIP3    H229105   0.333   0.595   0.800 -1.7376  1.4123 -1.4446
 2564TIP3   OH229106   5.444   5.300  16.845 -0.0378 -0.5979  0.3585
 2564TIP3    H129107   5.366   5.336  16.889  0.0444  0.5875 -0.4223
 2564TIP3    H229108   5.409   5.253  16.769  0.0365  0.5257 -0.3837
 2565TIP3   OH229109   1.551   0.924  12.902  0.4425  0.4615  0.1685
 2565TIP3    H129110   1.572   0.862  12.832  1.1013  0.5294  0.3020
 2565TIP3    H229111   1.465   0.959  12.877 -0.2124 -0.9363  0.4171
 2566TIP3   OH229112   1.892   2.936   4.747  0.3556  0.6866 -0.1804
 2566TIP3    H129113   1.968   2.918   4.693 -0.5231 -0.6270 -1.0522
 2566TIP3    H229114   1.876   2.855   4.795  0.5021  1.4993  1.2885
 2567TIP3   OH229115   2.716   2.142   0.229 -0.1521  0.1485 -0.0058
 2567TIP3    H129116   2.714   2.081   0.156  1.5451  0.5117 -0.3967
 2567TIP3    H229117   2.800   2.125   0.272  0.6706  2.6100 -0.5115
 2568TIP3   OH229118   0.223   5.005   5.899 -0.0053  0.3303 -0.3091
 2568TIP3    H129119   0.195   5.091   5.929 -0.6280 -0.0129  0.1172
 2568TIP3    H229120   0.186   4.944   5.963 -0.7097 -0.3604 -1.3380
 2569TIP3   OH229121   1.906   3.266   2.243 -0.0269  0.1802 -0.5923
 2569TIP3    H129122   1.958   3.344   2.264  1.3717 -0.4433 -1.5563
 2569TIP3    H229123   1.895   3.222   2.326  1.0961  0.2943 -0.3628
 2570TIP3   OH229124   5.725   4.848  14.071 -0.4176 -0.1788  0.1945
 2570TIP3    H129125   5.810   4.892  14.078 -0.2392 -0.4759 -0.0490
 2570TIP3    H229126   5.732   4.795  13.991 -1.4560  1.1350 -0.8116
 2571TIP3   OH229127   4.665   0.781   2.054 -0.2320 -0.5808  0.0138
 2571TIP3    H129128   4.720   0.767   2.131  1.0988 -2.3208 -1.1863
 2571TIP3    H229129   4.587   0.727   2.070  0.1885 -1.1951  0.0109
 2572TIP3   OH229130   2.693   1.380   1.147  0.3472 -0.6444 -1.2362
 2572TIP3    H129131   2.686   1.368   1.242  0.6190  0.4843 -1.0599
 2572TIP3    H229132   2.695   1.291   1.112  0.9097 -1.0927 -0.1344
 2573TIP3   OH229133   5.798   3.047  15.439 -0.7001  0.5529 -0.0025
 2573TIP3    H129134   5.851   3.003  15.372  1.0262 -0.5343  1.9386
 2573TIP3    H229135   5.834   3.136  15.443 -0.2882  0.3904 -0.0153
 2574TIP3   OH229136   2.436   6.280   1.337  0.1537  0.2439  0.1283
 2574TIP3    H129137   2.352   6.261   1.296  0.4857  0.8934 -0.8988
 2574TIP3    H229138   2.432   6.236   1.422 -0.8627 -0.4887 -0.2756
 2575TIP3   OH229139   1.050   1.479  12.988  0.1097  0.5332 -0.4036
 2575TIP3    H129140   1.033   1.385  12.991  0.5615  0.4778  0.7921
 2575TIP3    H229141   1.123   1.488  12.926  0.1019  0.1010 -0.4823
 2576TIP3   OH229142   4.945   1.515   4.702  0.1617 -0.4907 -0.1070
 2576TIP3    H129143   4.948   1.474   4.616 -1.8736 -0.9477 -0.0080
 2576TIP3    H229144   4.954   1.442   4.763  1.3678 -0.1936  0.0842
 2577TIP3   OH229145   4.698   4.851   4.090 -0.4062  0.1711  0.0956
 2577TIP3    H129146   4.692   4.838   4.184  0.0044 -0.9116 -0.0175
 2577TIP3    H229147   4.777   4.904   4.078  1.5520 -2.5391  0.1591
 2578TIP3   OH229148   2.785   1.559   2.568 -0.4459 -0.3752  0.7352
 2578TIP3    H129149   2.693   1.559   2.542 -0.9044 -1.0434  2.2500
 2578TIP3    H229150   2.785   1.594   2.657  0.5913 -1.5799  1.2392
 2579TIP3   OH229151   3.212   1.456   1.287  0.0247  0.0396 -0.1957
 2579TIP3    H129152   3.135   1.476   1.235  0.1947 -0.5727 -0.6871
 2579TIP3    H229153   3.205   1.363   1.306  1.3789 -0.3509 -1.4794
 2580TIP3   OH229154   5.142   3.004   6.264  0.8162  0.2123 -0.0403
 2580TIP3    H129155   5.179   2.920   6.289  1.7846  1.1377  1.9033
 2580TIP3    H229156   5.070   3.018   6.325  0.3733  0.5996 -0.6409
 2581TIP3   OH229157   2.067   2.548   4.951 -0.6253 -0.4627 -0.2540
 2581TIP3    H129158   2.110   2.631   4.931 -0.1829 -0.8433 -0.9013
 2581TIP3    H229159   1.974   2.564   4.932 -0.5721 -0.0662 -0.1983
 2582TIP3   OH229160   1.843   2.833   3.712 -0.3961  0.3227 -0.3228
 2582TIP3    H129161   1.897   2.881   3.649 -1.0092  1.2755 -0.1501
 2582TIP3    H229162   1.758   2.876   3.708 -0.5242  0.2218  0.9450
 2583TIP3   OH229163   3.462   4.802  17.066  0.3666 -0.0656  0.0621
 2583TIP3    H129164   3.403   4.852  17.010  0.0347  0.4506  0.8449
 2583TIP3    H229165   3.414   4.722  17.086  0.0954  0.1673  0.3592
 2584TIP3   OH229166   0.519   0.939   1.327  0.1347  0.2735 -0.3091
 2584TIP3    H129167   0.531   0.850   1.295  1.1072  0.1572  0.3306
 2584TIP3    H229168   0.462   0.981   1.262 -0.7613 -0.9521 -0.3369
 2585TIP3   OH229169   4.108   5.501   1.846  0.4835 -0.3516 -0.0011
 2585TIP3    H129170   4.038   5.565   1.837  1.0990  1.1905  3.9473
 2585TIP3    H229171   4.067   5.425   1.887  0.4634 -1.0010 -1.1906
 2586TIP3   OH229172   0.670   2.852   1.525  0.3110  0.0398 -0.3270
 2586TIP3    H129173   0.661   2.791   1.451 -0.4319 -1.4829  0.9517
 2586TIP3    H229174   0.579   2.872   1.549  0.5515  1.4658 -0.5396
 2587TIP3   OH229175   6.106   6.476  16.935  0.2233 -0.2732 -0.1185
 2587TIP3    H129176   6.173   6.420  16.975 -0.6385 -0.4962  1.0717
 2587TIP3    H229177   6.040   6.487  17.004 -0.7215  0.3482 -1.0971
 2588TIP3   OH229178   6.048   3.097   5.883 -0.3307 -0.5390 -0.0103
 2588TIP3    H129179   5.982   3.065   5.945 -0.3648 -0.7920 -0.1786
 2588TIP3    H229180   6.082   3.019   5.840 -0.5292 -0.3422 -0.5351
 2589TIP3   OH229181   2.049   4.786  15.346 -0.3366  0.2484 -0.1140
 2589TIP3    H129182   2.112   4.820  15.410 -0.0688 -1.9732  0.8803
 2589TIP3    H229183   2.077   4.696  15.330 -3.1631 -0.7982  0.2867
 2590TIP3   OH229184   3.685   4.801  11.567 -0.0484  0.2174  0.4390
 2590TIP3    H129185   3.601   4.833  11.534  1.4542  4.9315  0.5241
 2590TIP3    H229186   3.662   4.726  11.622 -4.0762  0.7326 -0.2620
 2591TIP3   OH229187   2.493   5.953   2.296  0.0518 -0.2118 -0.1076
 2591TIP3    H129188   2.555   5.916   2.358  1.6752 -1.0457 -2.1286
 2591TIP3    H229189   2.460   5.878   2.246  0.5105  0.6280 -1.7426
 2592TIP3   OH229190   1.379   6.543   4.820  0.4578 -0.2284 -0.0506
 2592TIP3    H129191   1.326   6.489   4.879 -0.0611 -0.0414 -0.3397
 2592TIP3    H229192   1.432   6.598   4.878  0.4554 -0.5348  0.2405
 2593TIP3   OH229193   1.582   0.750   4.040  0.1876 -0.1888  0.0676
 2593TIP3    H129194   1.601   0.661   4.012 -1.7468 -1.0857  1.3935
 2593TIP3    H229195   1.664   0.781   4.079  0.7609 -1.5403 -0.0177
 2594TIP3   OH229196   1.064   0.452  16.435  0.2945  0.1453 -0.5284
 2594TIP3    H129197   1.154   0.476  16.413  0.6734 -1.1017 -0.3789
 2594TIP3    H229198   1.072   0.374  16.489 -0.8859 -0.1080 -0.6933
 2595TIP3   OH229199   2.975   3.647   1.658 -0.0277  0.3891 -0.2085
 2595TIP3    H129200   2.920   3.637   1.580 -0.5268  0.6655  0.1019
 2595TIP3    H229201   2.936   3.589   1.723 -0.1568  0.8435  0.1220
 2596TIP3   OH229202   2.574   1.093  13.384 -0.0868  0.2109  0.1640
 2596TIP3    H129203   2.482   1.119  13.393 -0.6230 -1.0551 -1.1222
 2596TIP3    H229204   2.575   1.037  13.306  1.6232 -0.5444  0.6749
 2597TIP3   OH229205   1.738   6.306   0.351  0.0107 -0.1695  0.3507
 2597TIP3    H129206   1.649   6.318   0.317  0.9857  1.7103 -1.7559
 2597TIP3    H229207   1.749   6.211   0.355 -1.5691 -0.4454 -0.8480
 2598TIP3   OH229208   5.128   5.371   5.861  0.5856  0.6649 -0.5073
 2598TIP3    H129209   5.197   5.386   5.926  0.2714 -1.2213  0.3283
 2598TIP3    H229210   5.173   5.325   5.790  0.1134 -1.3064  0.3934
 2599TIP3   OH229211   3.272   0.035  13.197 -0.1013  0.1736 -0.5887
 2599TIP3    H129212   3.333   0.104  13.222 -0.4789 -0.3138  1.8879
 2599TIP3    H229213   3.329  -0.037  13.167  0.5208  0.1561  0.5656
 2600TIP3   OH229214   1.910   2.607  16.538 -0.4931 -0.2028 -0.0677
 2600TIP3    H129215   1.972   2.680  16.527 -0.2684 -0.4715 -0.6250
 2600TIP3    H229216   1.903   2.568  16.451  0.7988 -1.9755  0.5644
 2601TIP3   OH229217   5.801   5.443  12.959  0.2670  1.0158 -0.5705
 2601TIP3    H129218   5.762   5.365  12.997  1.6701  1.3715  1.8425
 2601TIP3    H229219   5.886   5.414  12.926  0.5141  1.4002 -0.2785
 2602TIP3   OH229220   2.240   0.735  14.690  0.0254 -0.2470 -0.3488
 2602TIP3    H129221   2.212   0.801  14.626 -0.9289  0.6033  0.8886
 2602TIP3    H229222   2.164   0.723  14.747  0.3585 -2.0674 -0.2323
 2603TIP3   OH229223   6.374   3.393   3.528 -0.1568  0.2622  0.6162
 2603TIP3    H129224   6.448   3.429   3.576  1.9376 -0.2071 -2.0242
 2603TIP3    H229225   6.329   3.470   3.492 -0.0717  0.4869  0.9812
 2604TIP3   OH229226   0.432   0.339  15.401 -0.0655  0.2912  0.0351
 2604TIP3    H129227   0.501   0.392  15.439  1.5893 -0.0466 -2.2682
 2604TIP3    H229228   0.478   0.280  15.340 -2.0317 -2.2960  0.8732
 2605TIP3   OH229229   0.550   1.680   0.308  0.1239 -0.0985 -0.7279
 2605TIP3    H129230   0.613   1.611   0.287  0.5415 -0.2747  0.9430
 2605TIP3    H229231   0.601   1.762   0.303  0.6829 -0.2790  1.0962
 2606TIP3   OH229232   5.028   2.453   1.376  0.1301  0.0327 -0.0062
 2606TIP3    H129233   5.088   2.525   1.357 -1.1441  1.3001  0.5767
 2606TIP3    H229234   4.949   2.474   1.326  0.1136 -1.5579 -0.6990
 2607TIP3   OH229235   5.226   5.025   5.840 -0.0611 -0.4948 -0.0457
 2607TIP3    H129236   5.296   4.986   5.892 -0.3893 -0.2409  0.5928
 2607TIP3    H229237   5.164   4.954   5.825 -1.2922  0.0267  2.1911
 2608TIP3   OH229238   1.105   0.981   6.456  0.0296 -0.1307 -0.0157
 2608TIP3    H129239   1.011   0.966   6.458 -0.1280  0.7043 -0.9705
 2608TIP3    H229240   1.131   0.961   6.366  0.7836 -0.3830  0.2438
 2609TIP3   OH229241   3.513   3.364   3.360 -0.2325  0.0325 -0.6290
 2609TIP3    H129242   3.560   3.369   3.444 -0.7396 -0.2343 -0.3222
 2609TIP3    H229243   3.534   3.277   3.326 -0.7361 -0.2057 -0.3454
 2610TIP3   OH229244   2.821   0.152   1.853  0.2186  0.0619 -0.2650
 2610TIP3    H129245   2.814   0.160   1.948 -0.3415 -0.2795 -0.2706
 2610TIP3    H229246   2.787   0.235   1.819 -0.9153 -0.3427 -0.1932
 2611TIP3   OH229247   1.330   4.405  15.487 -0.1652 -0.1724 -0.6062
 2611TIP3    H129248   1.257   4.386  15.429 -1.2557  1.9627 -0.0285
 2611TIP3    H229249   1.348   4.498  15.473  3.6263 -0.9482 -1.9874
 2612TIP3   OH229250   0.446   4.130  11.880  0.0397  0.6270  0.1450
 2612TIP3    H129251   0.451   4.148  11.786  1.6031 -0.0901  0.0470
 2612TIP3    H229252   0.406   4.208  11.918  2.1272  2.2619 -0.7958
 2613TIP3   OH229253   4.982   5.076   1.847  0.1099 -0.6053 -0.2049
 2613TIP3    H129254   5.076   5.076   1.829  0.2330  1.8042  0.0936
 2613TIP3    H229255   4.969   5.149   1.908 -1.6696 -2.3174  1.5941
 2614TIP3   OH229256   1.998   5.123   3.853  0.2545  0.0251  0.0033
 2614TIP3    H129257   1.974   5.194   3.912  0.5162 -0.4638  0.7137
 2614TIP3    H229258   1.942   5.136   3.776  0.2364  0.9405  0.1552
 2615TIP3   OH229259   2.162   2.306   3.118 -0.3883 -0.3186  0.1744
 2615TIP3    H129260   2.178   2.400   3.130 -0.1457 -0.6175  2.9541
 2615TIP3    H229261   2.220   2.281   3.047  2.8311  0.9241  2.1220
 2616TIP3   OH229262   2.648   1.101   3.822  0.1770 -0.3326  0.3636
 2616TIP3    H129263   2.742   1.086   3.826  0.3199  0.6104  0.8228
 2616TIP3    H229264   2.639   1.196   3.824 -0.7101 -0.3308 -1.5388
 2617TIP3   OH229265   5.818   6.094   4.841 -0.5366  0.0106 -0.0684
 2617TIP3    H129266   5.794   6.043   4.918 -1.9594 -0.7197 -0.9498
 2617TIP3    H229267   5.799   6.185   4.866 -2.1383 -0.3255  0.0828
 2618TIP3   OH229268   2.447   6.061   1.536 -1.0096  0.1215 -0.2884
 2618TIP3    H129269   2.496   6.097   1.610 -1.3977 -0.6700  0.3651
 2618TIP3    H229270   2.359   6.046   1.570 -1.0272 -0.8579 -0.7147
 2619TIP3   OH229271   0.225   4.855   2.822  0.7063  0.0865  0.0190
 2619TIP3    H129272   0.295   4.896   2.771 -0.1045 -0.3232 -1.4812
 2619TIP3    H229273   0.160   4.925   2.834  0.5370 -0.0300 -0.2113
 2620TIP3   OH229274   4.700   0.240  12.314  0.4591  0.1209 -0.3051
 2620TIP3    H129275   4.695   0.185  12.392  2.3020 -0.8150 -0.7934
 2620TIP3    H229276   4.635   0.204  12.254 -0.1348  0.0974  0.3495
 2621TIP3   OH229277   5.372   2.479  12.182  0.4133  0.1424  0.0734
 2621TIP3    H129278   5.301   2.521  12.230  1.7949  0.5862  1.8612
 2621TIP3    H229279   5.338   2.393  12.159 -1.0436  0.7185 -0.0441
 2622TIP3   OH229280   5.019   0.330  11.337 -0.4054 -0.2808 -0.2191
 2622TIP3    H129281   4.958   0.338  11.264  1.1863 -0.9457 -1.6937
 2622TIP3    H229282   5.051   0.240  11.333  1.7136  0.4188 -0.4113
 2623TIP3   OH229283   1.279   4.074   6.107  0.6600  0.1562  0.5281
 2623TIP3    H129284   1.373   4.087   6.123  0.4565 -0.5879  2.7394
 2623TIP3    H229285   1.251   4.013   6.176 -1.1931 -0.7460 -0.9121
 2624TIP3   OH229286   5.626   6.523  15.918  0.3565 -0.0443 -0.2845
 2624TIP3    H129287   5.635   6.427  15.923  1.5687  0.0295 -0.5427
 2624TIP3    H229288   5.652   6.554  16.004 -1.9439 -0.0185  0.4640
 2625TIP3   OH229289   6.687   1.568  11.340 -0.5126 -0.4457  0.1331
 2625TIP3    H129290   6.686   1.515  11.420  0.3908 -0.1649  0.3364
 2625TIP3    H229291   6.617   1.632  11.353  0.3953  0.3481  1.2181
 2626TIP3   OH229292   3.955   3.820  14.750 -0.1040  0.6363 -0.5066
 2626TIP3    H129293   3.888   3.772  14.700  1.2953 -0.0478 -1.7997
 2626TIP3    H229294   3.936   3.799  14.841  0.0972 -1.9713 -0.9812
 2627TIP3   OH229295   5.238   2.394   4.014  0.7097  0.0823  0.0716
 2627TIP3    H129296   5.251   2.304   3.985  0.1432  0.0247 -0.0096
 2627TIP3    H229297   5.236   2.446   3.933 -2.2068 -0.2418 -0.1414
 2628TIP3   OH229298   1.751   3.677  14.878  0.2901 -0.0067 -0.4345
 2628TIP3    H129299   1.736   3.772  14.872 -1.9137 -0.1553  1.5454
 2628TIP3    H229300   1.665   3.639  14.861  0.5547 -1.5215  1.4320
 2629TIP3   OH229301   4.052   4.059  11.043  0.5653  0.0424  0.5694
 2629TIP3    H129302   3.993   3.986  11.065  1.6495 -0.3811  2.2409
 2629TIP3    H229303   4.021   4.089  10.958 -0.5415 -1.7336  0.2816
 2630TIP3   OH229304   5.331   1.136  12.853  0.4757 -0.1112  0.3409
 2630TIP3    H129305   5.417   1.116  12.818  0.1779 -0.1729 -0.3676
 2630TIP3    H229306   5.319   1.074  12.925  0.7365 -0.5752 -0.0088
 2631TIP3   OH229307   0.101   0.775  11.309  0.5930  0.7154  0.6009
 2631TIP3    H129308   0.116   0.835  11.381 -0.9153  1.0222  0.7023
 2631TIP3    H229309   0.147   0.814  11.235  1.1203  1.0449  1.0955
 2632TIP3   OH229310   3.942   0.297  14.534 -0.1644  0.0748 -0.1702
 2632TIP3    H129311   4.016   0.276  14.590 -0.9070  1.4739  1.4194
 2632TIP3    H229312   3.870   0.315  14.595 -1.5246 -0.1590 -1.6329
 2633TIP3   OH229313   4.852   4.927   5.205  0.0201 -0.1099  0.3951
 2633TIP3    H129314   4.831   4.848   5.155  2.7225 -0.2264 -0.7548
 2633TIP3    H229315   4.804   4.997   5.161 -2.4383 -1.0218  1.4541
 2634TIP3   OH229316   0.244   4.122   5.758  0.6606 -0.1988  0.9740
 2634TIP3    H129317   0.180   4.155   5.695  0.5698  0.0208  1.1807
 2634TIP3    H229318   0.194   4.111   5.839  0.9872  0.4223  1.2648
 2635TIP3   OH229319   6.716   2.473   3.501 -0.0645  0.1904 -0.2654
 2635TIP3    H129320   6.681   2.547   3.452  1.0482  0.2809 -0.9562
 2635TIP3    H229321   6.791   2.508   3.548 -1.1613  0.1396  1.6610
 2636TIP3   OH229322   2.543   5.907  14.697  0.1765  0.7939  0.3538
 2636TIP3    H129323   2.453   5.939  14.709 -0.6789 -1.0669 -0.5565
 2636TIP3    H229324   2.598   5.983  14.713 -1.5115  1.8286  1.6883
 2637TIP3   OH229325   2.902   1.393  15.319  0.4474 -0.4189  0.5475
 2637TIP3    H129326   2.813   1.419  15.296  1.2537  1.0648 -1.1320
 2637TIP3    H229327   2.894   1.303  15.350 -1.5599 -0.4800 -0.0464
 2638TIP3   OH229328   1.564   6.761  10.925 -0.2927 -0.5099 -0.3009
 2638TIP3    H129329   1.603   6.685  10.969  0.3743 -0.6683 -1.1466
 2638TIP3    H229330   1.638   6.821  10.912 -0.4884 -0.4409 -1.1374
 2639TIP3   OH229331   2.397   3.574   0.392  0.3876  0.1555  0.5053
 2639TIP3    H129332   2.370   3.495   0.345 -0.7623  1.0208 -0.3686
 2639TIP3    H229333   2.459   3.617   0.332  0.4717  0.2667  0.6703
 2640TIP3   OH229334   6.495   4.352  15.588 -0.7417 -0.2714 -0.5019
 2640TIP3    H129335   6.455   4.419  15.533 -1.2174 -0.5535 -0.5073
 2640TIP3    H229336   6.566   4.316  15.534 -0.8331 -0.1463 -0.7082
 2641TIP3   OH229337   1.786   4.486  12.664  0.6965 -0.0290  0.3924
 2641TIP3    H129338   1.744   4.559  12.710 -0.1070 -0.0778 -0.2476
 2641TIP3    H229339   1.868   4.472  12.712  0.1735  0.3249  1.4202
 2642TIP3   OH229340   3.182   3.129   2.539  0.4771 -0.5473 -0.3245
 2642TIP3    H129341   3.161   3.071   2.612 -2.1568  1.0537  0.3464
 2642TIP3    H229342   3.181   3.217   2.578  0.2486  0.2608 -2.0588
 2643TIP3   OH229343   1.062   1.384   0.857  0.1632 -0.5575  0.1366
 2643TIP3    H129344   1.056   1.329   0.936 -0.8401 -0.6117  0.0345
 2643TIP3    H229345   1.143   1.356   0.814  0.0888 -1.3759  0.5164
 2644TIP3   OH229346   2.863   1.654   1.913  0.1451 -0.0190 -0.0348
 2644TIP3    H129347   2.944   1.672   1.865  0.5329 -3.0905 -0.7708
 2644TIP3    H229348   2.883   1.577   1.966 -2.0967 -0.4427  0.3136
 2645TIP3   OH229349   5.277   1.516  17.109 -0.0998  0.3569  0.9516
 2645TIP3    H129350   5.206   1.566  17.067 -1.0138 -1.0317  0.7786
 2645TIP3    H229351   5.357   1.546  17.064 -0.8045  0.5221 -0.2526
 2646TIP3   OH229352   1.929   2.189   2.958  0.6148 -0.5318  0.4553
 2646TIP3    H129353   1.980   2.215   2.881 -0.3599  0.7497  0.2232
 2646TIP3    H229354   1.989   2.202   3.031  1.9513 -2.8484 -0.1271
 2647TIP3   OH229355   0.120   2.674   5.449  0.7592  0.5756 -0.2833
 2647TIP3    H129356   0.214   2.663   5.436  0.4198 -0.7475 -1.9538
 2647TIP3    H229357   0.082   2.591   5.422 -0.8247  0.5384  1.7563
 2648TIP3   OH229358   1.130   0.022   1.469  0.2967 -0.6263 -0.5875
 2648TIP3    H129359   1.056   0.083   1.473 -0.2805 -1.3495  0.1042
 2648TIP3    H229360   1.109  -0.035   1.395 -0.6498 -1.8163  0.5545
 2649TIP3   OH229361   1.946   1.944  10.633  0.8750 -0.1917 -0.3113
 2649TIP3    H129362   1.989   1.919  10.715  0.3359 -1.1790 -0.3230
 2649TIP3    H229363   1.853   1.947  10.654  0.8561  1.2178 -0.4764
 2650TIP3   OH229364   4.911   4.420  10.945 -0.3389 -0.2942 -0.1188
 2650TIP3    H129365   4.874   4.503  10.915 -0.8111 -0.1668  0.7830
 2650TIP3    H229366   4.835   4.367  10.968 -0.0457 -1.0652 -0.8936
 2651TIP3   OH229367   3.277   2.555  15.828 -0.4116  0.3075 -0.3100
 2651TIP3    H129368   3.253   2.615  15.899  0.7201  0.3358  0.0766
 2651TIP3    H229369   3.206   2.492  15.824 -1.7643  1.8037 -0.8842
 2652TIP3   OH229370   2.839   2.672  15.984 -0.3596 -0.3496  0.4444
 2652TIP3    H129371   2.837   2.598  16.046  0.7566 -1.4433 -0.7561
 2652TIP3    H229372   2.930   2.678  15.957 -0.5064  1.2661  0.2207
 2653TIP3   OH229373   3.035   0.199  17.068  0.1532 -0.2207  0.3062
 2653TIP3    H129374   3.085   0.256  17.008 -0.5667  0.4705  0.3405
 2653TIP3    H229375   3.101   0.149  17.115  0.8064  0.5216  0.1914
 2654TIP3   OH229376   0.207   4.950   1.517  0.2967  0.1864 -0.3225
 2654TIP3    H129377   0.261   4.880   1.554  1.3934  0.4280 -1.3967
 2654TIP3    H229378   0.244   4.965   1.430  1.6828  3.7383  0.7172
 2655TIP3   OH229379   0.618   3.683   3.970  0.5169  0.3786  0.1911
 2655TIP3    H129380   0.595   3.685   3.877  2.3484 -0.2912 -0.3009
 2655TIP3    H229381   0.550   3.737   4.011 -0.4667  0.5131 -1.4802
 2656TIP3   OH229382   2.337   5.307   2.790 -0.0158  0.5571  0.0199
 2656TIP3    H129383   2.337   5.225   2.838 -0.1485  0.7368  0.3335
 2656TIP3    H229384   2.264   5.357   2.828  1.8477  2.0363  1.9205
 2657TIP3   OH229385   4.600   3.206   5.252  0.5946 -0.0821 -0.2895
 2657TIP3    H129386   4.533   3.180   5.314 -0.5293  1.0271 -0.9972
 2657TIP3    H229387   4.578   3.296   5.229  0.5309 -0.6686 -2.8356
 2658TIP3   OH229388   4.737   5.930   3.436  0.3799 -0.3843  0.7875
 2658TIP3    H129389   4.659   5.977   3.408  2.0060  2.0473  0.0451
 2658TIP3    H229390   4.787   5.916   3.356  1.8607  0.4271  1.5194
 2659TIP3   OH229391   3.850   0.871   5.089 -0.1062 -0.2047  0.1283
 2659TIP3    H129392   3.786   0.821   5.039  0.3393 -0.5310 -0.1196
 2659TIP3    H229393   3.933   0.826   5.075  0.4409  1.0154 -0.6830
 2660TIP3   OH229394   2.887   4.380  16.697  0.1529  0.0376  0.3527
 2660TIP3    H129395   2.852   4.404  16.611 -1.0553  0.1036  0.8411
 2660TIP3    H229396   2.911   4.288  16.689 -0.8932 -0.2363  0.2203
 2661TIP3   OH229397   1.783   1.340   1.648 -0.0320 -0.3106  0.2870
 2661TIP3    H129398   1.691   1.360   1.664 -0.3803 -0.9106 -0.8403
 2661TIP3    H229399   1.816   1.416   1.599 -0.3384 -0.7315 -0.6060
 2662TIP3   OH229400   1.025   6.295  15.739  0.3703  0.6835 -0.2417
 2662TIP3    H129401   0.969   6.242  15.683 -0.2958  0.5522  0.5288
 2662TIP3    H229402   1.090   6.234  15.773 -0.8449  0.1680  1.2363
 2663TIP3   OH229403   5.708   4.840   5.990  0.1114 -0.4822 -0.7058
 2663TIP3    H129404   5.774   4.771   5.988 -1.4887 -2.1326 -3.5090
 2663TIP3    H229405   5.751   4.916   5.952  0.8560 -1.0995 -1.1330
 2664TIP3   OH229406   3.232   6.337  15.336  0.0615  0.5248 -0.2034
 2664TIP3    H129407   3.207   6.374  15.251  1.0556  1.3153 -0.1598
 2664TIP3    H229408   3.322   6.306  15.324  0.1357  0.4508  0.5047
 2665TIP3   OH229409   3.542   6.333  11.942 -0.0099  0.2733  0.0014
 2665TIP3    H129410   3.471   6.395  11.926  0.9181  1.0923 -1.0566
 2665TIP3    H229411   3.611   6.358  11.881  0.0026 -2.5024 -1.2995
 2666TIP3   OH229412   1.593   2.024   3.829 -0.3727 -0.2430 -0.4383
 2666TIP3    H129413   1.613   2.089   3.897  2.6389 -1.6004  0.1295
 2666TIP3    H229414   1.498   2.025   3.823 -0.6372  1.6036  2.1316
 2667TIP3   OH229415   4.441   1.796   5.121  0.7050  0.3867  0.3360
 2667TIP3    H129416   4.411   1.737   5.190 -0.2922  1.0470  0.4844
 2667TIP3    H229417   4.516   1.842   5.160  3.1038 -2.3940 -0.5706
 2668TIP3   OH229418   5.386   0.876   5.542  0.1478  0.2578 -0.3996
 2668TIP3    H129419   5.328   0.813   5.499 -1.1728  1.2173 -0.0900
 2668TIP3    H229420   5.462   0.824   5.568 -0.3559 -0.9499 -1.2302
 2669TIP3   OH229421   4.213   6.065   4.844 -0.1335  0.3191  0.2829
 2669TIP3    H129422   4.136   6.010   4.855  0.0510  0.4572  2.7086
 2669TIP3    H229423   4.196   6.115   4.764 -1.1754 -1.7794 -0.9038
 2670TIP3   OH229424   0.958   1.969  11.532 -0.4339 -0.9610  0.2405
 2670TIP3    H129425   0.924   2.058  11.522  1.0969 -0.3824 -0.1460
 2670TIP3    H229426   1.031   1.964  11.471 -0.9603 -2.7651 -0.3225
 2671TIP3   OH229427   4.907   1.743  11.926  0.3127  0.3587  0.4604
 2671TIP3    H129428   4.838   1.805  11.902 -0.8044 -0.6510  0.9847
 2671TIP3    H229429   4.867   1.657  11.914  0.4133 -0.2559  3.6429
 2672TIP3   OH229430   3.052   0.172  12.709 -0.4021  0.0687 -0.7150
 2672TIP3    H129431   3.019   0.198  12.622 -1.6754  0.4179 -0.1599
 2672TIP3    H229432   3.003   0.228  12.770  1.2869  0.6318  0.1774
 2673TIP3   OH229433   4.218   2.958   2.639 -0.1260  0.1648  0.4110
 2673TIP3    H129434   4.285   2.950   2.572  1.0290  0.6324  1.4750
 2673TIP3    H229435   4.186   3.048   2.630 -0.9702 -0.1912 -0.3874
 2674TIP3   OH229436   4.290   3.580   2.600 -0.4137  0.3664  0.1052
 2674TIP3    H129437   4.352   3.578   2.673  0.2346  0.5792 -0.4270
 2674TIP3    H229438   4.328   3.642   2.538  0.2252 -1.4503 -1.4278
 2675TIP3   OH229439   4.474   6.550   2.899  0.5133  0.6218 -0.0531
 2675TIP3    H129440   4.476   6.587   2.987 -0.9171  1.0403 -0.1819
 2675TIP3    H229441   4.513   6.463   2.909  1.0216  0.9422  0.8485
 2676TIP3   OH229442   1.483   2.148  15.648  0.0389 -0.1553  0.1718
 2676TIP3    H129443   1.549   2.102  15.597  0.4160 -1.4770  1.7581
 2676TIP3    H229444   1.514   2.143  15.738 -1.9942 -0.4530  0.9154
 2677TIP3   OH229445   2.885   4.436   4.439  0.0213  0.4038 -0.3209
 2677TIP3    H129446   2.935   4.516   4.455  0.1476 -0.0007  1.5345
 2677TIP3    H229447   2.798   4.467   4.413  0.7458  1.1049 -2.1184
 2678TIP3   OH229448   3.486   4.205   0.149 -0.1961  0.0040 -0.2815
 2678TIP3    H129449   3.470   4.111   0.158 -1.2772  0.3302  1.8863
 2678TIP3    H229450   3.464   4.241   0.235  0.6361  2.1961 -0.9257
 2679TIP3   OH229451   1.923   5.456  15.491 -0.1800 -0.0144 -0.1553
 2679TIP3    H129452   2.008   5.419  15.467 -1.1874 -1.8060 -1.1234
 2679TIP3    H229453   1.925   5.460  15.587  0.8231 -0.4401 -0.1461
 2680TIP3   OH229454   5.187   3.383  12.052 -0.2730  0.5788 -0.0854
 2680TIP3    H129455   5.181   3.310  11.991  1.1415  0.7758 -0.4729
 2680TIP3    H229456   5.183   3.461  11.997 -0.4308  0.7827  0.2097
 2681TIP3   OH229457   1.808   1.878   3.822 -0.3052  0.0762 -0.3390
 2681TIP3    H129458   1.724   1.917   3.843 -0.2207  0.3106 -0.4327
 2681TIP3    H229459   1.807   1.793   3.866 -1.5563 -0.9923 -2.2628
 2682TIP3   OH229460   1.105   1.707  13.910  0.1355  0.3834 -0.6471
 2682TIP3    H129461   1.079   1.798  13.924  1.4301  0.4530  1.8970
 2682TIP3    H229462   1.028   1.655  13.937 -0.4058  0.6776 -1.5779
 2683TIP3   OH229463   3.422   3.212   0.630 -0.1536  0.4133 -0.4007
 2683TIP3    H129464   3.331   3.234   0.608 -0.4524  0.5857  0.8830
 2683TIP3    H229465   3.420   3.194   0.724  1.1600  0.5095 -0.3296
 2684TIP3   OH229466   1.039   3.071  14.920  0.1758 -0.0058  0.4975
 2684TIP3    H129467   0.975   3.000  14.914  1.9010 -1.5351 -1.5963
 2684TIP3    H229468   1.123   3.029  14.901  1.5049  2.3297  0.8184
 2685TIP3   OH229469   5.767   2.886  16.049 -0.4072  0.2660  0.1532
 2685TIP3    H129470   5.858   2.877  16.075 -0.5008 -0.4909  0.2296
 2685TIP3    H229471   5.764   2.968  16.001  0.4880 -0.1435 -0.6303
 2686TIP3   OH229472   0.813   3.915   3.149  0.4877 -0.1398 -0.0384
 2686TIP3    H129473   0.903   3.891   3.128 -0.4750 -2.8309 -1.4346
 2686TIP3    H229474   0.760   3.880   3.077 -1.9298 -0.8300  1.9267
 2687TIP3   OH229475   2.819   1.062   2.658  0.1493 -0.1965 -0.3168
 2687TIP3    H129476   2.863   1.075   2.742 -0.9524  0.4817  0.1800
 2687TIP3    H229477   2.743   1.119   2.662 -2.7850 -3.7521  0.2967
 2688TIP3   OH229478   4.960   3.018  13.595  0.3179 -0.0244  0.0962
 2688TIP3    H129479   5.025   2.977  13.652  2.2241  0.7215 -1.4268
 2688TIP3    H229480   4.954   3.108  13.626 -2.5067 -0.8082  2.2727
 2689TIP3   OH229481   2.088   3.562   0.679  0.0895 -0.1000 -0.6385
 2689TIP3    H129482   2.053   3.550   0.767 -1.8049 -1.7359 -1.5395
 2689TIP3    H229483   2.178   3.529   0.684  0.8033  1.9405  1.1611
 2690TIP3   OH229484   5.898   5.635   1.331  0.3991  0.8664  0.3664
 2690TIP3    H129485   5.882   5.554   1.380 -0.0593  0.7684  0.0591
 2690TIP3    H229486   5.954   5.687   1.389  0.8846  0.2343  0.4655
 2691TIP3   OH229487   1.197   6.194   6.728 -0.3072 -0.1057 -0.0080
 2691TIP3    H129488   1.135   6.214   6.657  1.1045  0.4292 -1.1364
 2691TIP3    H229489   1.191   6.269   6.787 -1.0602 -0.2732  0.1379
 2692TIP3   OH229490   3.786   3.269  13.207  0.1777  1.0177  0.6960
 2692TIP3    H129491   3.792   3.232  13.119 -0.6425 -0.8355  1.3861
 2692TIP3    H229492   3.876   3.269  13.239  0.1930 -0.5108  0.7080
 2693TIP3   OH229493   3.206   0.050   6.333 -0.1147  0.7645  0.0972
 2693TIP3    H129494   3.125   0.019   6.292  0.1052  1.1794 -0.6688
 2693TIP3    H229495   3.261  -0.028   6.341 -0.5463  0.5023  0.5180
 2694TIP3   OH229496   3.887   2.117  12.828  0.3763 -0.2873  0.3244
 2694TIP3    H129497   3.857   2.027  12.819  0.9912 -0.4719  0.0922
 2694TIP3    H229498   3.924   2.140  12.743  1.3574 -0.2446  0.7461
 2695TIP3   OH229499   0.188   4.173  14.928  0.5508  0.5176  0.1039
 2695TIP3    H129500   0.236   4.251  14.955  0.5874  0.6761 -0.4105
 2695TIP3    H229501   0.156   4.135  15.010  2.1497  0.0166  0.5480
 2696TIP3   OH229502   4.239   2.358  12.766  0.5807 -0.4434  0.0000
 2696TIP3    H129503   4.305   2.413  12.807  1.0539  1.1941 -2.7629
 2696TIP3    H229504   4.155   2.396  12.795  0.8978  0.5474 -0.3414
 2697TIP3   OH229505   5.790   4.648  13.387 -0.4263 -0.3137  0.3113
 2697TIP3    H129506   5.762   4.739  13.379 -1.8002 -0.5699  1.7192
 2697TIP3    H229507   5.736   4.601  13.323 -0.1126 -0.2366 -0.0170
 2698TIP3   OH229508   1.104   0.643   2.203  0.1675  0.2099 -0.3307
 2698TIP3    H129509   1.096   0.573   2.268  0.9308  0.5822  0.1816
 2698TIP3    H229510   1.189   0.683   2.222 -0.3276  1.3799 -0.5219
 2699TIP3   OH229511   0.670   2.110  16.888 -0.1394 -0.2632 -0.2882
 2699TIP3    H129512   0.743   2.060  16.925 -1.0883 -1.2636  0.2893
 2699TIP3    H229513   0.616   2.044  16.845 -0.5668  0.5115 -0.9669
 2700TIP3   OH229514   0.829   5.222  15.514  0.2979  0.1003 -0.1021
 2700TIP3    H129515   0.739   5.250  15.530 -0.9761 -3.5954  0.0909
 2700TIP3    H229516   0.832   5.132  15.546  4.0061 -0.0451 -0.4411
 2701TIP3   OH229517   1.736   5.199  11.396 -0.3123  0.2060  0.5298
 2701TIP3    H129518   1.688   5.121  11.423 -0.2121 -0.9046 -2.2208
 2701TIP3    H229519   1.817   5.195  11.447 -0.4773 -1.2702  0.7207
 2702TIP3   OH229520   1.999   4.375  15.537 -0.0955 -0.0069 -0.3358
 2702TIP3    H129521   2.059   4.435  15.491 -0.2306 -0.0966 -0.6335
 2702TIP3    H229522   1.981   4.306  15.473  2.5297 -2.1246  0.9757
 2703TIP3   OH229523   5.445   4.004  17.112  0.0827 -0.1187  0.2901
 2703TIP3    H129524   5.386   4.024  17.039 -0.8082  0.1379  1.0588
 2703TIP3    H229525   5.445   3.908  17.117  1.2041 -0.2113 -0.8654
 2704TIP3   OH229526   6.621   0.817   3.440 -0.0667 -0.3437  0.1796
 2704TIP3    H129527   6.670   0.862   3.372 -0.9670  1.3058  0.5544
 2704TIP3    H229528   6.547   0.875   3.459  0.1753 -0.6931  2.5962
 2705TIP3   OH229529   6.186   5.225  10.917  0.2964  0.0709  0.2421
 2705TIP3    H129530   6.119   5.241  10.850 -0.9246  0.1788  1.4507
 2705TIP3    H229531   6.218   5.312  10.940 -1.1814  0.2822  1.6529
 2706TIP3   OH229532   6.088   0.522   1.976 -0.0663 -0.1089  0.3808
 2706TIP3    H129533   6.118   0.452   1.917 -2.2980 -0.9200  0.1117
 2706TIP3    H229534   6.132   0.601   1.945 -0.8281 -0.5965 -2.1573
 2707TIP3   OH229535   3.466   0.085   2.916 -0.2310 -0.0610  0.3311
 2707TIP3    H129536   3.494   0.175   2.896 -0.5321 -0.1777 -0.6864
 2707TIP3    H229537   3.373   0.093   2.934 -0.2690 -0.1726  0.1847
 2708TIP3   OH229538   2.688   6.346  15.284 -0.0434  0.0480 -0.4233
 2708TIP3    H129539   2.633   6.318  15.210 -1.1086  2.2209 -0.5313
 2708TIP3    H229540   2.626   6.367  15.353  0.6390  2.0136 -0.3526
 2709TIP3   OH229541   0.457   6.225  12.981 -0.0452 -0.6230 -0.1033
 2709TIP3    H129542   0.426   6.308  13.017  1.0546  0.3558 -1.3300
 2709TIP3    H229543   0.415   6.159  13.035 -2.3100  0.6681 -0.1449
 2710TIP3   OH229544   1.376   2.047  13.181  0.5449  0.3948  0.7446
 2710TIP3    H129545   1.454   2.094  13.151 -0.5633  1.1988 -1.0868
 2710TIP3    H229546   1.409   1.963  13.211  2.0941  0.5592 -0.3679
 2711TIP3   OH229547   1.138   4.325   6.656  0.4302  0.0811 -0.1572
 2711TIP3    H129548   1.052   4.363   6.639  0.6463  0.3919 -0.6023
 2711TIP3    H229549   1.141   4.314   6.751 -1.0500 -2.2734 -0.3196
 2712TIP3   OH229550   3.339   3.021  13.908 -0.4141 -0.1822  1.1028
 2712TIP3    H129551   3.285   3.061  13.839  0.4676  2.1651  1.6878
 2712TIP3    H229552   3.293   3.042  13.989 -0.5046 -1.3750  1.3703
 2713TIP3   OH229553   0.667   4.362  13.827  0.0118 -0.1002  0.0534
 2713TIP3    H129554   0.627   4.279  13.852  1.8353 -1.1705 -0.4025
 2713TIP3    H229555   0.721   4.387  13.903  2.4197 -1.3237 -1.1420
 2714TIP3   OH229556   3.810   5.437  16.926  0.2556  0.1858  0.4509
 2714TIP3    H129557   3.866   5.447  16.849 -1.0390  1.8201 -0.3524
 2714TIP3    H229558   3.730   5.397  16.893 -0.9677  2.3772  0.5293
 2715TIP3   OH229559   2.886   5.531   6.456 -0.0706  0.1610 -0.4338
 2715TIP3    H129560   2.812   5.580   6.421 -0.0935  0.3408 -0.1305
 2715TIP3    H229561   2.848   5.472   6.520  0.0697  0.3956 -0.1307
 2716TIP3   OH229562   6.458   0.572   3.003 -0.1009  0.2603 -0.2208
 2716TIP3    H129563   6.389   0.583   2.937  0.7932 -0.1341 -1.2472
 2716TIP3    H229564   6.476   0.478   3.003  0.1531  0.3066  0.3400
 2717TIP3   OH229565   1.890   6.616  17.055  0.0045  0.0475 -0.1330
 2717TIP3    H129566   1.818   6.640  17.112 -0.2950 -2.1035  0.4839
 2717TIP3    H229567   1.969   6.635  17.106 -0.2153 -0.3819  0.3661
 2718TIP3   OH229568   3.032   1.112   0.744  0.0751 -0.5362 -0.3805
 2718TIP3    H129569   2.993   1.190   0.784 -0.5337 -0.6189 -0.8070
 2718TIP3    H229570   3.006   1.040   0.801 -0.2318 -0.5663 -0.5600
 2719TIP3   OH229571   1.920   4.728   5.016  0.0256  0.4639 -0.1418
 2719TIP3    H129572   1.978   4.793   5.055 -1.4980  1.1385  1.1256
 2719TIP3    H229573   1.907   4.663   5.086  1.7230 -1.4337 -1.4517
 2720TIP3   OH229574   6.383   1.337   0.839  0.3392 -0.3370  0.3160
 2720TIP3    H129575   6.382   1.283   0.918  1.6538 -1.8598 -0.6441
 2720TIP3    H229576   6.400   1.426   0.871  2.1574 -1.1142  1.7170
 2721TIP3   OH229577   2.864   5.108  13.294  0.0779 -0.3829 -0.1783
 2721TIP3    H129578   2.945   5.158  13.306  0.1998 -0.5232 -0.3891
 2721TIP3    H229579   2.889   5.018  13.317 -0.2954 -0.2478  0.7807
 2722TIP3   OH229580   6.020   4.711  16.671  0.7988 -0.0904  0.1340
 2722TIP3    H129581   5.953   4.722  16.738  0.5730 -0.7568  0.0257
 2722TIP3    H229582   5.992   4.769  16.600  0.7298  0.1790  0.3773
 2723TIP3   OH229583   2.434   2.630   1.854  0.0894 -0.6295  0.4631
 2723TIP3    H129584   2.431   2.542   1.817  1.5009 -0.9896  1.1429
 2723TIP3    H229585   2.494   2.623   1.928  0.7711  1.0573  0.1164
 2724TIP3   OH229586   4.341   1.142   5.933 -0.9001  0.3548  0.7307
 2724TIP3    H129587   4.259   1.124   5.887 -0.2371 -0.2444 -0.2618
 2724TIP3    H229588   4.331   1.100   6.018 -1.2135 -0.6657  0.2036
 2725TIP3   OH229589   5.254   3.204   5.007  0.1367 -0.4999  0.0080
 2725TIP3    H129590   5.209   3.280   5.042  1.4043  0.7194 -0.8976
 2725TIP3    H229591   5.268   3.147   5.083  3.7048  2.4991  1.9412
 2726TIP3   OH229592   6.376   3.358   5.621 -0.3811 -0.7138 -0.0205
 2726TIP3    H129593   6.357   3.330   5.532 -1.6103  0.1488 -0.0451
 2726TIP3    H229594   6.302   3.327   5.673 -2.4336  3.2299 -0.2306
 2727TIP3   OH229595   0.380   4.446  13.384  0.4486  0.0185  0.2197
 2727TIP3    H129596   0.427   4.438  13.467  1.5097 -1.6605 -0.4979
 2727TIP3    H229597   0.439   4.495  13.327  1.0425 -1.4108 -0.4389
 2728TIP3   OH229598   1.141   5.595  12.839  0.0786  0.1514  0.0755
 2728TIP3    H129599   1.198   5.653  12.890 -0.0503  0.8871 -0.6014
 2728TIP3    H229600   1.063   5.647  12.821 -0.4595 -0.5615  0.2736
 2729TIP3   OH229601   1.263   2.833  17.028 -0.0772 -0.1106  0.3574
 2729TIP3    H129602   1.345   2.860  16.986 -0.4793 -0.2109 -0.5156
 2729TIP3    H229603   1.201   2.827  16.956 -0.5666 -1.1672  0.8490
 2730TIP3   OH229604   0.557   6.113  14.351 -0.0224  0.5149  0.3455
 2730TIP3    H129605   0.529   6.190  14.301 -1.4815  0.7396  1.4249
 2730TIP3    H229606   0.644   6.136  14.383  0.0480  1.2238 -0.3133
 2731TIP3   OH229607   6.137   2.616  16.414  0.0683 -0.0341  0.1403
 2731TIP3    H129608   6.189   2.541  16.442 -1.3389 -0.2983  2.3122
 2731TIP3    H229609   6.201   2.685  16.397  1.5223 -1.9054 -3.0484
 2732TIP3   OH229610   4.387   6.672  14.413  0.2330  0.3273 -0.7505
 2732TIP3    H129611   4.431   6.589  14.431  0.8756  0.8409  0.1095
 2732TIP3    H229612   4.405   6.726  14.489 -0.8171  1.0054 -0.9626
 2733TIP3   OH229613   3.214   0.850  16.677  0.0362 -0.6386  0.2373
 2733TIP3    H129614   3.149   0.918  16.659 -0.6655 -1.4450 -0.3651
 2733TIP3    H229615   3.291   0.876  16.627 -0.4810 -0.6580 -0.5827
 2734TIP3   OH229616   0.691   5.574  15.542 -0.0642 -0.0808 -0.1598
 2734TIP3    H129617   0.747   5.614  15.610  0.5647 -1.0791 -0.0649
 2734TIP3    H229618   0.612   5.549  15.589 -0.0878  0.2306 -0.0283
 2735TIP3   OH229619   3.841   2.966  16.117  0.1686 -0.1885 -0.2451
 2735TIP3    H129620   3.900   2.913  16.172  2.0897  2.3619  0.3494
 2735TIP3    H229621   3.762   2.976  16.170  0.7620 -0.3645  0.7089
 2736TIP3   OH229622   0.538   1.834  11.909 -0.0697 -0.4050  0.3147
 2736TIP3    H129623   0.475   1.809  11.976 -2.5543  0.7775 -1.4502
 2736TIP3    H229624   0.543   1.929  11.915  2.2348 -0.4836  0.8969
 2737TIP3   OH229625   6.174   0.598  14.756 -0.1316  0.6378  0.2918
 2737TIP3    H129626   6.110   0.649  14.706  1.2873  0.8409 -1.3928
 2737TIP3    H229627   6.230   0.664  14.798 -0.5593  0.4518  1.1914
 2738TIP3   OH229628   1.234   1.386  16.580  0.1784 -0.1971 -0.3713
 2738TIP3    H129629   1.156   1.352  16.624 -0.7228  0.6131 -1.2734
 2738TIP3    H229630   1.220   1.481  16.576  0.5681 -0.1645 -1.6843
 2739TIP3   OH229631   6.225   4.547   0.085 -0.1247 -0.2459  0.0468
 2739TIP3    H129632   6.162   4.619   0.095 -0.3662 -0.4989  0.3631
 2739TIP3    H229633   6.309   4.591   0.069 -0.1801  0.1214  0.7226
 2740TIP3   OH229634   3.515   2.081  15.874  0.2416 -0.2708 -0.6780
 2740TIP3    H129635   3.592   2.132  15.898  1.2207 -2.5000  1.2044
 2740TIP3    H229636   3.442   2.143  15.886  1.4777  1.1029  0.1438
 2741TIP3   OH229637   5.224   4.434   4.719 -0.2897  0.7207 -0.0758
 2741TIP3    H129638   5.247   4.526   4.707 -0.3395  0.7346 -0.0655
 2741TIP3    H229639   5.246   4.392   4.635 -3.9194  1.4612 -1.6198
 2742TIP3   OH229640   1.488   0.489  12.937  0.1415 -0.0617  0.4610
 2742TIP3    H129641   1.422   0.423  12.958  0.5120 -0.2857  0.9217
 2742TIP3    H229642   1.572   0.443  12.943  0.4414  0.5809  1.3471
 2743TIP3   OH229643   5.114   6.580   0.229 -1.2002 -0.1309  0.4682
 2743TIP3    H129644   5.136   6.671   0.210  1.3707 -0.1930  2.5975
 2743TIP3    H229645   5.042   6.560   0.169 -2.2800  3.4433  0.3292
 2744TIP3   OH229646   0.154   4.074  13.326  0.0909 -0.1816 -0.0414
 2744TIP3    H129647   0.187   4.091  13.415  2.3247 -0.6520 -0.7212
 2744TIP3    H229648   0.090   4.004  13.337  1.0580 -0.9306  1.1126
 2745TIP3   OH229649   6.394   5.281  13.549 -0.6349 -0.1414  0.3748
 2745TIP3    H129650   6.307   5.311  13.573 -1.3784 -1.2888 -0.7396
 2745TIP3    H229651   6.399   5.191  13.581 -0.2668 -0.4350 -0.4772
 2746TIP3   OH229652   6.445   2.564  14.602 -0.7657 -0.6162 -0.3015
 2746TIP3    H129653   6.437   2.469  14.606  0.4136 -0.7294 -0.4566
 2746TIP3    H229654   6.442   2.584  14.508  0.1204 -0.6158 -0.3369
 2747TIP3   OH229655   4.727   1.040  12.245 -0.6333  0.3169  0.5345
 2747TIP3    H129656   4.817   1.031  12.216 -0.8006  0.0147  0.1024
 2747TIP3    H229657   4.675   0.999  12.177 -1.1216  0.7542  0.6329
 2748TIP3   OH229658   4.240   2.893  13.617 -0.4048  0.8306 -1.0308
 2748TIP3    H129659   4.167   2.831  13.619  1.8097 -1.9379 -0.7769
 2748TIP3    H229660   4.217   2.960  13.682 -2.4579 -0.2105 -0.6075
 2749TIP3   OH229661   2.630   6.326   1.676  0.0400  0.5037  0.2822
 2749TIP3    H129662   2.693   6.362   1.613 -0.2453  0.3996 -0.0634
 2749TIP3    H229663   2.643   6.379   1.755 -0.9332  1.9291 -0.4571
 2750TIP3   OH229664   4.720   5.099  15.327 -0.0460  0.0549 -0.3936
 2750TIP3    H129665   4.761   5.130  15.246 -0.3130  0.5151 -0.3518
 2750TIP3    H229666   4.645   5.156  15.339  0.0459  0.0435  0.2290
 2751TIP3   OH229667   3.621   0.541  15.077 -1.0254 -0.1093 -0.8257
 2751TIP3    H129668   3.658   0.629  15.080 -1.4023  0.0423  1.3018
 2751TIP3    H229669   3.626   0.510  15.168  1.2678 -3.2459 -1.8296
 2752TIP3   OH229670   5.698   3.624  10.254 -0.6630 -0.4012 -0.0154
 2752TIP3    H129671   5.643   3.545  10.258  0.5343 -1.2118  1.6922
 2752TIP3    H229672   5.702   3.655  10.344 -0.0500  0.8695 -0.4591
 2753TIP3   OH229673   3.744   0.006  10.980 -0.0545 -0.3253 -0.1760
 2753TIP3    H129674   3.679   0.066  11.018  1.7001  0.8109  1.1940
 2753TIP3    H229675   3.782   0.056  10.907  1.0215  0.0452  0.6181
 2754TIP3   OH229676   3.218   2.657  14.451  0.0499 -0.3342  0.6421
 2754TIP3    H129677   3.156   2.651  14.378  0.9559 -1.5133 -0.0604
 2754TIP3    H229678   3.284   2.719  14.422  0.0828 -0.3328  0.7205
 2755TIP3   OH229679   6.386   6.153  13.193 -0.2877 -0.4538 -0.0962
 2755TIP3    H129680   6.404   6.059  13.195  0.0227 -0.4634 -1.7192
 2755TIP3    H229681   6.428   6.184  13.113  1.1136  1.4133  1.2783
 2756TIP3   OH229682   0.769   3.837  11.720  0.8456  0.2511 -0.5102
 2756TIP3    H129683   0.760   3.820  11.813 -1.4627 -0.5317 -0.8016
 2756TIP3    H229684   0.859   3.868  11.709  0.7456  1.7619  2.1603
 2757TIP3   OH229685   2.286   1.847  14.927  0.0232  1.1210  0.6638
 2757TIP3    H129686   2.375   1.811  14.926  0.0656  1.2238  0.6589
 2757TIP3    H229687   2.234   1.782  14.975  0.1115  1.0838  0.7101
 2758TIP3   OH229688   1.873   6.168   4.113  0.1587 -0.2732  0.2549
 2758TIP3    H129689   1.910   6.197   4.029 -1.5613 -1.7252 -1.0803
 2758TIP3    H229690   1.872   6.073   4.107 -1.3990 -0.3520  1.2710
 2759TIP3   OH229691   5.450   1.655   2.180 -0.3119 -0.2604 -0.0902
 2759TIP3    H129692   5.523   1.716   2.184 -0.0827 -0.5466  0.0585
 2759TIP3    H229693   5.427   1.639   2.272 -0.4381 -0.3223 -0.1319
 2760TIP3   OH229694   3.817   6.229  16.739  0.4845  0.1130  0.5930
 2760TIP3    H129695   3.847   6.318  16.719  2.1898 -0.2391  1.3990
 2760TIP3    H229696   3.829   6.181  16.658  0.4056  0.4145  0.4028
 2761TIP3   OH229697   3.121   1.819  10.890 -0.1457 -0.0118  0.1496
 2761TIP3    H129698   3.072   1.897  10.863 -0.9470 -0.2321  0.9101
 2761TIP3    H229699   3.113   1.760  10.815  2.1881  1.3444 -1.2777
 2762TIP3   OH229700   0.989   5.636   5.160  0.1175  0.2185 -0.5255
 2762TIP3    H129701   1.015   5.618   5.250 -0.6652  0.1453 -0.3002
 2762TIP3    H229702   0.893   5.642   5.164  0.0831  0.3208 -1.3319
 2763TIP3   OH229703   5.656   3.536   5.173 -0.6281  0.3161 -0.6489
 2763TIP3    H129704   5.746   3.509   5.189 -0.7663  1.0292  1.6180
 2763TIP3    H229705   5.607   3.454   5.172 -0.3018  0.0694  0.8579
 2764TIP3   OH229706   4.988   3.889   6.120  0.1797  0.4252  0.0052
 2764TIP3    H129707   4.910   3.926   6.161 -0.7426 -0.4724 -0.8655
 2764TIP3    H229708   5.020   3.824   6.182 -0.8333 -0.4689 -0.3740
 2765TIP3   OH229709   5.142   0.636  16.249 -0.5218 -0.2307 -0.1163
 2765TIP3    H129710   5.177   0.608  16.164 -0.5577  0.8312 -0.4864
 2765TIP3    H229711   5.219   0.649  16.303 -0.4861 -0.6286 -0.0647
 2766TIP3   OH229712   2.018   5.769   5.876  0.1327  0.3194  0.1852
 2766TIP3    H129713   2.016   5.673   5.880 -3.0007  0.2516 -0.2025
 2766TIP3    H229714   2.108   5.791   5.851  0.3332 -2.6285 -2.1770
 2767TIP3   OH229715   5.933   1.022   0.086  0.0319  0.5019 -0.6218
 2767TIP3    H129716   5.950   1.102   0.136  0.8406  0.7404 -1.2538
 2767TIP3    H229717   5.983   1.033   0.006 -0.0320 -0.5453 -0.8211
 2768TIP3   OH229718   3.332   4.564  11.843 -0.5574 -0.3049  0.4134
 2768TIP3    H129719   3.288   4.576  11.928 -1.1530  0.0614  0.0568
 2768TIP3    H229720   3.261   4.563  11.779 -0.1276 -0.8233 -0.0651
 2769TIP3   OH229721   2.943   4.358  15.541 -0.3104 -0.6887  0.2824
 2769TIP3    H129722   2.895   4.374  15.459 -1.9511 -0.2372  1.2742
 2769TIP3    H229723   2.993   4.439  15.555 -0.9802 -0.2658  0.3161
 2770TIP3   OH229724   2.480   5.815  12.965 -0.7381  0.1931  0.2955
 2770TIP3    H129725   2.488   5.720  12.965 -0.8432  0.1786  1.0104
 2770TIP3    H229726   2.398   5.832  13.011 -0.2033  0.6599  1.1005
 2771TIP3   OH229727   0.928   6.781   5.987 -0.0816  0.1839  0.3005
 2771TIP3    H129728   0.854   6.726   5.965  0.5490  0.0627 -1.6635
 2771TIP3    H229729   1.001   6.744   5.938  1.0786  0.8620  1.4569
 2772TIP3   OH229730   5.881   2.738  14.055  0.6265  0.0373  0.1372
 2772TIP3    H129731   5.926   2.810  14.098  1.3537  0.5598 -1.4098
 2772TIP3    H229732   5.878   2.764  13.962 -1.5835 -0.6379 -0.0510
 2773TIP3   OH229733   2.729   1.518   3.161  0.4111  0.5074 -0.8519
 2773TIP3    H129734   2.683   1.467   3.094  0.2558 -1.2292  0.5411
 2773TIP3    H229735   2.821   1.519   3.131  0.3682 -0.3538 -1.0295
 2774TIP3   OH229736   4.711   1.247  13.301 -0.3278  0.7021  0.2013
 2774TIP3    H129737   4.645   1.252  13.233  1.3516 -0.2458 -1.5794
 2774TIP3    H229738   4.782   1.304  13.270  1.4750 -1.5723 -0.0951
 2775TIP3   OH229739   4.913   6.027   2.210 -0.1259  0.1813 -0.6189
 2775TIP3    H129740   4.857   6.047   2.135 -0.1194 -4.4192 -2.1515
 2775TIP3    H229741   4.996   6.071   2.191 -1.3222  2.3163 -1.2275
 2776TIP3   OH229742   1.136   5.118   6.020  0.2591 -0.6924  0.0081
 2776TIP3    H129743   1.127   5.171   6.099  0.1422 -0.4246 -0.1831
 2776TIP3    H229744   1.088   5.037   6.040 -0.2303 -0.4057  0.0147
 2777TIP3   OH229745   3.543   5.453   0.541  0.0548  0.2650  0.3635
 2777TIP3    H129746   3.575   5.479   0.628 -0.4917 -0.1721  0.7068
 2777TIP3    H229747   3.621   5.452   0.486  0.8406 -1.8237  1.4214
 2778TIP3   OH229748   2.284   6.019  14.946  0.0133  0.3445 -0.2676
 2778TIP3    H129749   2.249   6.004  14.859  1.5183 -0.5503 -0.7383
 2778TIP3    H229750   2.269   6.113  14.962 -0.3072  0.5063 -1.4513
 2779TIP3   OH229751   2.891   2.066  15.593  0.5251 -0.4785 -0.3618
 2779TIP3    H129752   2.830   2.108  15.533 -0.2280  0.2012  0.8472
 2779TIP3    H229753   2.933   1.997  15.541 -1.0254 -0.7404 -1.3063
 2780TIP3   OH229754   2.108   4.574  11.706  0.5779  0.0206  0.5985
 2780TIP3    H129755   2.117   4.544  11.796 -0.8288  1.0245  1.1157
 2780TIP3    H229756   2.167   4.650  11.700 -0.9141  1.3105  1.3862
 2781TIP3   OH229757   2.665   6.567  15.721  0.1745  0.1948  0.1508
 2781TIP3    H129758   2.756   6.539  15.716  0.2630  0.2498  1.2917
 2781TIP3    H229759   2.635   6.566  15.630  1.1594 -0.3112 -0.1842
 2782TIP3   OH229760   3.639   5.463  17.161  0.0019 -0.0239 -0.8429
 2782TIP3    H129761   3.659   5.557  17.158 -0.3758  0.0592 -0.7852
 2782TIP3    H229762   3.675   5.429  17.080  2.0237 -0.2151  0.0838
 2783TIP3   OH229763   6.607   3.907  17.013 -0.3940 -0.2137  0.0369
 2783TIP3    H129764   6.560   3.974  16.964 -0.5601  1.0184  1.7719
 2783TIP3    H229765   6.542   3.838  17.028 -1.0088  0.4494  0.4820
 2784TIP3   OH229766   3.785   4.345   0.448  0.6007  0.1963  0.8571
 2784TIP3    H129767   3.771   4.275   0.511  0.5841 -0.7003 -0.1136
 2784TIP3    H229768   3.839   4.306   0.380 -0.5014  0.7054 -0.3694
 2785TIP3   OH229769   0.504   3.881  10.989 -0.7057 -0.0179  0.5494
 2785TIP3    H129770   0.434   3.946  10.982 -1.7022 -1.1153 -0.1781
 2785TIP3    H229771   0.583   3.932  11.004 -0.9966  1.5888 -2.5572
 2786TIP3   OH229772   5.866   5.394  13.376 -0.2514 -0.3220  0.0771
 2786TIP3    H129773   5.872   5.434  13.463  0.4265  1.0536 -0.5680
 2786TIP3    H229774   5.902   5.460  13.317 -0.8587 -1.1614 -1.2792
 2787TIP3   OH229775   1.052   3.636  13.946  0.3148 -0.7087  0.6451
 2787TIP3    H129776   0.989   3.701  13.978  0.7787  0.2018 -0.2658
 2787TIP3    H229777   1.137   3.671  13.969  0.5649 -1.1332  0.3784
 2788TIP3   OH229778   0.933   4.201  11.426  1.0983  0.3119 -0.2919
 2788TIP3    H129779   0.980   4.245  11.355  2.9645 -1.2685 -0.1430
 2788TIP3    H229780   1.003   4.168  11.483 -0.2941  2.1358  2.7303
 2789TIP3   OH229781   1.246   6.533   0.958 -0.4323 -0.2556 -0.3909
 2789TIP3    H129782   1.189   6.457   0.948 -0.3880 -0.2632 -0.5837
 2789TIP3    H229783   1.324   6.499   1.000 -0.8403 -0.1225  0.5101
 2790TIP3   OH229784   0.609   1.099   0.883 -0.3943 -0.0034 -0.2817
 2790TIP3    H129785   0.630   1.192   0.895 -0.0046 -0.1103 -0.1221
 2790TIP3    H229786   0.654   1.055   0.954 -0.6582 -0.3094 -0.3029
 2791TIP3   OH229787   4.165   1.880  16.885  0.5013 -0.2587 -0.2860
 2791TIP3    H129788   4.092   1.860  16.943  0.1407 -0.0494 -0.6644
 2791TIP3    H229789   4.176   1.800  16.833 -0.6379  0.3180 -1.4746
 2792TIP3   OH229790   0.870   2.536   5.764  0.1768  0.1652  0.3472
 2792TIP3    H129791   0.896   2.539   5.856 -2.3153  2.4070  1.1194
 2792TIP3    H229792   0.861   2.628   5.738 -2.1462 -0.3716 -1.1441
 2793TIP3   OH229793   3.469   0.754  17.128  0.2707  0.0134 -0.4818
 2793TIP3    H129794   3.561   0.733  17.143 -0.1566 -2.0774 -0.5198
 2793TIP3    H229795   3.464   0.777  17.035  0.8457  0.6871 -0.3444
 2794TIP3   OH229796   2.656   0.114  11.675 -0.8623 -0.4473  0.4968
 2794TIP3    H129797   2.571   0.154  11.658 -1.2070 -1.1306  0.6021
 2794TIP3    H229798   2.712   0.147  11.605 -1.2629 -0.1661  0.3008
 2795TIP3   OH229799   2.971   4.932  14.219  0.1963  0.2910  0.2948
 2795TIP3    H129800   2.960   4.856  14.162 -0.6684 -0.3493  1.2693
 2795TIP3    H229801   2.938   5.005  14.168  0.8205 -0.0241 -0.5763
 2796TIP3   OH229802   5.979   2.521  15.592  1.5087 -0.2467 -0.0988
 2796TIP3    H129803   6.022   2.504  15.676  1.0812  0.9317  0.3789
 2796TIP3    H229804   5.886   2.510  15.610  1.4489 -0.5050 -0.5543
 2797TIP3   OH229805   4.840   5.416   3.621 -0.8178 -0.1341  0.2423
 2797TIP3    H129806   4.908   5.428   3.555 -1.2372  3.7720  0.2902
 2797TIP3    H229807   4.762   5.392   3.571 -0.3898 -0.3886 -0.3118
 2798TIP3   OH229808   5.681   5.333   1.643 -0.5961 -0.0882  0.3598
 2798TIP3    H129809   5.657   5.357   1.554  1.2117 -1.5267 -0.5737
 2798TIP3    H229810   5.651   5.242   1.653 -0.8752  0.0884  1.2674
 2799TIP3   OH229811   5.914   2.949  15.811  0.2068 -0.4629 -0.0363
 2799TIP3    H129812   5.828   2.951  15.769 -0.0168 -1.1818  0.3679
 2799TIP3    H229813   5.964   3.018  15.767 -1.0868  1.1121  0.8385
 2800TIP3   OH229814   2.061   1.802  11.886 -0.1418 -0.0145  0.3116
 2800TIP3    H129815   2.015   1.886  11.890 -0.1415 -0.0148  0.3204
 2800TIP3    H229816   1.997   1.739  11.919 -0.7995 -0.2905 -1.3974
 2801TIP3   OH229817   6.156   4.045  10.712  0.0404 -0.1787  0.0113
 2801TIP3    H129818   6.127   4.040  10.621 -0.4223 -1.5267  0.2144
 2801TIP3    H229819   6.076   4.054  10.763  0.2444 -0.1543  0.3327
 2802TIP3   OH229820   1.744   2.417   4.282 -0.2598 -0.2544  0.0777
 2802TIP3    H129821   1.727   2.385   4.193 -2.3494  1.2509 -0.1295
 2802TIP3    H229822   1.796   2.497   4.270 -1.3764  0.4963  0.1162
 2803TIP3   OH229823   4.113   3.323  10.761 -0.0259 -0.2482  0.6433
 2803TIP3    H129824   4.071   3.362  10.684  0.5390 -0.1099  0.3920
 2803TIP3    H229825   4.191   3.377  10.775 -0.8026  0.5351  2.1245
 2804TIP3   OH229826   2.057   5.138   1.588  0.3690 -0.4029 -0.1487
 2804TIP3    H129827   2.096   5.146   1.501  1.3750  1.2667  0.4136
 2804TIP3    H229828   1.978   5.192   1.585 -0.8342 -2.0997 -0.6439
 2805TIP3   OH229829   3.603   0.678   0.857 -0.4738 -0.3766  0.0797
 2805TIP3    H129830   3.665   0.744   0.889 -1.1788  0.8180 -0.8895
 2805TIP3    H229831   3.552   0.725   0.790  0.3526 -2.4474 -2.1551
 2806TIP3   OH229832   0.363   1.830   5.360 -0.2703 -0.3439  0.0696
 2806TIP3    H129833   0.429   1.768   5.390 -0.8972 -2.5076 -2.5263
 2806TIP3    H229834   0.411   1.910   5.339  0.8338 -0.4837  1.8810
 2807TIP3   OH229835   4.244   4.600  12.979  0.2142 -0.3634  0.8899
 2807TIP3    H129836   4.193   4.679  12.956  0.8094 -0.0083  0.7743
 2807TIP3    H229837   4.225   4.586  13.072 -1.8905 -1.5732  0.3562
 2808TIP3   OH229838   4.784   1.013   0.741 -0.7368  0.2686 -0.1015
 2808TIP3    H129839   4.768   1.088   0.684  0.4668  0.9442  0.4288
 2808TIP3    H229840   4.718   0.948   0.714 -0.2211  0.5567 -2.2375
 2809TIP3   OH229841   5.376   3.451  13.267 -0.0948 -0.1718  0.6157
 2809TIP3    H129842   5.370   3.457  13.363 -0.2071 -1.5819  0.7228
 2809TIP3    H229843   5.295   3.491  13.235 -0.2954 -0.1523  1.1369
 2810TIP3   OH229844   0.026   1.577  10.726  0.1360 -0.7182  0.1990
 2810TIP3    H129845   0.069   1.648  10.678  0.4472 -1.0065  0.0551
 2810TIP3    H229846   0.090   1.549  10.791  0.6855 -2.0433 -0.8759
 2811TIP3   OH229847   2.932   3.632  11.894 -0.5541  0.2374  0.4680
 2811TIP3    H129848   3.023   3.609  11.875 -0.7779  0.4888 -1.0441
 2811TIP3    H229849   2.886   3.548  11.897 -0.3824  0.1471  0.5822
 2812TIP3   OH229850   3.989   0.858   2.285 -0.2040  0.1071  0.0139
 2812TIP3    H129851   3.917   0.797   2.302 -1.2860  1.2377 -0.4781
 2812TIP3    H229852   4.015   0.840   2.195 -1.2136  1.0547 -0.4844
 2813TIP3   OH229853   6.424   2.045  12.364  0.2425 -0.2579  0.6977
 2813TIP3    H129854   6.338   2.043  12.406  0.2275 -0.4007  0.6602
 2813TIP3    H229855   6.443   1.954  12.343  0.5075 -0.2524  0.9131
 2814TIP3   OH229856   0.819   3.514   2.553  0.0304  0.2794  0.1473
 2814TIP3    H129857   0.836   3.526   2.460 -0.0404 -3.2316 -0.4904
 2814TIP3    H229858   0.726   3.492   2.557 -0.0961  0.9292  1.1474
 2815TIP3   OH229859   3.215   5.040  11.818 -0.0503  0.6050 -0.3536
 2815TIP3    H129860   3.157   4.965  11.832  1.4912 -1.0506 -2.2758
 2815TIP3    H229861   3.294   5.003  11.779  0.9398  3.2098 -1.0552
 2816TIP3   OH229862   0.969   3.768  12.329  0.2286 -0.5265  0.7126
 2816TIP3    H129863   1.042   3.733  12.381  0.4122 -1.6641 -0.2751
 2816TIP3    H229864   1.004   3.773  12.240 -0.6739 -0.3822  0.3616
 2817TIP3   OH229865   3.530   2.570   1.227  0.5795  0.0005  0.2792
 2817TIP3    H129866   3.618   2.600   1.247  0.2336  0.4061  1.2364
 2817TIP3    H229867   3.543   2.494   1.170  1.5263  0.3960 -0.0459
 2818TIP3   OH229868   5.728   2.855   0.115 -0.3768  0.5162 -0.4995
 2818TIP3    H129869   5.687   2.822   0.036 -0.7219 -1.7270  0.5556
 2818TIP3    H229870   5.820   2.866   0.091 -1.0674  3.9266 -2.3533
 2819TIP3   OH229871   0.412   0.841   2.012 -0.4469  0.3210  0.0769
 2819TIP3    H129872   0.430   0.922   2.059  1.6669 -0.2983  0.4202
 2819TIP3    H229873   0.457   0.852   1.928 -0.6008 -0.3012 -0.0923
 2820TIP3   OH229874   5.905   0.581   5.155 -0.4930 -0.5327 -0.5224
 2820TIP3    H129875   5.827   0.593   5.209 -0.5134 -1.8720 -0.2176
 2820TIP3    H229876   5.910   0.487   5.142  1.1901 -0.4843 -0.3775
 2821TIP3   OH229877   4.986   2.811  15.267  0.0487  0.5507 -0.2787
 2821TIP3    H129878   5.036   2.749  15.214 -1.6276 -0.6687 -0.5228
 2821TIP3    H229879   4.963   2.881  15.206  3.1691  2.2753  0.3287
 2822TIP3   OH229880   1.979   2.461  13.291  0.1442 -0.0813 -0.5901
 2822TIP3    H129881   2.045   2.523  13.322 -0.6534  1.1826 -1.3547
 2822TIP3    H229882   1.981   2.390  13.355  1.1191  0.7022  0.2741
 2823TIP3   OH229883   0.486   0.961   4.639  0.2647  0.2592  0.3794
 2823TIP3    H129884   0.428   0.884   4.637  1.2917 -0.5387  0.2074
 2823TIP3    H229885   0.571   0.926   4.665  0.7096  1.3812  0.4813
 2824TIP3   OH229886   0.876   5.169  17.008  0.1024  0.0791  0.3784
 2824TIP3    H129887   0.838   5.081  17.014 -3.3586  1.5081  1.6698
 2824TIP3    H229888   0.926   5.179  17.089  1.2204 -0.9231 -0.1517
 2825TIP3   OH229889   4.108   4.615   1.607  0.1893  0.1748 -0.0833
 2825TIP3    H129890   4.077   4.694   1.651  0.1548  0.0928  0.0399
 2825TIP3    H229891   4.075   4.543   1.662 -0.0006  0.0674 -0.3361
 2826TIP3   OH229892   6.684   3.447   5.751 -0.7410 -0.3586  0.0042
 2826TIP3    H129893   6.654   3.453   5.842 -1.3146  1.0616 -0.2493
 2826TIP3    H229894   6.644   3.367   5.718 -0.3320 -1.0248  1.0544
 2827TIP3   OH229895   0.431   0.408  13.695 -0.6814 -0.2289  0.2777
 2827TIP3    H129896   0.380   0.479  13.736 -0.6332  1.2494 -2.0586
 2827TIP3    H229897   0.366   0.356  13.647 -0.5284 -1.0133  0.8904
 2828TIP3   OH229898   2.173   5.240   0.493 -0.2562 -0.1823  0.3545
 2828TIP3    H129899   2.235   5.170   0.512 -1.4913 -0.9327  1.9389
 2828TIP3    H229900   2.087   5.200   0.509 -1.2191  0.6710 -2.1916
 2829TIP3   OH229901   3.341   3.141   2.297 -1.0588 -0.2712 -0.0517
 2829TIP3    H129902   3.305   3.110   2.380  1.9323 -1.9640  0.7748
 2829TIP3    H229903   3.424   3.182   2.321  0.1154 -1.2470 -2.2043
 2830TIP3   OH229904   0.116   2.578   5.063  0.2669 -0.2582  0.5429
 2830TIP3    H129905   0.025   2.579   5.035 -0.5026  0.5804  2.8612
 2830TIP3    H229906   0.154   2.658   5.027  0.1345 -0.6479 -0.4909
 2831TIP3   OH229907   5.074   4.731  12.722 -0.4682  0.4341 -0.2244
 2831TIP3    H129908   5.050   4.691  12.806 -0.8764  2.0112  0.4419
 2831TIP3    H229909   5.148   4.788  12.743 -0.9982  1.3492 -0.7806
 2832TIP3   OH229910   6.401   3.097   6.291 -0.3455  0.2491 -0.2227
 2832TIP3    H129911   6.368   3.105   6.380 -1.0579 -1.6387 -0.2693
 2832TIP3    H229912   6.332   3.135   6.236  0.4231  2.0925  0.0459
 2833TIP3   OH229913   5.477   3.023  13.145  0.0344 -0.1556  0.0671
 2833TIP3    H129914   5.461   2.965  13.218 -1.4972  0.6233  0.3963
 2833TIP3    H229915   5.486   3.110  13.184  0.6658  0.0705 -0.5452
 2834TIP3   OH229916   2.894   3.550   5.327 -0.5837  0.6246  0.2345
 2834TIP3    H129917   2.811   3.513   5.296 -1.1616  1.7280  0.4292
 2834TIP3    H229918   2.957   3.479   5.314 -2.0753 -1.3606  2.8282
 2835TIP3   OH229919   3.461   3.774   2.447 -0.6254  0.5358  1.2386
 2835TIP3    H129920   3.426   3.695   2.489 -0.0894 -1.4855 -1.8096
 2835TIP3    H229921   3.390   3.806   2.393 -0.0371  0.5910  0.4809
 2836TIP3   OH229922   2.821   6.769  16.129 -0.0156  0.1634  0.6699
 2836TIP3    H129923   2.866   6.757  16.212  0.5956  0.0142  0.3160
 2836TIP3    H229924   2.834   6.862  16.108  0.0829  0.1312  0.5899
 2837TIP3   OH229925   0.419   2.066  16.609  0.3627 -0.6551 -0.0480
 2837TIP3    H129926   0.362   2.126  16.657 -0.5336 -0.7786 -0.9244
 2837TIP3    H229927   0.366   2.037  16.535  2.2467  0.8360 -2.0979
 2838TIP3   OH229928   2.416   2.702   2.170 -0.4206 -0.1031 -0.2185
 2838TIP3    H129929   2.408   2.780   2.225 -1.7765  0.6826 -1.4553
 2838TIP3    H229930   2.331   2.694   2.128  0.1690 -1.4230 -1.2252
 2839TIP3   OH229931   3.376   0.505  15.874  0.0909  0.3526  0.2622
 2839TIP3    H129932   3.358   0.598  15.881 -3.4934 -0.3086  2.8805
 2839TIP3    H229933   3.424   0.484  15.954  2.5847  0.1401 -1.2012
 2840TIP3   OH229934   1.927   2.054   2.347  0.2588  0.0572 -0.3664
 2840TIP3    H129935   1.934   1.960   2.360  0.3128 -0.1396 -1.6810
 2840TIP3    H229936   2.015   2.087   2.363  0.5090 -0.2780 -1.0207
 2841TIP3   OH229937   5.240   4.957   1.552 -0.0429 -0.5717  0.9810
 2841TIP3    H129938   5.249   5.051   1.535  0.1019 -0.5522  1.1663
 2841TIP3    H229939   5.149   4.937   1.529 -1.2111  0.3331  4.1764
 2842TIP3   OH229940   1.604   2.284   4.503 -0.1153  0.3759  0.4053
 2842TIP3    H129941   1.673   2.306   4.440  1.2433  3.7156  2.7677
 2842TIP3    H229942   1.541   2.357   4.496 -1.5579 -0.7856  0.8248
 2843TIP3   OH229943   4.503   2.998   3.770  0.3864  0.4830 -0.3502
 2843TIP3    H129944   4.594   3.013   3.796  0.5245  1.2625 -1.2365
 2843TIP3    H229945   4.509   2.954   3.686 -0.0467  1.3485 -0.8476
 2844TIP3   OH229946   4.165   3.252   5.601  0.0220  0.4110 -0.0938
 2844TIP3    H129947   4.075   3.282   5.583  0.5771  1.2911 -1.5974
 2844TIP3    H229948   4.172   3.253   5.696 -1.9678 -0.9122  0.1316
 2845TIP3   OH229949   4.518   3.874  11.292  0.8966 -0.2284  0.0701
 2845TIP3    H129950   4.503   3.812  11.363  3.2033 -0.9773  0.0021
 2845TIP3    H229951   4.480   3.956  11.323 -3.9376 -1.9032 -0.5975
 2846TIP3   OH229952   6.568   5.842   0.041 -1.0322  0.0883 -0.1145
 2846TIP3    H129953   6.567   5.936   0.058  1.3062 -0.3255  3.3571
 2846TIP3    H229954   6.476   5.815   0.046 -1.6984  2.0980 -0.8408
 2847TIP3   OH229955   0.133   5.358   2.991 -0.3705  0.2837 -0.4034
 2847TIP3    H129956   0.127   5.380   2.899  2.8303  0.8985 -0.5979
 2847TIP3    H229957   0.116   5.440   3.037  2.0009  1.0483 -0.7251
 2848TIP3   OH229958   4.699   5.511  13.484 -0.1268  0.2450  0.5444
 2848TIP3    H129959   4.795   5.510  13.488 -0.1326  0.9207  0.9890
 2848TIP3    H229960   4.674   5.591  13.529 -0.9229 -0.1149  0.7616
 2849TIP3   OH229961   0.147   3.597   2.260  0.3427  0.2275  0.0902
 2849TIP3    H129962   0.119   3.667   2.319 -1.4796 -0.5001  0.1721
 2849TIP3    H229963   0.201   3.540   2.315  1.6388  1.3899  0.0857
 2850TIP3   OH229964   0.968   6.486   1.911  0.4533  0.1222  0.0826
 2850TIP3    H129965   0.973   6.561   1.852  0.0834  1.0163  1.1404
 2850TIP3    H229966   0.875   6.477   1.930  0.4899 -0.6689 -0.1180
 2851TIP3   OH229967   1.662   6.305   1.967 -0.1264 -0.7170  0.2779
 2851TIP3    H129968   1.647   6.277   2.057  0.4732  1.3690  1.0658
 2851TIP3    H229969   1.686   6.397   1.973  0.2634 -0.6008 -1.9976
 2852TIP3   OH229970   4.139   0.958   0.936  0.0868 -0.5460 -0.0467
 2852TIP3    H129971   4.201   1.029   0.952  0.5260 -0.3585 -2.2581
 2852TIP3    H229972   4.063   1.000   0.897  0.3813 -1.2306 -1.4526
 2853TIP3   OH229973   1.229   5.570   1.940 -0.5970 -0.3412 -0.5312
 2853TIP3    H129974   1.138   5.544   1.929 -1.0303  1.2524 -0.9823
 2853TIP3    H229975   1.265   5.507   2.002 -2.4821  0.0019  1.0112
 2854TIP3   OH229976   5.119   2.705   1.255 -0.0570 -0.3297 -0.4027
 2854TIP3    H129977   5.068   2.780   1.224  1.4656  1.2272  0.7060
 2854TIP3    H229978   5.143   2.728   1.344 -0.8389 -2.8567  0.5316
 2855TIP3   OH229979   1.027   0.837   5.491 -0.5032  0.3103 -0.1904
 2855TIP3    H129980   0.977   0.905   5.536 -1.4666 -0.2503 -0.3846
 2855TIP3    H229981   1.074   0.885   5.422  1.5826  1.2945  1.7836
 2856TIP3   OH229982   3.597   1.049  15.278  0.2220 -0.7851  0.0635
 2856TIP3    H129983   3.522   1.108  15.291 -0.8003 -2.1794  0.7345
 2856TIP3    H229984   3.667   1.107  15.247 -0.7586  0.7687  0.5881
 2857TIP3   OH229985   2.121   0.450   3.846 -0.4680 -0.0863 -0.1842
 2857TIP3    H129986   2.143   0.539   3.872 -2.6016  1.0735 -1.9204
 2857TIP3    H229987   2.045   0.427   3.900  0.9622 -1.5431  1.3404
 2858TIP3   OH229988   5.513   1.360   5.636 -0.5453 -0.4906  0.1655
 2858TIP3    H129989   5.596   1.317   5.616 -0.8189 -0.7027 -0.5821
 2858TIP3    H229990   5.448   1.289   5.635 -0.9078 -0.1706 -0.4650
 2859TIP3   OH229991   0.369   3.484  15.008 -0.1162  0.1122  0.2774
 2859TIP3    H129992   0.354   3.465  14.915  1.5374  0.9275 -0.2108
 2859TIP3    H229993   0.405   3.402  15.043 -0.4009 -0.0862  0.1133
 2860TIP3   OH229994   1.858   6.644   2.845  0.4688  1.4301 -0.2122
 2860TIP3    H129995   1.840   6.598   2.762  0.7344 -0.3503  0.6724
 2860TIP3    H229996   1.778   6.693   2.863 -1.4664 -1.7624  0.7136
 2861TIP3   OH229997   4.484   1.237   3.813 -0.3609 -0.5258  0.4981
 2861TIP3    H129998   4.484   1.249   3.718  1.5469 -0.8095  0.4150
 2861TIP3    H229999   4.504   1.324   3.848 -1.6089 -0.3008  0.6899
 2862TIP3   OH230000   6.256   3.322   0.191 -0.2993  0.4374 -0.7420
 2862TIP3    H130001   6.193   3.275   0.247  1.7536 -0.5755  0.8429
 2862TIP3    H230002   6.327   3.260   0.178  1.5999  2.4083 -0.2754
 2863TIP3   OH230003   3.779   2.490   1.587  0.2142  0.0300 -0.1505
 2863TIP3    H130004   3.695   2.482   1.632  0.1912 -0.2945 -0.2478
 2863TIP3    H230005   3.827   2.411   1.611  1.3397  1.1820  1.6075
 2864TIP3   OH230006   4.255   6.270   0.916 -0.2098  0.6637 -0.3184
 2864TIP3    H130007   4.186   6.266   0.850 -0.3649  0.7112 -0.1579
 2864TIP3    H230008   4.301   6.352   0.897  0.5844  0.0350 -1.2057
 2865TIP3   OH230009   3.815   4.462  14.437  0.8705 -0.2306  0.2573
 2865TIP3    H130010   3.814   4.558  14.441 -0.6962 -0.2381  3.0001
 2865TIP3    H230011   3.877   4.436  14.506  0.1147 -1.1546  0.6126
 2866TIP3   OH230012   0.708   6.322  12.963  0.3919 -0.7165 -0.2722
 2866TIP3    H130013   0.619   6.289  12.977  0.0778  0.2744  0.2018
 2866TIP3    H230014   0.762   6.244  12.951 -0.4866 -1.3401 -0.2081
 2867TIP3   OH230015   2.747   3.431   1.035  0.4378  0.0378  0.3106
 2867TIP3    H130016   2.774   3.418   0.944 -0.1839 -0.5374  0.2017
 2867TIP3    H230017   2.793   3.361   1.083 -1.2142 -1.2972  0.0454
 2868TIP3   OH230018   6.201   3.346  10.657 -0.4688 -0.7265 -0.0363
 2868TIP3    H130019   6.229   3.434  10.632 -0.7974 -0.0084  1.8974
 2868TIP3    H230020   6.108   3.343  10.635 -0.5490 -0.4385  0.2571
 2869TIP3   OH230021   3.018   5.846   0.253  0.0799  0.1583 -0.2278
 2869TIP3    H130022   3.005   5.924   0.307  0.9572 -0.2359  0.5724
 2869TIP3    H230023   3.037   5.776   0.315  0.4485 -0.4540 -1.0073
 2870TIP3   OH230024   0.246   3.902  11.869  0.3918 -0.3964  0.7213
 2870TIP3    H130025   0.333   3.939  11.885 -0.1075  0.6518  1.1218
 2870TIP3    H230026   0.229   3.847  11.946  0.8931 -1.0149  0.4022
 2871TIP3   OH230027   5.714   1.604   2.642  0.3897 -0.4718 -0.5862
 2871TIP3    H130028   5.808   1.585   2.641  0.5042 -0.4221  2.0436
 2871TIP3    H230029   5.672   1.518   2.640  0.5335 -0.5444 -0.5113
 2872TIP3   OH230030   2.849   4.125  12.133 -0.7110 -0.1903  0.0632
 2872TIP3    H130031   2.937   4.090  12.121 -1.2018 -1.4443 -0.0227
 2872TIP3    H230032   2.824   4.096  12.221 -1.1017 -0.0048  0.0148
 2873TIP3   OH230033   0.240   5.223  14.179  0.5676 -0.1449 -1.1213
 2873TIP3    H130034   0.318   5.167  14.176  0.1598 -0.8952  0.8380
 2873TIP3    H230035   0.167   5.161  14.178  0.0756  0.4103 -0.3051
 2874TIP3   OH230036   2.246   5.793  13.125 -0.4882 -0.2789  0.1332
 2874TIP3    H130037   2.256   5.820  13.216 -0.6403  1.0497 -0.2170
 2874TIP3    H230038   2.157   5.757  13.120 -0.5510 -0.1688  0.4633
 2875TIP3   OH230039   0.944   5.026   2.563  0.3190 -0.0547  0.2538
 2875TIP3    H130040   0.998   4.961   2.608  1.1069 -0.5488 -1.3372
 2875TIP3    H230041   0.881   4.975   2.512  0.4289  0.4499 -0.4005
 2876TIP3   OH230042   6.227   6.342  13.011 -0.5571  0.3326  1.3192
 2876TIP3    H130043   6.262   6.311  13.094  0.0474  1.3646  1.4676
 2876TIP3    H230044   6.246   6.436  13.010 -1.1054  0.4524  0.2883
 2877TIP3   OH230045   5.388   3.010   4.528 -0.0014  0.0977  0.6806
 2877TIP3    H130046   5.434   3.051   4.601  1.4827  1.6752 -1.0264
 2877TIP3    H230047   5.453   3.005   4.458 -1.1594 -2.0299 -0.3463
 2878TIP3   OH230048   2.582   6.038   4.908 -0.5341  0.0910 -0.2657
 2878TIP3    H130049   2.560   5.978   4.837  2.5417 -0.7041 -0.7195
 2878TIP3    H230050   2.583   6.125   4.866  0.1425 -0.2299 -0.9357
 2879TIP3   OH230051   2.743   4.093  12.401  0.0005 -0.0965 -0.2086
 2879TIP3    H130052   2.758   4.008  12.441 -0.4003 -0.3825 -0.6487
 2879TIP3    H230053   2.662   4.082  12.352 -1.1821  1.1282  1.3712
 2880TIP3   OH230054   3.020   3.066  11.186  0.0755  0.0258  0.3297
 2880TIP3    H130055   3.044   3.038  11.274  0.4706 -0.6753  0.0114
 2880TIP3    H230056   2.935   3.027  11.170  1.6834 -3.2998 -1.0605
 2881TIP3   OH230057   3.817   2.492   0.846  0.6312 -0.0216  0.1075
 2881TIP3    H130058   3.816   2.470   0.939  1.4202 -1.6401 -0.2459
 2881TIP3    H230059   3.825   2.588   0.844 -1.2846  0.2247  1.6913
 2882TIP3   OH230060   6.031   6.077  13.617  0.3397  0.0548 -0.5032
 2882TIP3    H130061   5.935   6.079  13.607  0.4354  1.6100 -1.4819
 2882TIP3    H230062   6.045   6.056  13.709 -0.9766  0.9425 -0.0702
 2883TIP3   OH230063   1.470   1.718   4.566  0.2211 -0.0901  0.3323
 2883TIP3    H130064   1.538   1.669   4.520  0.8969 -0.5273  1.7576
 2883TIP3    H230065   1.398   1.725   4.502  1.7812  0.8820 -1.4132
 2884TIP3   OH230066   4.493   0.369   6.352  0.1645  0.6225 -0.0763
 2884TIP3    H130067   4.533   0.387   6.267  1.2962  0.7052  0.4568
 2884TIP3    H230068   4.478   0.274   6.351  0.3684  0.5919 -0.2719
 2885TIP3   OH230069   4.247   2.880   0.044 -0.0921 -0.0836  0.1999
 2885TIP3    H130070   4.336   2.872   0.078 -0.3804 -1.6015  0.6444
 2885TIP3    H230071   4.258   2.885  -0.051  0.4745 -0.1586  0.2580
 2886TIP3   OH230072   0.638   2.370  15.414 -0.5623 -0.5049 -0.1357
 2886TIP3    H130073   0.546   2.347  15.422 -0.5893 -1.0534 -1.6055
 2886TIP3    H230074   0.637   2.461  15.386 -0.5675  0.1744  1.9449
 2887TIP3   OH230075   0.725   0.146   3.654  0.3884 -0.1617 -0.0197
 2887TIP3    H130076   0.634   0.142   3.683  0.3900  2.2348  0.5226
 2887TIP3    H230077   0.774   0.097   3.720 -0.3101 -0.0125  0.6155
 2888TIP3   OH230078   6.570   1.194   1.336  0.7720  0.2793 -0.0414
 2888TIP3    H130079   6.514   1.272   1.341 -0.2133 -0.3301 -1.1046
 2888TIP3    H230080   6.628   1.211   1.261  1.4762  0.5461  0.5468
 2889TIP3   OH230081   5.672   0.753   1.418 -0.3339  0.1409 -0.2404
 2889TIP3    H130082   5.754   0.801   1.427  0.6186 -1.3581 -0.6179
 2889TIP3    H230083   5.604   0.820   1.426  0.9140  1.4192  0.0348
 2890TIP3   OH230084   3.067   6.237  13.632  0.4097 -0.2396  0.2275
 2890TIP3    H130085   3.147   6.226  13.684  2.1198  1.6374 -1.7593
 2890TIP3    H230086   3.031   6.321  13.661 -0.1943 -0.5283  0.3127
 2891TIP3   OH230087   3.278   4.861  15.846 -0.3508  0.2030  0.1105
 2891TIP3    H130088   3.353   4.838  15.790  1.1756  0.1780  2.0375
 2891TIP3    H230089   3.230   4.927  15.797  1.5726  1.0292 -0.7595
 2892TIP3   OH230090   3.016   6.499   1.058  0.0065  0.2263 -0.2407
 2892TIP3    H130091   3.056   6.429   1.110  0.0027  0.0150 -0.5189
 2892TIP3    H230092   3.003   6.460   0.972 -0.8534  0.2682 -0.1399
 2893TIP3   OH230093   2.559   2.179  16.686  0.5311  0.0543  1.1612
 2893TIP3    H130094   2.520   2.207  16.769 -1.9876 -0.8267  0.3654
 2893TIP3    H230095   2.484   2.168  16.627  1.9400 -2.1782 -0.3681
 2894TIP3   OH230096   4.986   0.762   2.376 -0.3827 -0.2106  0.2594
 2894TIP3    H130097   5.061   0.726   2.423  1.6806 -1.6466 -3.6382
 2894TIP3    H230098   5.010   0.853   2.358  0.2892 -0.5473 -0.6113
 2895TIP3   OH230099   1.144   4.870   4.778  0.0672  0.1912  0.6091
 2895TIP3    H130100   1.078   4.905   4.719  0.2158  0.5006  0.6205
 2895TIP3    H230101   1.096   4.845   4.857 -0.4461 -2.1608 -0.3912
 2896TIP3   OH230102   2.563   3.298  13.377 -0.2269 -0.1205  0.0587
 2896TIP3    H130103   2.591   3.389  13.372 -0.2671 -0.1531 -1.0797
 2896TIP3    H230104   2.522   3.290  13.463 -1.1907  1.2230 -0.2362
 2897TIP3   OH230105   2.823   1.974  16.281  0.1501  0.0270  0.1107
 2897TIP3    H130106   2.786   1.952  16.196  0.1725  2.9340 -0.7651
 2897TIP3    H230107   2.755   2.024  16.326  1.3178  1.4652  0.3692
 2898TIP3   OH230108   5.084   3.813  14.674 -0.0809 -0.1714 -0.6411
 2898TIP3    H130109   5.165   3.862  14.664 -1.8117  2.8777 -1.1172
 2898TIP3    H230110   5.053   3.798  14.585 -0.4007 -0.6803 -0.4513
 2899TIP3   OH230111   0.083   1.496   0.382  0.1918  0.3737 -0.2117
 2899TIP3    H130112   0.148   1.496   0.453  0.5965 -0.9769 -0.5538
 2899TIP3    H230113   0.009   1.546   0.418  0.4949 -0.0512  1.0736
 2900TIP3   OH230114   4.008   5.770  13.645  0.4856 -0.2456  0.4503
 2900TIP3    H130115   4.043   5.809  13.565  0.2468  0.6365  0.7612
 2900TIP3    H230116   4.003   5.843  13.707 -2.5235 -0.1130  0.2216
 2901TIP3   OH230117   0.015   1.685   4.373 -0.0064 -0.7454  0.3601
 2901TIP3    H130118  -0.048   1.749   4.405  1.1132  0.9516 -0.6036
 2901TIP3    H230119  -0.009   1.603   4.415 -1.7685  0.2191  1.3355
 2902TIP3   OH230120   0.866   2.231   2.761 -0.3795 -0.5835  0.0444
 2902TIP3    H130121   0.838   2.302   2.819 -0.1331 -0.4667  0.0202
 2902TIP3    H230122   0.961   2.239   2.757 -0.2217 -1.6619  1.0091
 2903TIP3   OH230123   0.692   4.335   2.482  0.1969 -0.8833 -0.7663
 2903TIP3    H130124   0.601   4.323   2.508  0.2919 -1.2904 -0.6172
 2903TIP3    H230125   0.699   4.290   2.397  0.7613 -2.6789  0.1835
 2904TIP3   OH230126   5.675   0.803  13.081  0.2805  0.6206  0.1034
 2904TIP3    H130127   5.703   0.882  13.127 -0.6666  1.1542 -0.1901
 2904TIP3    H230128   5.733   0.798  13.004  0.4801  0.9205  0.2322
 2905TIP3   OH230129   2.053   4.854  13.881  0.1107 -0.4237  0.2743
 2905TIP3    H130130   2.108   4.882  13.808 -1.2587  0.5183 -0.4642
 2905TIP3    H230131   2.071   4.917  13.950 -0.5130  0.3100 -0.2108
 2906TIP3   OH230132   1.484   2.738  12.994  0.7364 -0.2555  0.0879
 2906TIP3    H130133   1.527   2.810  13.038  1.0416  0.4741 -1.3313
 2906TIP3    H230134   1.391   2.761  12.996  0.7809 -0.0738  0.1010
 2907TIP3   OH230135   5.005   5.493   1.248 -0.4062 -0.1465 -0.1987
 2907TIP3    H130136   4.921   5.488   1.294 -1.3513  0.2547 -1.8042
 2907TIP3    H230137   4.982   5.503   1.156  1.4254 -1.5942 -0.8809
 2908TIP3   OH230138   0.341   1.437  11.306  0.3024 -0.1935  0.1669
 2908TIP3    H130139   0.260   1.481  11.329  0.6397  0.1964  0.6279
 2908TIP3    H230140   0.401   1.456  11.378  1.1916  0.5269 -0.7306
 2909TIP3   OH230141   6.384   2.268   3.962 -0.6154 -0.2844 -0.3183
 2909TIP3    H130142   6.424   2.354   3.946 -0.5650 -0.5552 -1.8568
 2909TIP3    H230143   6.404   2.248   4.053  0.2881  0.8672 -0.2438
 2910TIP3   OH230144   5.761   1.149  11.332 -0.0671  0.3736 -0.4414
 2910TIP3    H130145   5.697   1.200  11.282  0.8432  4.9027  2.5322
 2910TIP3    H230146   5.827   1.124  11.268 -0.1231  3.8310 -2.0494
 2911TIP3   OH230147   5.079   2.873  16.026  0.4741 -0.1432  0.0312
 2911TIP3    H130148   5.144   2.934  16.061  0.0900 -0.6771  1.7761
 2911TIP3    H230149   5.127   2.821  15.962  1.5887 -0.0401  0.7560
 2912TIP3   OH230150   2.562   1.237   4.566 -0.1661 -0.3758 -0.2926
 2912TIP3    H130151   2.634   1.217   4.506  2.4733 -1.6905  2.9802
 2912TIP3    H230152   2.505   1.160   4.563  0.5667 -0.9268 -0.3003
 2913TIP3   OH230153   5.429   3.895   5.407  0.6773  0.3242 -0.0276
 2913TIP3    H130154   5.470   3.808   5.400  1.5372  0.7943 -1.1688
 2913TIP3    H230155   5.385   3.893   5.492 -0.3278 -1.6414 -0.5301
 2914TIP3   OH230156   6.540   4.599   4.282  0.7052  0.0689 -0.7370
 2914TIP3    H130157   6.599   4.644   4.343  1.8708 -0.8631 -1.1245
 2914TIP3    H230158   6.458   4.591   4.330  1.2284  0.4132  0.2654
 2915TIP3   OH230159   5.261   0.678   4.556  0.2564  0.3105  0.1045
 2915TIP3    H130160   5.351   0.655   4.535  0.4667  0.2645  1.0188
 2915TIP3    H230161   5.208   0.620   4.502  0.7739  0.4112 -0.5172
 2916TIP3   OH230162   2.265   2.097  15.037 -0.5105  0.2284 -0.1171
 2916TIP3    H130163   2.339   2.123  15.091 -1.0418  0.9769  0.2738
 2916TIP3    H230164   2.259   2.002  15.050 -1.6678  0.5571  2.5873
 2917TIP3   OH230165   4.625   4.493   4.445 -0.1078  0.1210  0.0962
 2917TIP3    H130166   4.591   4.423   4.501 -1.2919  1.4910  1.1851
 2917TIP3    H230167   4.616   4.460   4.356 -0.0372 -1.3418  0.6133
 2918TIP3   OH230168   2.983   6.105   4.275  0.1318  0.2077  0.5819
 2918TIP3    H130169   3.008   6.097   4.183 -2.0136 -1.6805  0.0879
 2918TIP3    H230170   2.914   6.171   4.277 -1.2456 -1.1658  0.4556
 2919TIP3   OH230171   0.268   0.457  15.869  0.1813  0.0468  0.4318
 2919TIP3    H130172   0.338   0.409  15.824  0.5664  0.8079  0.1892
 2919TIP3    H230173   0.188   0.430  15.826  0.4058 -0.2846  0.2177
 2920TIP3   OH230174   2.964   0.139   4.658  0.2368 -0.3956 -0.0019
 2920TIP3    H130175   2.909   0.178   4.726 -0.6827 -1.2500 -0.2300
 2920TIP3    H230176   2.935   0.181   4.577 -0.6077 -1.3505 -0.2184
 2921TIP3   OH230177   0.707   2.368   4.389 -0.3023 -0.4989 -0.1888
 2921TIP3    H130178   0.630   2.413   4.356 -1.4210 -2.1027  0.1480
 2921TIP3    H230179   0.682   2.337   4.476  0.4051 -1.8028 -0.4245
 2922TIP3   OH230180   0.083   2.279  14.227  0.7999  0.6623 -0.0763
 2922TIP3    H130181   0.044   2.237  14.149  1.4429 -0.1297  0.0190
 2922TIP3    H230182   0.087   2.372  14.204  0.8032  0.4684 -0.9192
 2923TIP3   OH230183   0.059   4.109   3.662 -0.2328  0.2300 -0.3492
 2923TIP3    H130184   0.103   4.075   3.740 -1.0681  1.7985  0.8639
 2923TIP3    H230185  -0.025   4.064   3.660  0.9257 -2.0682 -2.1381
 2924TIP3   OH230186   4.956   0.108   5.533  0.1519 -0.3723  0.3915
 2924TIP3    H130187   4.867   0.129   5.559 -0.1032  0.2027 -0.8496
 2924TIP3    H230188   5.004   0.190   5.542 -0.3924  0.4206 -2.6015
 2925TIP3   OH230189   5.026   6.053   3.903  0.3104  0.8075 -0.0055
 2925TIP3    H130190   5.074   6.123   3.859 -0.1869  1.7498  0.8952
 2925TIP3    H230191   5.025   6.080   3.995 -0.7341  0.1064  0.2013
 2926TIP3   OH230192   6.655   6.680  12.490 -0.4605  0.3889 -0.1134
 2926TIP3    H130193   6.574   6.630  12.504 -0.6336  0.4129 -0.9510
 2926TIP3    H230194   6.718   6.642  12.551 -0.3436 -1.4771 -1.3075
 2927TIP3   OH230195   3.622   2.396  13.533  0.3106 -0.0761  0.7234
 2927TIP3    H130196   3.554   2.372  13.595  0.5080  0.1085  1.0162
 2927TIP3    H230197   3.582   2.384  13.447  0.0506 -0.3775  0.8851
 2928TIP3   OH230198   3.838   1.857  12.829  0.5410 -0.0848 -0.3390
 2928TIP3    H130199   3.887   1.792  12.878  1.6194  0.3565 -0.7831
 2928TIP3    H230200   3.762   1.810  12.795  0.9161 -0.9215 -0.0428
 2929TIP3   OH230201   0.503   4.795   3.186 -0.5040  0.2529  0.6716
 2929TIP3    H130202   0.503   4.734   3.112 -0.6225  0.4931  0.4689
 2929TIP3    H230203   0.459   4.748   3.257  0.6785 -0.4319  0.9767
 2930TIP3   OH230204   2.987   6.429  14.055 -0.6842 -0.0986  0.5649
 2930TIP3    H130205   3.059   6.365  14.061  0.8969  1.5234 -0.0471
 2930TIP3    H230206   2.998   6.484  14.133 -0.4196  0.9754 -0.2125
 2931TIP3   OH230207   4.384   1.220  16.602  0.5432 -0.0975 -0.4360
 2931TIP3    H130208   4.338   1.299  16.633 -0.5566 -0.0893 -1.9640
 2931TIP3    H230209   4.314   1.157  16.585  1.4442 -1.6900  1.3990
 2932TIP3   OH230210   3.428   2.825  15.002  0.9694 -1.2648  0.1075
 2932TIP3    H130211   3.422   2.872  14.919  0.3118 -1.8675 -0.1944
 2932TIP3    H230212   3.468   2.888  15.062  0.5892 -0.5016 -0.4237
 2933TIP3   OH230213   2.058   5.171   4.237 -0.0250  0.1360 -0.5205
 2933TIP3    H130214   2.151   5.187   4.220 -0.2005  0.4239 -1.2739
 2933TIP3    H230215   2.013   5.214   4.164 -0.7311 -0.3342 -0.3742
 2934TIP3   OH230216   4.464   6.002   4.696  0.5702 -0.0143  0.0648
 2934TIP3    H130217   4.435   6.057   4.623  1.3399  0.4438  0.0915
 2934TIP3    H230218   4.396   6.012   4.762  0.3801  0.4057 -0.1866
 2935TIP3   OH230219   6.680   4.427  11.668  0.6214  0.0286  0.8840
 2935TIP3    H130220   6.730   4.430  11.586 -0.2954 -2.5085  0.1512
 2935TIP3    H230221   6.728   4.365  11.723 -0.3348 -0.4741  1.1539
 2936TIP3   OH230222   0.075   1.063  13.690  0.5829  0.0286  1.0937
 2936TIP3    H130223   0.103   1.059  13.599 -0.0726 -1.1367  0.9186
 2936TIP3    H230224   0.123   0.993  13.734 -1.5374 -1.6641  0.8924
 2937TIP3   OH230225   4.727   4.228   3.478 -0.2394 -0.0618  0.2135
 2937TIP3    H130226   4.747   4.142   3.440 -0.1744 -1.2126  2.6552
 2937TIP3    H230227   4.698   4.209   3.567 -0.0764  2.4823  0.8975
 2938TIP3   OH230228   0.092   4.061  12.083 -0.6136  0.4206  0.0152
 2938TIP3    H130229   0.150   4.096  12.014 -0.7896 -0.5725 -0.6665
 2938TIP3    H230230   0.044   3.990  12.039 -0.1312 -0.7890  1.3779
 2939TIP3   OH230231   0.681   4.187  16.195  0.2480 -0.5695  0.1630
 2939TIP3    H130232   0.609   4.127  16.175 -1.1739  0.9511  0.4618
 2939TIP3    H230233   0.691   4.239  16.115  0.9284 -0.6926  0.1695
 2940TIP3   OH230234   5.808   5.268   2.047 -0.2159 -0.2574  0.4469
 2940TIP3    H130235   5.805   5.335   1.980 -0.2032  0.0602  0.7599
 2940TIP3    H230236   5.885   5.215   2.026  0.1476  0.2152  0.5638
 2941TIP3   OH230237   6.634   4.175   4.941  0.2734 -0.4189  0.2493
 2941TIP3    H130238   6.550   4.136   4.916  0.0199 -0.5357  1.2656
 2941TIP3    H230239   6.629   4.265   4.908 -0.9901  0.1409  1.8457
 2942TIP3   OH230240   2.258   0.101  13.419  0.3841  0.2588  0.2516
 2942TIP3    H130241   2.309   0.149  13.483  1.6034  3.0296 -2.5115
 2942TIP3    H230242   2.167   0.115  13.445  0.8369 -0.4696  2.4313
 2943TIP3   OH230243   4.932   3.429   3.342 -0.2714  0.6832  0.6096
 2943TIP3    H130244   4.895   3.347   3.375 -1.3885 -0.5101 -3.0449
 2943TIP3    H230245   5.017   3.403   3.305 -0.7223  1.0500 -0.7554
 2944TIP3   OH230246   1.282   3.822   3.724  0.0281 -0.2533 -0.1978
 2944TIP3    H130247   1.311   3.844   3.813  0.7930 -0.4979 -0.3814
 2944TIP3    H230248   1.214   3.887   3.705  0.0528 -0.0238  0.4594
 2945TIP3   OH230249   4.456   0.096   6.264 -0.6650  0.2742 -0.4211
 2945TIP3    H130250   4.476   0.010   6.302  1.4146  0.2956 -1.3446
 2945TIP3    H230251   4.480   0.087   6.171 -2.9425  1.0857 -1.1576
 2946TIP3   OH230252   5.554   0.422  15.456  0.3966  0.2421  0.1109
 2946TIP3    H130253   5.472   0.440  15.409  0.0714 -1.2281  0.0871
 2946TIP3    H230254   5.564   0.327  15.453  1.2098  0.2474  1.6257
 2947TIP3   OH230255   3.056   5.315   3.137 -0.0634  0.1333 -0.0868
 2947TIP3    H130256   3.112   5.240   3.157  0.6230  0.7586  0.4004
 2947TIP3    H230257   2.967   5.282   3.145  0.1834 -1.1976 -1.9846
 2948TIP3   OH230258   4.841   2.380   2.976  0.1402 -0.1949  0.3253
 2948TIP3    H130259   4.813   2.289   2.966  1.0352 -0.3261 -1.3513
 2948TIP3    H230260   4.811   2.424   2.897  1.0883  0.5973  0.3844
 2949TIP3   OH230261   5.748   2.090   4.193  0.4390 -0.3531 -0.4373
 2949TIP3    H130262   5.727   2.107   4.101 -0.5509 -0.1127 -0.1808
 2949TIP3    H230263   5.681   2.029   4.222 -0.7854  1.4429  0.7618
 2950TIP3   OH230264   6.355   0.215  13.403 -0.4722  0.5710  0.1364
 2950TIP3    H130265   6.280   0.199  13.345 -1.5723  0.9046  1.4172
 2950TIP3    H230266   6.369   0.310  13.398  0.3475  0.4153 -0.6609
 2951TIP3   OH230267   5.461   1.682  13.949 -1.0472  0.5197  0.2520
 2951TIP3    H130268   5.443   1.708  14.039 -1.4290  2.5853 -0.3636
 2951TIP3    H230269   5.375   1.675  13.908 -1.0489 -2.8984  0.5982
 2952TIP3   OH230270   5.784   5.730  17.112  0.5481  0.4893 -0.1934
 2952TIP3    H130271   5.797   5.637  17.130 -0.5135  0.3274 -0.2500
 2952TIP3    H230272   5.693   5.747  17.134  0.8371  1.6164  0.2100
 2953TIP3   OH230273   0.699   1.971  12.134  0.0138  0.0136 -0.0866
 2953TIP3    H130274   0.653   2.009  12.058 -1.5709 -1.6989 -0.0786
 2953TIP3    H230275   0.778   1.932  12.097  0.9833  2.0467 -0.2873
 2954TIP3   OH230276   0.526   6.010   4.650 -0.0716  0.1497  0.0136
 2954TIP3    H130277   0.532   6.061   4.570 -2.0764 -0.2509 -0.4370
 2954TIP3    H230278   0.609   5.963   4.656  0.7868  1.5152 -0.8842
 2955TIP3   OH230279   3.398   0.306   2.158 -0.0418  0.2659 -0.2763
 2955TIP3    H130280   3.376   0.301   2.251  0.9477 -0.0574 -0.0556
 2955TIP3    H230281   3.406   0.215   2.130 -0.6188  0.3551 -0.7549
 2956TIP3   OH230282   6.115   3.326   5.733  0.2960  0.3318  0.2245
 2956TIP3    H130283   6.094   3.263   5.802  1.5228 -2.3988 -1.6817
 2956TIP3    H230284   6.087   3.283   5.652  0.4267  2.6706 -1.1660
 2957TIP3   OH230285   4.265   5.800  16.178  0.5600 -0.3885  0.7473
 2957TIP3    H130286   4.346   5.760  16.149 -0.1787 -1.1842 -0.2739
 2957TIP3    H230287   4.286   5.893  16.187  0.4929  0.3440 -4.1196
 2958TIP3   OH230288   0.078   5.467   1.802 -0.0797 -0.0729 -0.0556
 2958TIP3    H130289   0.159   5.496   1.760  0.1676 -0.1651  0.3582
 2958TIP3    H230290   0.107   5.417   1.878 -0.4662 -1.6353 -0.8697
 2959TIP3   OH230291   3.486   6.138  15.133  0.1302  0.4465 -0.1432
 2959TIP3    H130292   3.453   6.197  15.201  1.1730  1.6261 -0.6065
 2959TIP3    H230293   3.573   6.112  15.165 -0.5677 -1.4080  0.3635
 2960TIP3   OH230294   6.752   6.370   3.085 -0.3102  0.6912  0.3403
 2960TIP3    H130295   6.815   6.431   3.123  1.0182  0.1768 -0.9460
 2960TIP3    H230296   6.730   6.407   3.000 -0.4089 -0.0207  0.0483
 2961TIP3   OH230297   5.303   0.171  13.629 -0.0179  0.2991 -0.0227
 2961TIP3    H130298   5.220   0.165  13.583 -0.2881 -0.4309  0.5278
 2961TIP3    H230299   5.295   0.250  13.683 -0.3608  0.2264  0.0357
 2962TIP3   OH230300   3.001   1.376  10.530 -0.1337  0.6859 -0.0637
 2962TIP3    H130301   2.968   1.360  10.441  0.1811  1.7678 -0.3840
 2962TIP3    H230302   2.923   1.376  10.584 -0.3350  0.0612 -0.3372
 2963TIP3   OH230303   1.373   5.547   6.590  0.1106 -0.1718  0.5238
 2963TIP3    H130304   1.387   5.617   6.655 -1.4520 -1.1829  2.0213
 2963TIP3    H230305   1.282   5.557   6.563 -0.1589 -1.6254  0.8062
 2964TIP3   OH230306   2.215   0.685   3.969  0.3681  0.0873  0.6926
 2964TIP3    H130307   2.289   0.682   4.029 -0.9902  0.1826  2.4629
 2964TIP3    H230308   2.145   0.729   4.019 -0.8915 -0.0171 -0.8851
 2965TIP3   OH230309   3.880   3.767   0.983 -0.6676  0.5190 -0.0521
 2965TIP3    H130310   3.904   3.807   1.066  2.1028 -1.9701  0.5232
 2965TIP3    H230311   3.962   3.766   0.933 -1.9253  0.5933 -2.2357
 2966TIP3   OH230312   2.104   3.542  15.968  0.2860  0.5364  0.4965
 2966TIP3    H130313   2.119   3.635  15.950 -0.3104  0.5297 -0.0992
 2966TIP3    H230314   2.114   3.534  16.063  1.8827  0.9016  0.3924
 2967TIP3   OH230315   1.984   0.280   5.155  0.0522  0.6683  0.0529
 2967TIP3    H130316   2.047   0.256   5.087 -0.5092  0.6723 -0.4784
 2967TIP3    H230317   2.004   0.371   5.175 -0.5036  1.0171 -0.9246
 2968TIP3   OH230318   5.938   3.309  13.746  0.2079 -0.6920 -0.3682
 2968TIP3    H130319   5.845   3.327  13.732 -0.0023 -1.4119  0.0875
 2968TIP3    H230320   5.951   3.322  13.840  0.5543 -0.6809 -0.4143
 2969TIP3   OH230321   2.503   0.932  11.882  0.0813  0.4710  0.2274
 2969TIP3    H130322   2.453   0.982  11.947 -0.6457  1.1146 -0.7930
 2969TIP3    H230323   2.452   0.939  11.802  0.0717 -1.7590 -0.0259
 2970TIP3   OH230324   6.650   3.041  13.625 -0.1156  0.1558 -0.0652
 2970TIP3    H130325   6.706   3.102  13.673  1.9814 -2.4503  1.0761
 2970TIP3    H230326   6.619   2.980  13.692  0.7283 -2.0555 -1.5739
 2971TIP3   OH230327   1.770   1.395   5.011  0.0624 -0.9055  0.2001
 2971TIP3    H130328   1.795   1.374   5.101  3.2545  0.0753 -0.3574
 2971TIP3    H230329   1.742   1.487   5.015  1.0798 -0.5837  0.0585
 2972TIP3   OH230330   2.179   3.807  12.783 -0.0303  0.0539  0.1203
 2972TIP3    H130331   2.191   3.727  12.835 -2.2028 -0.9142 -0.7538
 2972TIP3    H230332   2.100   3.791  12.732  0.5489  2.0205 -1.5386
 2973TIP3   OH230333   2.641   1.276   2.732 -0.0097  0.5151  0.4528
 2973TIP3    H130334   2.658   1.251   2.823 -0.6421  0.4169  0.5439
 2973TIP3    H230335   2.557   1.322   2.734 -0.6601 -0.5789 -0.2564
 2974TIP3   OH230336   6.386   2.839  14.680 -0.1953 -0.4471  1.0411
 2974TIP3    H130337   6.411   2.748  14.662  0.4988 -0.0627 -0.0646
 2974TIP3    H230338   6.431   2.861  14.761  0.6286 -0.7107  0.6598
 2975TIP3   OH230339   1.852   0.680  11.786 -0.2258 -0.3596 -0.2078
 2975TIP3    H130340   1.879   0.612  11.848 -0.2195 -0.6517 -0.5253
 2975TIP3    H230341   1.801   0.633  11.720 -0.6912  0.0352 -0.1350
 2976TIP3   OH230342   1.539   3.273   5.842  0.2686 -0.0465  0.4654
 2976TIP3    H130343   1.563   3.353   5.795  0.4696  0.7957  1.9611
 2976TIP3    H230344   1.622   3.233   5.868  0.1549 -0.4374  0.2457
 2977TIP3   OH230345   3.711   2.031   3.794 -0.0185 -0.0618 -0.6039
 2977TIP3    H130346   3.694   1.950   3.841  2.0538 -1.4881 -2.1550
 2977TIP3    H230347   3.769   2.081   3.852  0.7050 -0.8058 -0.6708
 2978TIP3   OH230348   1.847   5.655  14.403 -0.2706 -0.1368 -0.2306
 2978TIP3    H130349   1.933   5.628  14.371 -1.1720 -1.4148 -1.6924
 2978TIP3    H230350   1.856   5.750  14.417  1.0815 -0.0723 -1.2809
 2979TIP3   OH230351   1.682   1.659   0.750 -0.0619  0.1942 -0.2738
 2979TIP3    H130352   1.756   1.708   0.786 -0.1469  0.0779  0.0646
 2979TIP3    H230353   1.607   1.717   0.764 -0.0742  0.2054 -0.3865
 2980TIP3   OH230354   3.843   0.624   0.694 -0.2512  0.8329 -0.3463
 2980TIP3    H130355   3.795   0.576   0.627  0.0750  0.3161 -0.2186
 2980TIP3    H230356   3.785   0.623   0.770  0.9842 -2.1564  0.7005
 2981TIP3   OH230357   2.560   1.403  15.831  0.3408 -0.0524 -0.1381
 2981TIP3    H130358   2.530   1.457  15.903 -0.9964 -1.5864  0.5014
 2981TIP3    H230359   2.554   1.460  15.754 -2.6869  0.2622  0.2141
 2982TIP3   OH230360   2.202   6.662   5.578 -0.1412  0.0508 -0.1647
 2982TIP3    H130361   2.284   6.668   5.528 -0.7232  0.2562 -1.1102
 2982TIP3    H230362   2.193   6.748   5.618  0.5693 -0.2623  0.7060
 2983TIP3   OH230363   4.273   5.210   5.378  0.0006 -0.3243  0.1325
 2983TIP3    H130364   4.270   5.147   5.450  1.1852  0.1632  0.6321
 2983TIP3    H230365   4.322   5.165   5.309 -0.1842 -0.3835  0.0384
 2984TIP3   OH230366   2.065   0.338   1.747 -0.1291 -0.5608  0.4363
 2984TIP3    H130367   2.078   0.298   1.661  1.2720 -0.2655  0.4918
 2984TIP3    H230368   1.980   0.382   1.740 -0.5487 -1.4617 -0.4273
 2985TIP3   OH230369   2.008   1.083   5.770 -0.6004  0.1249  0.5153
 2985TIP3    H130370   2.083   1.081   5.830 -1.4391  2.4380  1.7801
 2985TIP3    H230371   1.937   1.120   5.822 -1.8865  0.4922 -1.3930
 2986TIP3   OH230372   6.409   6.470   4.583 -0.0368  0.2645  0.2393
 2986TIP3    H130373   6.387   6.553   4.624  1.1827  0.3996  0.6385
 2986TIP3    H230374   6.411   6.489   4.489 -0.2876  0.5515  0.2911
 2987TIP3   OH230375   1.750   5.755   1.704 -0.4517 -0.1675 -0.6110
 2987TIP3    H130376   1.665   5.711   1.700 -1.3295  1.2861  0.7672
 2987TIP3    H230377   1.781   5.738   1.793  0.0513  0.4420 -0.6659
 2988TIP3   OH230378   1.613   1.546   5.864 -0.4294 -0.4886  0.4079
 2988TIP3    H130379   1.683   1.578   5.921 -0.8251 -0.1472  0.7121
 2988TIP3    H230380   1.540   1.530   5.923 -0.5331 -1.0777  0.1260
 2989TIP3   OH230381   0.655   4.625  16.991  0.1277 -0.0536  0.3954
 2989TIP3    H130382   0.659   4.623  17.087 -2.2483  1.1491  0.5927
 2989TIP3    H230383   0.596   4.553  16.968  0.0817  0.1395 -0.1072
 2990TIP3   OH230384   1.374   2.221   0.473 -0.3186 -0.3452  0.4726
 2990TIP3    H130385   1.320   2.286   0.427 -1.2104 -0.7056  0.9798
 2990TIP3    H230386   1.331   2.138   0.455 -0.4694 -0.5403  1.6403
 2991TIP3   OH230387   2.550   6.445  14.883  0.3709  0.1152  0.3485
 2991TIP3    H130388   2.607   6.506  14.930 -0.6256  0.3297  1.3221
 2991TIP3    H230389   2.537   6.373  14.945 -0.9019  0.3640  0.3847
 2992TIP3   OH230390   6.754   0.773  11.705 -0.3622 -0.0655 -0.3294
 2992TIP3    H130391   6.811   0.829  11.758  1.0295 -1.5863 -0.1540
 2992TIP3    H230392   6.752   0.689  11.752 -1.3404 -0.5838 -1.2496
 2993TIP3   OH230393   0.513   2.070   1.969  0.8313  0.5379  0.1739
 2993TIP3    H130394   0.577   2.029   1.911  0.9588 -0.8437  1.2332
 2993TIP3    H230395   0.428   2.045   1.934  0.8927  0.7074 -0.0948
 2994TIP3   OH230396   4.287   5.858  14.074  0.6858 -0.0543 -0.3547
 2994TIP3    H130397   4.261   5.947  14.101  1.3961 -0.4769  1.9225
 2994TIP3    H230398   4.208   5.806  14.084  0.7388 -0.0382  0.2170
 2995TIP3   OH230399   3.916   3.662  15.196  0.1670 -0.2134 -0.1519
 2995TIP3    H130400   3.905   3.583  15.143  1.2036 -0.9102  0.6105
 2995TIP3    H230401   3.919   3.629  15.286 -0.2912  0.8025  0.2444
 2996TIP3   OH230402   5.791   3.131  13.168 -0.2077 -0.3136 -0.2712
 2996TIP3    H130403   5.700   3.162  13.168 -0.2937 -0.5044 -1.5117
 2996TIP3    H230404   5.808   3.108  13.076  1.9553  2.3071 -0.6434
 2997TIP3   OH230405   3.664   0.099   2.474 -0.3266 -0.0790  0.1946
 2997TIP3    H130406   3.631   0.009   2.484 -2.9199  0.5586 -1.5659
 2997TIP3    H230407   3.585   0.151   2.460  1.3243  1.9610 -2.4036
 2998TIP3   OH230408   1.426   2.459  12.718 -0.1567 -0.2534 -0.4395
 2998TIP3    H130409   1.427   2.421  12.806 -2.2850 -0.9246 -0.6287
 2998TIP3    H230410   1.386   2.545  12.730 -2.3763 -1.1443 -0.9414
 2999TIP3   OH230411   0.787   5.567  16.699 -0.3503 -0.1511 -0.0542
 2999TIP3    H130412   0.803   5.521  16.782  0.6850  0.5983  0.1844
 2999TIP3    H230413   0.741   5.647  16.725  0.6464  0.4559 -0.0930
 3000TIP3   OH230414   4.783   5.673  16.311  0.0992  0.1504 -0.1303
 3000TIP3    H130415   4.822   5.642  16.229  2.1421 -0.0013  0.8234
 3000TIP3    H230416   4.762   5.765  16.294  2.2050  0.6467 -0.3242
 3001TIP3   OH230417   6.589   5.671   2.052 -0.1961  0.6170  0.3962
 3001TIP3    H130418   6.617   5.731   1.983  1.2711 -1.0013 -0.5117
 3001TIP3    H230419   6.599   5.721   2.133  0.0920  1.8808 -0.3863
 3002TIP3   OH230420   5.183   5.106   1.288  0.7102  0.4440 -0.0750
 3002TIP3    H130421   5.143   5.157   1.359  0.5729  0.7301 -0.3543
 3002TIP3    H230422   5.113   5.050   1.256  1.0758 -0.5216  0.7686
 3003TIP3   OH230423   2.159   3.822  14.421  0.1399 -0.5166  0.5695
 3003TIP3    H130424   2.178   3.736  14.383 -0.2320 -1.4518  2.4149
 3003TIP3    H230425   2.063   3.827  14.421  0.1525 -0.2729  0.8667
 3004TIP3   OH230426   4.724   3.387  16.542  0.0249 -0.0048 -0.2216
 3004TIP3    H130427   4.726   3.482  16.553  2.2161 -0.0330  0.0526
 3004TIP3    H230428   4.695   3.353  16.627  1.4750  0.3670  0.4511
 3005TIP3   OH230429   1.255   5.907   5.775 -0.4369  0.3143 -0.0587
 3005TIP3    H130430   1.243   5.813   5.759  0.9981  0.1966 -0.6155
 3005TIP3    H230431   1.184   5.931   5.834 -1.9837 -0.6993 -1.4302
 3006TIP3   OH230432   1.664   6.319  17.132  0.0729 -0.1213  0.4736
 3006TIP3    H130433   1.718   6.318  17.052 -2.8403 -0.7821 -1.6463
 3006TIP3    H230434   1.639   6.227  17.144 -1.3319  0.2839  0.8088
 3007TIP3   OH230435   2.395   3.801  12.278 -0.9235 -0.4291  0.1360
 3007TIP3    H130436   2.305   3.828  12.296 -0.8083 -1.1776  2.0772
 3007TIP3    H230437   2.413   3.834  12.190 -3.1748 -0.4906 -0.4052
 3008TIP3   OH230438   2.485   5.305   4.334  0.2555  0.0229  0.0540
 3008TIP3    H130439   2.505   5.212   4.326 -0.5658 -0.0201 -2.0593
 3008TIP3    H230440   2.570   5.348   4.333  0.5989 -0.5160 -2.9546
 3009TIP3   OH230441   6.552   0.151   3.561 -0.4928 -0.4186  0.1728
 3009TIP3    H130442   6.562   0.160   3.655 -1.1832 -0.7286  0.2783
 3009TIP3    H230443   6.505   0.068   3.549 -1.4993  0.2132 -0.3746
 3010TIP3   OH230444   1.639   5.225  10.768  0.7589  0.1181 -0.3879
 3010TIP3    H130445   1.694   5.260  10.838 -1.5167  0.5916  1.2773
 3010TIP3    H230446   1.668   5.134  10.758  0.4703 -0.2932  1.9614
 3011TIP3   OH230447   2.010   3.609  14.574  0.0075  0.2077 -0.5433
 3011TIP3    H130448   1.932   3.647  14.535  0.2534 -0.0247 -1.2796
 3011TIP3    H230449   1.983   3.583  14.662 -0.7100  0.2395 -0.7509
 3012TIP3   OH230450   4.617   0.024   5.521 -0.0873 -0.8734  0.5229
 3012TIP3    H130451   4.561  -0.036   5.569  0.1453 -0.5095  1.2781
 3012TIP3    H230452   4.621   0.102   5.577 -0.0197 -0.3351 -0.2205
 3013TIP3   OH230453   3.418   1.686   5.339 -0.3069 -0.2147 -0.2356
 3013TIP3    H130454   3.324   1.678   5.353 -0.5690  0.1400 -1.6236
 3013TIP3    H230455   3.438   1.623   5.270  0.4613 -0.2334 -0.0047
 3014TIP3   OH230456   2.356   1.874  13.699  0.5052  0.0240  0.1064
 3014TIP3    H130457   2.377   1.883  13.792  0.4006 -0.9696  0.2344
 3014TIP3    H230458   2.439   1.885  13.654  0.3916  1.6105  0.2249
 3015TIP3   OH230459   3.509   1.095  14.000 -0.3087  0.3482 -0.0473
 3015TIP3    H130460   3.539   1.120  13.913  0.9559 -1.3782 -0.1518
 3015TIP3    H230461   3.582   1.118  14.058  0.0049 -1.0423  0.1397
 3016TIP3   OH230462   6.650   0.879  15.853  0.3292  0.4646 -0.1682
 3016TIP3    H130463   6.716   0.909  15.790 -2.3422  2.5090 -2.2418
 3016TIP3    H230464   6.617   0.960  15.893 -3.1091 -0.0477 -1.6411
 3017TIP3   OH230465   2.477   3.963   5.135  0.1083  0.0085  0.0453
 3017TIP3    H130466   2.481   4.030   5.067  0.9198 -2.3760 -2.4409
 3017TIP3    H230467   2.392   3.977   5.177  0.2572  2.5481 -0.3223
 3018TIP3   OH230468   2.299   5.847   0.654 -0.2964  0.2081 -0.2167
 3018TIP3    H130469   2.327   5.867   0.565  1.0008 -0.3889  0.0369
 3018TIP3    H230470   2.375   5.871   0.709  0.2855 -2.6771  0.3756
 3019TIP3   OH230471   4.965   4.660  17.027  0.3978 -0.3121  0.2125
 3019TIP3    H130472   4.954   4.634  17.118  0.3816  2.3161  1.0419
 3019TIP3    H230473   5.051   4.627  17.002  0.9344 -0.0076  1.5913
 3020TIP3   OH230474   0.976   5.718   5.819 -0.0483 -0.4043  0.1031
 3020TIP3    H130475   0.995   5.652   5.885 -1.6263 -0.8085  0.1948
 3020TIP3    H230476   0.967   5.669   5.738  0.7495 -0.0390 -0.2230
 3021TIP3   OH230477   6.531   4.263  12.610  0.3007 -0.4286 -0.1150
 3021TIP3    H130478   6.468   4.196  12.634 -0.1487 -0.1047 -0.3834
 3021TIP3    H230479   6.597   4.260  12.680  0.6482 -1.5970 -0.4626
 3022TIP3   OH230480   5.541   1.701   0.563  0.4437 -0.7618  0.2626
 3022TIP3    H130481   5.617   1.643   0.564 -0.6620 -2.2804  0.4285
 3022TIP3    H230482   5.484   1.664   0.495 -0.0492  0.4823 -0.0251
 3023TIP3   OH230483   6.710   2.487   1.499  0.0187 -0.1216 -0.5235
 3023TIP3    H130484   6.650   2.541   1.550  0.4744  0.1654 -0.2914
 3023TIP3    H230485   6.661   2.467   1.419  0.3977  1.9263 -1.3159
 3024TIP3   OH230486   0.980   5.463  16.225  0.2760  0.4455  0.5678
 3024TIP3    H130487   1.002   5.399  16.158  1.1276  0.0191  1.2291
 3024TIP3    H230488   0.944   5.411  16.297 -1.4500  0.9770  0.1261
 3025TIP3   OH230489   5.668   5.208  10.894 -0.0547 -0.4915  0.7357
 3025TIP3    H130490   5.652   5.244  10.807  0.5890 -0.3822  0.6569
 3025TIP3    H230491   5.697   5.119  10.878  0.7234 -0.2570  0.7938
 3026TIP3   OH230492   4.743   4.846  16.993  0.0132  0.2407 -0.0521
 3026TIP3    H130493   4.767   4.928  16.949 -1.3413 -0.7056 -2.7921
 3026TIP3    H230494   4.787   4.778  16.942  0.8629 -0.8322  1.9983
 3027TIP3   OH230495   3.954   0.412  15.114  0.3961 -0.6455  0.0573
 3027TIP3    H130496   3.935   0.439  15.203 -2.1459 -0.2498 -0.5156
 3027TIP3    H230497   4.015   0.338  15.123 -0.3581 -1.0707  2.1487
 3028TIP3   OH230498   1.267   0.314  15.014  0.1064  0.1096  0.0569
 3028TIP3    H130499   1.248   0.339  14.923 -0.1757  0.5056  0.2229
 3028TIP3    H230500   1.258   0.396  15.064 -0.9229 -0.3271  0.6218
 3029TIP3   OH230501   6.673   5.623  16.526  0.2601  0.1664  0.2191
 3029TIP3    H130502   6.597   5.643  16.472  0.4086 -0.9030 -0.4198
 3029TIP3    H230503   6.727   5.702  16.522 -1.9846  2.0046  2.8491
 3030TIP3   OH230504   4.601   4.417   0.025  0.4659  0.3876  0.1467
 3030TIP3    H130505   4.609   4.503  -0.017 -0.9530  1.2623  1.5306
 3030TIP3    H230506   4.530   4.373  -0.022 -0.5489  1.0306  1.0245
 3031TIP3   OH230507   3.499   6.280   0.529  0.3879  0.3144  0.4360
 3031TIP3    H130508   3.470   6.335   0.456  1.1215  1.3502  0.9000
 3031TIP3    H230509   3.438   6.206   0.530  0.3819  0.2500 -1.2555
 3032TIP3   OH230510   1.815   0.098   2.700 -0.5957 -0.0639  0.1651
 3032TIP3    H130511   1.889   0.086   2.639 -0.5764 -1.9020  0.4998
 3032TIP3    H230512   1.816   0.192   2.719  0.4867  0.2733 -1.2966
 3033TIP3   OH230513   0.215   0.738   3.066 -0.6809  0.5377 -0.5246
 3033TIP3    H130514   0.123   0.711   3.077 -0.1075 -0.9566  0.9412
 3033TIP3    H230515   0.262   0.657   3.047  0.5961  1.0137  0.4726
 3034TIP3   OH230516   2.177   6.204  15.145  0.3728  0.6585  0.1477
 3034TIP3    H130517   2.263   6.191  15.186  0.1343  1.9179  1.1134
 3034TIP3    H230518   2.179   6.294  15.113 -0.2832  0.4208 -0.5920
 3035TIP3   OH230519   0.974   1.977   3.315 -0.3693  0.1332  0.3564
 3035TIP3    H130520   0.925   1.996   3.395 -0.1534  1.0250  0.2865
 3035TIP3    H230521   0.908   1.980   3.246 -0.4652 -0.1193  0.4353
 3036TIP3   OH230522   1.309   3.371  12.998 -0.4014  0.1149 -0.1187
 3036TIP3    H130523   1.269   3.335  13.078  0.1808 -0.9417 -0.2886
 3036TIP3    H230524   1.363   3.443  13.030  1.4058 -1.5400  0.7305
 3037TIP3   OH230525   1.547   4.830   0.641  0.1796  0.1188 -0.2363
 3037TIP3    H130526   1.552   4.923   0.620  0.0202 -0.4428 -3.2295
 3037TIP3    H230527   1.599   4.787   0.573 -0.3200 -2.0594  0.6443
 3038TIP3   OH230528   4.076   6.070   6.370 -0.3857 -0.3161  0.1196
 3038TIP3    H130529   4.104   5.982   6.394  0.5914 -0.5360 -1.6567
 3038TIP3    H230530   3.996   6.057   6.319 -0.5731 -0.1257  0.3631
 3039TIP3   OH230531   3.497   2.191   2.045 -0.4427 -0.2642 -0.3212
 3039TIP3    H130532   3.550   2.113   2.028  0.7650  0.7094 -1.2475
 3039TIP3    H230533   3.427   2.160   2.102  0.6131 -1.8051  0.2297
 3040TIP3   OH230534   4.014   2.182  12.580  0.0333  0.2902  0.2376
 3040TIP3    H130535   3.951   2.117  12.549  1.7322 -1.5911  0.4545
 3040TIP3    H230536   4.099   2.148  12.552  1.1731  1.3383  2.1629
 3041TIP3   OH230537   4.220   4.911   1.312 -0.4248  0.1780  0.3190
 3041TIP3    H130538   4.267   4.851   1.369  0.8477 -0.2779 -1.1483
 3041TIP3    H230539   4.162   4.855   1.260  0.9588  0.1211 -1.2435
 3042TIP3   OH230540   4.587   6.119  12.673 -0.1094  0.1189 -0.2453
 3042TIP3    H130541   4.551   6.062  12.605  1.7435 -1.9283  0.3856
 3042TIP3    H230542   4.680   6.125  12.653  0.8171 -1.7724  2.7941
 3043TIP3   OH230543   5.148   1.938  13.518 -0.2690  0.1459  0.0169
 3043TIP3    H130544   5.114   2.009  13.572 -1.3670 -2.2137  2.7062
 3043TIP3    H230545   5.075   1.876  13.511  1.0188 -1.3383 -1.0550
 3044TIP3   OH230546   2.256   1.888  15.652 -0.6697  0.0800 -0.6934
 3044TIP3    H130547   2.205   1.827  15.706 -0.1496  0.8561  0.7417
 3044TIP3    H230548   2.326   1.835  15.615 -0.1607 -0.2054  0.6250
 3045TIP3   OH230549   0.918   0.064  11.666  0.3666  0.1298  0.4827
 3045TIP3    H130550   0.845   0.049  11.726 -0.3135  1.0267 -0.0850
 3045TIP3    H230551   0.886   0.132  11.607  1.1556 -0.4764 -0.6665
 3046TIP3   OH230552   3.748   4.629  15.508  0.0171  0.6264  0.2535
 3046TIP3    H130553   3.761   4.640  15.413  1.0321 -2.1692 -0.0224
 3046TIP3    H230554   3.658   4.599  15.517 -0.0692  0.8613  0.1923
 3047TIP3   OH230555   2.263   3.313  14.422  0.0102 -0.1891 -0.0475
 3047TIP3    H130556   2.254   3.220  14.444  0.0966 -0.5597 -1.5098
 3047TIP3    H230557   2.217   3.323  14.339 -1.0207  1.3413  0.6645
 3048TIP3   OH230558   2.923   1.940   2.855  0.2281 -0.2922 -0.0911
 3048TIP3    H130559   3.008   1.907   2.825 -0.7340 -1.2093 -1.9820
 3048TIP3    H230560   2.920   1.916   2.947  2.0761 -0.0914  0.0700
 3049TIP3   OH230561   0.888   3.286   3.506 -0.2047  0.0477  0.4878
 3049TIP3    H130562   0.970   3.336   3.512 -1.1051  1.9419 -1.6431
 3049TIP3    H230563   0.912   3.205   3.461  0.5530  0.4959  0.0580
 3050TIP3   OH230564   4.293   5.715   2.703 -0.1410 -0.2090  0.1398
 3050TIP3    H130565   4.252   5.684   2.623  0.5861  0.1642 -0.3958
 3050TIP3    H230566   4.337   5.796   2.677 -1.0994  0.7067  1.2454
 3051TIP3   OH230567   0.296   4.870   4.984 -0.0572  0.0167 -0.3753
 3051TIP3    H130568   0.291   4.906   5.073  1.6240  0.8982 -0.5980
 3051TIP3    H230569   0.338   4.785   4.995 -0.4557 -0.1712 -0.2722
 3052TIP3   OH230570   4.440   6.644   3.771  0.3083  0.0370 -0.1680
 3052TIP3    H130571   4.504   6.683   3.711 -0.0673  0.3118 -0.3989
 3052TIP3    H230572   4.358   6.690   3.751  0.2477  0.3519  0.7752
 3053TIP3   OH230573   3.292   1.029  13.749 -0.3382  0.4442 -0.2964
 3053TIP3    H130574   3.294   0.934  13.752  1.5086  0.3707 -1.9014
 3053TIP3    H230575   3.234   1.050  13.676 -0.2876  0.5333 -0.3118
 3054TIP3   OH230576   6.374   4.166  14.899  0.5087 -0.1771  0.4646
 3054TIP3    H130577   6.346   4.256  14.912  0.4612 -0.2274  0.7104
 3054TIP3    H230578   6.342   4.143  14.812 -0.7005 -0.4196  0.9596
 3055TIP3   OH230579   3.091   4.480   4.844 -0.4879  0.2755  0.1324
 3055TIP3    H130580   3.043   4.407   4.806  1.8802 -2.4257  1.9500
 3055TIP3    H230581   3.073   4.474   4.938  0.2659  1.6968  0.4049
 3056TIP3   OH230582   3.208   0.858  15.070 -0.1438 -0.0619  0.0189
 3056TIP3    H130583   3.232   0.938  15.116  0.7869 -0.3455  0.0519
 3056TIP3    H230584   3.292   0.818  15.047 -0.5739 -0.2220 -1.3998
 3057TIP3   OH230585   5.690   2.034   0.891  0.3919  0.2846 -0.0839
 3057TIP3    H130586   5.710   2.101   0.826 -2.0565 -0.2298 -1.4912
 3057TIP3    H230587   5.692   2.080   0.975  1.2599  1.5052 -0.7413
 3058TIP3   OH230588   2.454   3.334  16.002  0.4024 -0.6854 -0.2491
 3058TIP3    H130589   2.447   3.412  16.057 -0.5876 -1.8816  1.4114
 3058TIP3    H230590   2.507   3.362  15.928 -0.2443  1.6653  0.0933
 3059TIP3   OH230591   4.201   5.538   4.193 -0.3459 -0.2365 -0.1690
 3059TIP3    H130592   4.177   5.505   4.107 -0.7195  0.2339 -0.2488
 3059TIP3    H230593   4.118   5.543   4.241 -0.2477  0.2469 -0.0426
 3060TIP3   OH230594   1.614   6.672  16.580  0.2170 -0.7854 -0.1734
 3060TIP3    H130595   1.647   6.660  16.669 -0.8130  0.3122  0.3811
 3060TIP3    H230596   1.554   6.746  16.586  0.5298 -0.3418 -1.8892
 3061TIP3   OH230597   1.748   6.118  13.367  0.2343  0.5740  0.7146
 3061TIP3    H130598   1.675   6.081  13.319  0.1523  1.2393  0.3002
 3061TIP3    H230599   1.726   6.107  13.459  1.2079 -2.3392  0.6812
 3062TIP3   OH230600   0.119   0.296  15.066 -0.0928  0.2678  0.6178
 3062TIP3    H130601   0.097   0.367  15.006 -0.7008 -1.3333 -1.1403
 3062TIP3    H230602   0.040   0.285  15.119 -1.1016 -0.9180 -1.0401
 3063TIP3   OH230603   5.791   2.908  15.047  0.4689  0.3230 -0.1969
 3063TIP3    H130604   5.819   2.818  15.058 -3.3207 -0.8011  2.4234
 3063TIP3    H230605   5.696   2.903  15.037  0.3063  3.9523 -2.6005
 3064TIP3   OH230606   6.514   3.714   0.573  0.0772 -0.1603  0.0409
 3064TIP3    H130607   6.437   3.700   0.519  0.2579  0.0586 -0.2736
 3064TIP3    H230608   6.527   3.809   0.573  0.1306 -0.1637  0.3946
 3065TIP3   OH230609   0.994   2.617  15.263 -0.0576 -0.3494 -0.3982
 3065TIP3    H130610   1.004   2.607  15.358 -1.7552 -0.8956 -0.2355
 3065TIP3    H230611   0.909   2.660  15.253  0.7626  1.0640 -1.6444
 3066TIP3   OH230612   2.257   5.345  15.170  0.1973 -0.0446 -0.2036
 3066TIP3    H130613   2.328   5.409  15.171 -0.6732  0.9434 -0.5852
 3066TIP3    H230614   2.285   5.279  15.106  0.2536  0.9548 -1.2394
 3067TIP3   OH230615   5.548   4.908  16.440  0.7736 -0.7295 -0.0288
 3067TIP3    H130616   5.493   4.915  16.518  1.9133  0.7725  0.6917
 3067TIP3    H230617   5.489   4.928  16.367  0.0330 -0.5967  0.5945
 3068TIP3   OH230618   2.935   3.251   0.614  0.1168  0.4688 -0.0986
 3068TIP3    H130619   3.016   3.297   0.592  0.5749 -0.0524  0.4598
 3068TIP3    H230620   2.959   3.192   0.686 -0.7630  0.3242  0.0976
 3069TIP3   OH230621   5.931   4.020   5.683 -0.4241  0.3549  0.5014
 3069TIP3    H130622   6.025   4.016   5.665  0.2756  1.5570  3.3678
 3069TIP3    H230623   5.895   3.943   5.638  1.8099  0.0980 -1.0353
 3070TIP3   OH230624   0.383   3.682  12.314 -0.3324 -0.4439 -0.2709
 3070TIP3    H130625   0.309   3.722  12.268 -0.0855 -0.1795 -0.4484
 3070TIP3    H230626   0.457   3.694  12.254  0.0162  0.0027  0.2409
 3071TIP3   OH230627   3.889   4.860  14.862  0.1061 -0.6715 -0.2882
 3071TIP3    H130628   3.806   4.868  14.910  0.1665  0.7789 -0.3959
 3071TIP3    H230629   3.956   4.869  14.929  0.2065 -1.9987 -0.1787
 3072TIP3   OH230630   1.647   2.819  11.055  0.3751 -0.4096  0.1025
 3072TIP3    H130631   1.599   2.775  10.985  0.3771  1.0666 -0.8835
 3072TIP3    H230632   1.627   2.912  11.042  1.3444 -0.0057  1.3375
 3073TIP3   OH230633   4.584   5.338   3.507 -0.0790 -0.4185  1.0272
 3073TIP3    H130634   4.647   5.273   3.476 -0.5471 -0.4172  0.0534
 3073TIP3    H230635   4.531   5.291   3.571 -2.2181 -1.8712 -1.6325
 3074TIP3   OH230636   1.732   6.067  10.707  0.2207  0.2199  0.1602
 3074TIP3    H130637   1.711   6.078  10.800 -1.9363  1.9468 -0.4374
 3074TIP3    H230638   1.712   5.976  10.688 -0.0298  0.0391  1.2241
 3075TIP3   OH230639   6.478   2.787   1.977  0.0291  0.7034 -0.3122
 3075TIP3    H130640   6.438   2.869   2.007  0.2719  0.3763  0.9805
 3075TIP3    H230641   6.496   2.739   2.058  0.5417 -0.3202 -1.0217
 3076TIP3   OH230642   4.645   2.862  12.812 -0.8281 -0.4745 -0.2612
 3076TIP3    H130643   4.685   2.777  12.795  1.3328  0.7892 -2.0771
 3076TIP3    H230644   4.598   2.884  12.731 -0.4101  0.5231 -0.2512
 3077TIP3   OH230645   2.169   4.998  13.664 -0.6552 -0.7809 -0.3488
 3077TIP3    H130646   2.135   4.952  13.587 -1.4946  0.3222 -0.6587
 3077TIP3    H230647   2.182   5.088  13.634  0.4623 -0.6685  0.3953
 3078TIP3   OH230648   5.284   1.321  11.546 -0.4455 -0.3718  0.1046
 3078TIP3    H130649   5.267   1.414  11.560  2.3857  0.7456 -2.6807
 3078TIP3    H230650   5.324   1.292  11.629 -1.5104  0.7826  1.0701
 3079TIP3   OH230651   3.088   3.193   4.216 -0.1002  0.1703 -0.6023
 3079TIP3    H130652   3.076   3.193   4.121  2.4076  0.2405 -0.9768
 3079TIP3    H230653   3.029   3.262   4.247 -2.3294 -1.0212 -1.8356
 3080TIP3   OH230654   4.434   4.859  11.589  0.2302 -0.0379  0.6526
 3080TIP3    H130655   4.511   4.836  11.537  0.3717  1.1775  0.2911
 3080TIP3    H230656   4.372   4.787  11.573  0.8766 -0.4820  0.0842
 3081TIP3   OH230657   0.754   6.177   5.196  0.1138  0.3066  0.9991
 3081TIP3    H130658   0.671   6.222   5.179  1.6017  2.8544  0.0245
 3081TIP3    H230659   0.763   6.181   5.292  0.4147  2.6325  0.9339
 3082TIP3   OH230660   3.930   1.022   6.085  0.0440 -0.0743 -0.0712
 3082TIP3    H130661   3.836   1.025   6.068 -0.2399 -3.5756  0.1009
 3082TIP3    H230662   3.938   1.042   6.179 -0.6217 -0.4780  0.0764
 3083TIP3   OH230663   3.502   1.702   2.241  0.5624 -0.4404 -0.5292
 3083TIP3    H130664   3.544   1.659   2.166 -0.0440 -0.4813 -0.8513
 3083TIP3    H230665   3.464   1.630   2.292  0.5368 -0.3754 -0.4563
 3084TIP3   OH230666   3.411   0.120  13.495  0.2818  0.0002 -0.1152
 3084TIP3    H130667   3.329   0.070  13.494 -0.8262  1.6331  1.5279
 3084TIP3    H230668   3.401   0.184  13.425 -0.0463  0.4322  0.3134
 3085TIP3   OH230669   2.303   3.235   2.341 -0.9344 -0.3420 -0.2761
 3085TIP3    H130670   2.230   3.174   2.345  1.2930 -3.2248  0.0630
 3085TIP3    H230671   2.309   3.259   2.248 -0.0935 -3.2086 -1.0910
 3086TIP3   OH230672   3.253   3.652  16.244  0.5294 -0.3670 -0.0518
 3086TIP3    H130673   3.321   3.658  16.176  0.0830  2.8920 -0.3553
 3086TIP3    H230674   3.278   3.718  16.309 -0.7739 -1.1891  1.3460
 3087TIP3   OH230675   4.993   1.004   6.043  0.6206 -0.0655 -0.3418
 3087TIP3    H130676   5.037   1.002   6.128 -1.6133  2.8657  1.0762
 3087TIP3    H230677   5.008   1.093   6.010 -1.7445  0.1265 -1.0982
 3088TIP3   OH230678   4.162   4.857  12.957  0.6298 -0.3480 -0.2225
 3088TIP3    H130679   4.067   4.846  12.964  0.3293  1.0061 -1.6183
 3088TIP3    H230680   4.183   4.929  13.015  0.4465  0.7692 -1.4967
 3089TIP3   OH230681   5.096   5.323   3.781  0.0904  0.8372 -0.2818
 3089TIP3    H130682   5.087   5.272   3.862  2.0499  0.2137 -0.3985
 3089TIP3    H230683   5.030   5.287   3.722  0.4683 -0.6087  0.1440
 3090TIP3   OH230684   6.666   3.309   4.204  0.0095 -0.3025  0.3048
 3090TIP3    H130685   6.740   3.267   4.248  1.0992  1.2423  0.0473
 3090TIP3    H230686   6.624   3.362   4.272  0.6983  0.7919 -0.0911
 3091TIP3   OH230687   0.214   2.383  13.968 -0.4865  0.2708 -0.1134
 3091TIP3    H130688   0.168   2.453  14.014  0.7135  0.2689  1.1393
 3091TIP3    H230689   0.306   2.395  13.992 -0.1216 -1.1017 -0.7279
 3092TIP3   OH230690   1.695   2.848  12.575  0.7096  0.5683  0.5773
 3092TIP3    H130691   1.635   2.918  12.601  0.5026  1.0111 -0.9850
 3092TIP3    H230692   1.707   2.795  12.654  0.8008  2.3073  1.7717
 3093TIP3   OH230693   4.599   4.990   5.041  0.4178 -0.3485  0.1808
 3093TIP3    H130694   4.618   4.953   4.955  1.6130 -1.0702  0.7261
 3093TIP3    H230695   4.604   4.915   5.100 -0.9961  0.0259  0.8168
 3094TIP3   OH230696   5.833   5.387   6.454  0.1661 -0.3212 -0.2255
 3094TIP3    H130697   5.901   5.410   6.517 -0.8944 -0.5595  1.0785
 3094TIP3    H230698   5.771   5.460   6.458 -1.0169 -1.3135  0.6871
 3095TIP3   OH230699   5.909   3.767  13.888 -0.2975  0.2530  0.1008
 3095TIP3    H130700   5.929   3.750  13.980 -0.7690  0.3591  0.2250
 3095TIP3    H230701   5.944   3.691  13.841  1.3712  0.9401  0.1881
 3096TIP3   OH230702   3.345   1.172   1.632  0.1427  0.3753 -0.2556
 3096TIP3    H130703   3.295   1.234   1.685 -1.8530  0.1181 -1.7416
 3096TIP3    H230704   3.430   1.215   1.620 -0.1878  1.5021  1.1230
 3097TIP3   OH230705   5.186   5.220  11.671 -0.1738 -0.2726 -0.1629
 3097TIP3    H130706   5.212   5.228  11.763  1.1563  0.4207 -0.5714
 3097TIP3    H230707   5.242   5.150  11.637 -0.1423 -0.0207 -0.6276
 3098TIP3   OH230708   4.341   0.292   3.834  0.1840 -0.0510 -0.7003
 3098TIP3    H130709   4.327   0.210   3.881  1.7697 -0.2971 -0.5953
 3098TIP3    H230710   4.430   0.285   3.800 -0.0212  1.2033 -1.5715
 3099TIP3   OH230711   5.776   1.649  15.137  0.3169  1.0052 -0.0093
 3099TIP3    H130712   5.845   1.585  15.122  0.0455  0.2190  1.8117
 3099TIP3    H230713   5.806   1.699  15.213 -0.9257  0.8895  0.5886
 3100TIP3   OH230714   3.695   2.432   3.964  0.1785 -0.0297  0.1749
 3100TIP3    H130715   3.613   2.413   3.918  0.9449 -3.3752 -0.0801
 3100TIP3    H230716   3.668   2.483   4.040 -1.8829  0.5769 -0.8888
 3101TIP3   OH230717   0.615   6.424  15.996  0.4267 -0.0493 -0.4030
 3101TIP3    H130718   0.694   6.466  15.961  0.4629 -0.4918 -0.8715
 3101TIP3    H230719   0.644   6.335  16.019  0.2344  0.0159  0.0994
 3102TIP3   OH230720   3.629   4.824   3.721 -0.4091  0.4088  0.1813
 3102TIP3    H130721   3.684   4.778   3.785  0.3207  0.5472 -0.3224
 3102TIP3    H230722   3.595   4.755   3.664  2.5092  0.5411 -1.9867
 3103TIP3   OH230723   4.495   6.241   0.702 -0.2909 -0.0914 -0.0843
 3103TIP3    H130724   4.583   6.272   0.724  0.8643 -2.1313 -1.4792
 3103TIP3    H230725   4.438   6.289   0.762  1.6937  1.6257  0.5919
 3104TIP3   OH230726   2.060   4.492   6.115  0.1859  0.0814  0.0101
 3104TIP3    H130727   2.105   4.408   6.126  0.4045  0.1376 -0.4110
 3104TIP3    H230728   2.050   4.526   6.204 -2.2332 -1.5667  0.4564
 3105TIP3   OH230729   1.243   4.277   4.707 -0.2338 -0.0059  0.0956
 3105TIP3    H130730   1.241   4.303   4.799 -2.2655  2.9182 -0.6277
 3105TIP3    H230731   1.181   4.203   4.702  1.3885 -1.5440  1.2962
 3106TIP3   OH230732   4.315   2.135  13.482 -0.0341  0.3974 -0.6613
 3106TIP3    H130733   4.261   2.175  13.414  1.1144  2.5274 -0.4040
 3106TIP3    H230734   4.405   2.159  13.459  0.6543 -1.3623  0.0062
 3107TIP3   OH230735   4.743   1.871  10.912  0.6942 -0.1659 -0.8971
 3107TIP3    H130736   4.689   1.823  10.849  0.3037  0.4626 -1.0497
 3107TIP3    H230737   4.791   1.935  10.859 -2.7148  3.3020 -0.2478
 3108TIP3   OH230738   3.533   3.214  11.845  0.4449  0.3878 -0.0272
 3108TIP3    H130739   3.594   3.281  11.875  0.5521  0.4605 -0.4104
 3108TIP3    H230740   3.447   3.255  11.854  0.5403  0.7409 -0.6878
 3109TIP3   OH230741   3.163   4.000   3.908 -0.5167  0.2267 -0.2523
 3109TIP3    H130742   3.246   4.007   3.860 -0.3013 -1.1071 -0.1049
 3109TIP3    H230743   3.184   4.030   3.996 -0.4250  0.7393 -0.4404
 3110TIP3   OH230744   2.832   3.158   4.494 -0.3668 -0.8424  0.4119
 3110TIP3    H130745   2.835   3.244   4.453  0.6758 -1.7458 -1.5225
 3110TIP3    H230746   2.923   3.139   4.516 -0.2054 -2.3926 -1.3506
 3111TIP3   OH230747   3.166   2.713   5.651  0.0574  0.4525 -0.4061
 3111TIP3    H130748   3.117   2.645   5.604 -1.8953  1.6815 -0.2467
 3111TIP3    H230749   3.224   2.664   5.710 -0.5239 -1.0628 -1.0320
 3112TIP3   OH230750   5.061   0.549   3.762  0.7268  0.6652  0.3452
 3112TIP3    H130751   5.062   0.642   3.783  1.9937  0.6397  0.4422
 3112TIP3    H230752   4.977   0.518   3.797  0.4791  1.6804  0.6843
 3113TIP3   OH230753   2.594   6.215   0.361 -0.3259 -0.0804 -0.0337
 3113TIP3    H130754   2.512   6.257   0.337  0.4031  1.6564  0.3718
 3113TIP3    H230755   2.645   6.214   0.279  0.6092  2.1843  0.4469
 3114TIP3   OH230756   3.405   1.953   5.897 -0.4859  0.2703 -0.5552
 3114TIP3    H130757   3.497   1.931   5.908 -0.6795 -1.6128 -2.0694
 3114TIP3    H230758   3.395   1.973   5.804 -1.7632 -0.5859 -0.6308
 3115TIP3   OH230759   5.270   6.670  12.976  0.2948  0.1386  0.3184
 3115TIP3    H130760   5.305   6.612  13.045 -1.4351 -0.8964  0.3843
 3115TIP3    H230761   5.177   6.679  12.998  0.2103  1.6969 -0.5932
 3116TIP3   OH230762   6.397   5.592  13.989  0.2088  0.0470 -0.4737
 3116TIP3    H130763   6.362   5.593  14.078 -0.2362  1.1313 -0.6492
 3116TIP3    H230764   6.370   5.507  13.954 -0.9616  0.2412 -0.0941
 3117TIP3   OH230765   2.102   2.676  16.826 -0.3908  0.0247  0.0581
 3117TIP3    H130766   2.025   2.620  16.817  0.5528 -1.4396  0.7548
 3117TIP3    H230767   2.168   2.621  16.868  0.8750  1.4038 -0.0116
 3118TIP3   OH230768   2.268   3.446   1.391 -0.0437 -0.2164  0.6595
 3118TIP3    H130769   2.338   3.488   1.440  0.5772 -0.6841  0.1889
 3118TIP3    H230770   2.310   3.372   1.347 -0.5794  0.1830 -0.5696
 3119TIP3   OH230771   6.494   2.759   0.994  0.3369 -0.0166  0.1822
 3119TIP3    H130772   6.453   2.675   0.971  1.5354 -0.4770 -0.3764
 3119TIP3    H230773   6.540   2.742   1.076  1.4808 -0.2355 -0.4826
 3120TIP3   OH230774   3.482   1.517   0.684  0.4431  0.4111  0.0842
 3120TIP3    H130775   3.487   1.462   0.606  1.9047 -0.6779  0.9030
 3120TIP3    H230776   3.488   1.456   0.758  1.7497  1.5980  1.0182
 3121TIP3   OH230777   1.782   2.035   3.242  0.1991  0.2610  0.2410
 3121TIP3    H130778   1.720   2.011   3.173  0.3247  0.7990 -0.0623
 3121TIP3    H230779   1.867   2.008   3.209  0.2313  0.2967  0.2948
 3122TIP3   OH230780   0.258   2.786   3.302 -0.3031  0.3261 -0.2304
 3122TIP3    H130781   0.232   2.709   3.251 -2.2088  1.2989 -0.8558
 3122TIP3    H230782   0.328   2.755   3.359 -1.4978 -2.0616  0.0722
 3123TIP3   OH230783   1.412   4.551   5.678  0.3245  0.0041  0.1564
 3123TIP3    H130784   1.334   4.526   5.728 -0.7306  0.0260 -1.4108
 3123TIP3    H230785   1.377   4.590   5.598  1.8204 -3.1503 -2.2579
 3124TIP3   OH230786   6.230   6.616   2.068  0.0503  0.1252  0.1039
 3124TIP3    H130787   6.303   6.576   2.116 -1.3451 -0.6987  1.6673
 3124TIP3    H230788   6.179   6.660   2.135 -1.8595 -0.8503 -0.6358
 3125TIP3   OH230789   5.149   4.900   1.002  0.1120  0.0522 -0.9462
 3125TIP3    H130790   5.177   4.809   1.001  0.1167  0.0567 -1.2315
 3125TIP3    H230791   5.227   4.949   0.974  0.1997  0.1678 -0.5022
 3126TIP3   OH230792   5.571   3.400   4.591  0.0145 -0.0488  0.2087
 3126TIP3    H130793   5.641   3.347   4.628  0.1189  0.8009  1.2865
 3126TIP3    H230794   5.616   3.463   4.535 -0.2001 -1.8912 -2.2233
 3127TIP3   OH230795   6.271   3.804  14.656 -0.2616  0.5076 -0.4375
 3127TIP3    H130796   6.316   3.790  14.739 -0.8761  0.8552 -0.0409
 3127TIP3    H230797   6.277   3.720  14.611 -0.1375  0.2466  0.0587
 3128TIP3   OH230798   3.273   2.303  13.976  0.2834  0.2426 -0.0536
 3128TIP3    H130799   3.249   2.351  14.055 -1.5729 -0.0491 -0.3908
 3128TIP3    H230800   3.291   2.214  14.007 -1.7652 -0.2226 -0.0639
 3129TIP3   OH230801   1.883   6.599   1.017 -0.0212 -0.5427  0.1539
 3129TIP3    H130802   1.792   6.629   1.006  0.0699 -0.3051  0.0326
 3129TIP3    H230803   1.894   6.531   0.951  0.4721  0.7660 -1.1760
 3130TIP3   OH230804   3.985   6.538  16.069  0.1431 -0.0315  0.2666
 3130TIP3    H130805   3.926   6.536  15.994  0.8750 -0.2549 -0.3136
 3130TIP3    H230806   3.932   6.506  16.142 -0.3704 -0.5033 -0.3002
 3131TIP3   OH230807   3.632   4.139  14.922 -0.1490 -0.0128 -0.4168
 3131TIP3    H130808   3.719   4.124  14.885 -1.3498 -2.8198 -2.4028
 3131TIP3    H230809   3.581   4.176  14.850 -0.8819  0.7034  0.4464
 3132TIP3   OH230810   3.207   2.785   1.564 -0.3804 -0.2241  0.1541
 3132TIP3    H130811   3.287   2.757   1.521 -1.8301 -1.5162 -1.8889
 3132TIP3    H230812   3.222   2.877   1.586  2.4137 -0.9549  1.8748
 3133TIP3   OH230813   1.446   5.721  16.871  0.6360  0.5069  0.4338
 3133TIP3    H130814   1.416   5.656  16.807  0.1894  2.4402 -1.4487
 3133TIP3    H230815   1.393   5.705  16.949 -1.4680  0.3592 -0.9533
 3134TIP3   OH230816   3.792   3.767   4.785 -0.3039 -0.9497  0.2721
 3134TIP3    H130817   3.876   3.812   4.774  0.0079 -1.2041  1.4333
 3134TIP3    H230818   3.784   3.755   4.880 -0.1751 -3.6796  0.0173
 3135TIP3   OH230819   1.563   5.998  12.756 -0.4465  0.3080 -0.2185
 3135TIP3    H130820   1.505   5.975  12.829 -0.1631  0.4480  0.0538
 3135TIP3    H230821   1.557   5.924  12.696 -1.0565  0.4077 -0.2835
 3136TIP3   OH230822   4.882   0.758   1.575 -0.0743  0.2722 -0.1599
 3136TIP3    H130823   4.968   0.793   1.595  0.1497 -0.8322  0.8910
 3136TIP3    H230824   4.826   0.789   1.646 -0.2061 -0.2574 -0.0293
 3137TIP3   OH230825   0.984   4.857  15.485 -0.1288 -0.3236  0.5149
 3137TIP3    H130826   1.010   4.943  15.518  1.6170 -0.2879 -0.8391
 3137TIP3    H230827   1.042   4.795  15.529  1.3487 -0.3905 -1.4124
 3138TIP3   OH230828   4.008   5.320  16.088 -0.2474 -0.2660  0.6255
 3138TIP3    H130829   4.089   5.354  16.048  0.6505 -0.9966  1.7619
 3138TIP3    H230830   4.016   5.344  16.181 -0.7504 -1.4242  0.9788
 3139TIP3   OH230831   0.150   2.470  13.155 -0.0701  0.3921 -0.5582
 3139TIP3    H130832   0.135   2.551  13.204 -2.1465 -0.8995  1.1499
 3139TIP3    H230833   0.185   2.409  13.220 -1.8864 -1.0731 -0.8823
 3140TIP3   OH230834   1.603   4.955   2.851 -0.0358  0.2525 -0.2519
 3140TIP3    H130835   1.546   5.020   2.893  0.6099 -0.1837  1.4062
 3140TIP3    H230836   1.544   4.896   2.806 -1.2582 -1.5897  3.3551
 3141TIP3   OH230837   4.706   2.722   3.309 -0.1487 -0.2310 -0.1068
 3141TIP3    H130838   4.742   2.634   3.312  2.7331  0.8518  0.0563
 3141TIP3    H230839   4.776   2.775   3.272 -0.9697  2.3701  1.7795
 3142TIP3   OH230840   0.507   1.614   2.437  0.0835 -0.5829 -0.2182
 3142TIP3    H130841   0.538   1.638   2.350 -1.0399  0.1733 -0.4432
 3142TIP3    H230842   0.540   1.526   2.452  1.2582 -0.2840 -0.9241
 3143TIP3   OH230843   6.562   5.582   4.315  0.6122 -0.2776 -0.2697
 3143TIP3    H130844   6.607   5.653   4.359  0.4085 -0.4094  0.1602
 3143TIP3    H230845   6.488   5.561   4.372  0.6558 -0.8178 -0.3971
 3144TIP3   OH230846   3.925   1.311  15.807  0.9564  0.9172 -0.3587
 3144TIP3    H130847   3.836   1.335  15.831  0.7839  0.6296 -0.7075
 3144TIP3    H230848   3.975   1.392  15.815  0.3973  1.3812 -1.4273
 3145TIP3   OH230849   6.696   0.683   1.043  0.1283 -0.1027 -0.0956
 3145TIP3    H130850   6.763   0.626   1.080 -0.5083 -0.9775 -0.2560
 3145TIP3    H230851   6.669   0.639   0.963  0.3826  0.9761 -0.8014
 3146TIP3   OH230852   2.893   2.018   3.424 -0.1040 -0.0551 -0.4539
 3146TIP3    H130853   2.821   2.024   3.362  0.5957 -1.3454 -1.4326
 3146TIP3    H230854   2.935   1.934   3.404  0.3777 -0.3279  1.5101
 3147TIP3   OH230855   1.900   3.337   5.682 -0.1339  0.3701 -0.5464
 3147TIP3    H130856   1.978   3.366   5.729 -0.9760 -0.0364  1.1852
 3147TIP3    H230857   1.890   3.401   5.611  1.9367  0.2290 -1.0279
 3148TIP3   OH230858   2.442   2.598   1.477  0.6124  0.0710  0.2813
 3148TIP3    H130859   2.399   2.676   1.512  1.8015 -0.0289  2.1358
 3148TIP3    H230860   2.372   2.534   1.466 -0.0009  0.5459  1.2957
 3149TIP3   OH230861   2.415   5.119   2.126  0.2657 -0.2795 -0.3935
 3149TIP3    H130862   2.442   5.181   2.193 -0.8508  0.4585 -0.6029
 3149TIP3    H230863   2.379   5.045   2.174  1.8923 -0.9430 -0.1332
 3150TIP3   OH230864   1.438   3.885  14.228 -0.1887 -0.1684 -0.0648
 3150TIP3    H130865   1.386   3.851  14.155 -0.4278 -0.5161  0.2622
 3150TIP3    H230866   1.458   3.808  14.281 -0.7309  0.1937  0.6862
 3151TIP3   OH230867   4.330   3.806  10.868 -0.3107 -0.3786  0.5172
 3151TIP3    H130868   4.315   3.866  10.795  2.1378 -1.0918 -0.6988
 3151TIP3    H230869   4.402   3.846  10.917  0.2662 -1.4925  0.6220
 3152TIP3   OH230870   2.491   0.980  13.769 -0.3823  0.7555 -0.3149
 3152TIP3    H130871   2.518   1.033  13.844 -0.0870 -0.0197  0.1378
 3152TIP3    H230872   2.552   0.906  13.769 -0.9085  0.3139 -0.8208
 3153TIP3   OH230873   0.143   1.449   4.509  0.0454  0.5868 -0.2065
 3153TIP3    H130874   0.144   1.385   4.437  1.9078  1.6893 -1.2157
 3153TIP3    H230875   0.228   1.439   4.551 -0.3134  1.2554  0.7056
 3154TIP3   OH230876   3.809   0.313  16.253  0.1154  0.5687 -0.3258
 3154TIP3    H130877   3.759   0.355  16.183  1.9448 -0.2977 -2.2443
 3154TIP3    H230878   3.896   0.350  16.247  0.2667  0.7043  1.7611
 3155TIP3   OH230879   6.777   4.399  14.974  0.4179  0.0722 -0.0041
 3155TIP3    H130880   6.730   4.387  15.057  1.0328  0.1796  0.3669
 3155TIP3    H230881   6.829   4.319  14.965 -0.4507 -0.4256 -0.8360
 3156TIP3   OH230882   1.376   4.284   0.600  0.1010  0.1501 -0.1047
 3156TIP3    H130883   1.456   4.330   0.574 -0.6030  0.8552 -1.0473
 3156TIP3    H230884   1.322   4.283   0.522 -0.5454 -0.9359  0.3340
 3157TIP3   OH230885   1.464   0.709   5.782  0.2808  0.1360 -0.0985
 3157TIP3    H130886   1.451   0.640   5.847  1.0705 -0.0405 -0.1079
 3157TIP3    H230887   1.388   0.766   5.790 -0.3468 -0.6953 -0.0346
 3158TIP3   OH230888   1.187   1.843  13.552 -0.0793 -0.3645 -0.0186
 3158TIP3    H130889   1.246   1.788  13.603  0.8380 -1.7218 -2.3959
 3158TIP3    H230890   1.222   1.931  13.560  0.7542 -0.7508  0.6641
 3159TIP3   OH230891   2.006   1.717   0.757 -0.1372  0.8218  0.3525
 3159TIP3    H130892   2.017   1.787   0.822  1.0741  0.0300  1.0469
 3159TIP3    H230893   2.055   1.747   0.681  0.9847  0.4369  0.9047
 3160TIP3   OH230894   4.623   0.530   0.392 -0.0110  0.1198 -0.2535
 3160TIP3    H130895   4.656   0.620   0.391  0.8681 -0.0991  2.1709
 3160TIP3    H230896   4.677   0.484   0.327  1.4578  0.7582  0.4661
 3161TIP3   OH230897   0.846   4.483  11.351  0.6237 -0.4202 -0.4880
 3161TIP3    H130898   0.758   4.473  11.316  0.7105 -2.4041 -0.2965
 3161TIP3    H230899   0.897   4.416  11.306  2.1278  0.8789 -0.7966
 3162TIP3   OH230900   4.191   3.487   5.261  0.1521 -0.1976  0.4064
 3162TIP3    H130901   4.155   3.411   5.308 -2.0230  0.0454 -0.7383
 3162TIP3    H230902   4.179   3.466   5.169  0.6168  1.0357  0.0518
 3163TIP3   OH230903   1.479   3.889   5.367  0.3861 -0.3506  0.1678
 3163TIP3    H130904   1.390   3.857   5.379  0.4544  0.3713  3.9434
 3163TIP3    H230905   1.470   3.984   5.360  0.8161 -0.3832 -1.2343
 3164TIP3   OH230906   0.778   4.280  17.196 -0.6796 -0.1635 -0.0839
 3164TIP3    H130907   0.714   4.352  17.192 -0.7345 -0.2062  0.0270
 3164TIP3    H230908   0.725   4.203  17.216 -0.8562 -0.5324 -1.8211
 3165TIP3   OH230909   0.883   5.344   2.144  0.6998 -0.1521 -0.4744
 3165TIP3    H130910   0.788   5.332   2.143  0.4210  1.7189 -0.6664
 3165TIP3    H230911   0.898   5.413   2.209  1.9738 -0.6418 -0.2094
 3166TIP3   OH230912   1.151   4.393  16.318  0.0662  0.1466  0.4721
 3166TIP3    H130913   1.074   4.407  16.374 -0.7141 -1.4263 -0.1358
 3166TIP3    H230914   1.114   4.372  16.232  1.1784 -0.4914  0.1316
 3167TIP3   OH230915   2.272   3.421  13.547  0.2153  0.6619 -0.5571
 3167TIP3    H130916   2.193   3.440  13.496 -1.9467 -0.0438  2.2372
 3167TIP3    H230917   2.299   3.506  13.584 -1.2929  0.5046  1.0634
 3168TIP3   OH230918   2.108   3.808   3.130 -0.1333 -0.4247  0.1191
 3168TIP3    H130919   2.069   3.798   3.043 -0.3303  0.4186  0.0937
 3168TIP3    H230920   2.139   3.899   3.131 -0.8934 -0.1646  1.2236
 3169TIP3   OH230921   4.868   5.254  17.180  0.5958  0.0785 -1.1344
 3169TIP3    H130922   4.784   5.238  17.137  0.4957  1.2886 -1.4014
 3169TIP3    H230923   4.879   5.178  17.238 -0.9471  0.1792 -0.6735
 3170TIP3   OH230924   0.652   0.835  14.619 -1.1608 -0.0164 -0.7635
 3170TIP3    H130925   0.709   0.768  14.581  1.2122  0.7747  1.1774
 3170TIP3    H230926   0.661   0.910  14.560  1.7654  0.8816  0.6183
 3171TIP3   OH230927   4.676   4.860   4.818 -0.6939 -0.4250 -0.2144
 3171TIP3    H130928   4.599   4.818   4.781 -2.5092  3.0261 -0.8207
 3171TIP3    H230929   4.716   4.907   4.744  0.8192 -0.4875  0.5135
 3172TIP3   OH230930   0.931   3.311  11.040 -0.1590  0.7720 -0.4317
 3172TIP3    H130931   0.982   3.301  10.960 -0.3894 -1.5952 -0.3386
 3172TIP3    H230932   0.857   3.252  11.030  0.4389 -0.5278  1.9730
 3173TIP3   OH230933   5.005   3.140  15.870 -0.0094  0.0240 -0.4459
 3173TIP3    H130934   5.098   3.160  15.859  0.6555 -2.4134  0.1414
 3173TIP3    H230935   4.991   3.063  15.815 -1.8426  0.6173 -0.8976
 3174TIP3   OH230936   0.737   1.771  14.773  0.1536 -0.2926  0.5920
 3174TIP3    H130937   0.678   1.847  14.773  2.1274  1.4096 -1.7530
 3174TIP3    H230938   0.736   1.740  14.682  1.9613 -0.9219  0.7487
 3175TIP3   OH230939   3.943   5.213   1.825  0.8892 -0.1948  0.7046
 3175TIP3    H130940   3.939   5.258   1.740 -0.7734 -1.1694  0.2266
 3175TIP3    H230941   4.036   5.213   1.847  1.6020 -1.1446 -1.8380
 3176TIP3   OH230942   5.280   6.702   1.916  0.1001  0.1414  0.0557
 3176TIP3    H130943   5.347   6.764   1.891 -0.6977  0.6954 -0.7849
 3176TIP3    H230944   5.303   6.675   2.005  0.7926  1.1724  0.1969
 3177TIP3   OH230945   0.720   0.948  12.167 -0.5243 -0.3680 -0.1430
 3177TIP3    H130946   0.774   0.963  12.244  0.8217  1.4088 -1.3235
 3177TIP3    H230947   0.631   0.943  12.200 -0.2284  2.4430  1.3958
 3178TIP3   OH230948   3.912   5.838   0.385 -0.1887  0.3135  0.5209
 3178TIP3    H130949   3.945   5.823   0.474  1.4555 -0.2980 -0.1670
 3178TIP3    H230950   3.920   5.753   0.342 -0.5066  0.7216 -0.3673
 3179TIP3   OH230951   6.731   4.474  17.198 -0.0367 -0.0655  0.1497
 3179TIP3    H130952   6.798   4.411  17.172 -0.8280 -0.6096 -0.6670
 3179TIP3    H230953   6.779   4.548  17.234  0.9156 -1.3983  1.7843
 3180TIP3   OH230954   6.659   5.524  14.978 -0.0978 -0.4798  0.2030
 3180TIP3    H130955   6.743   5.485  14.952 -0.2480 -3.2079  3.1428
 3180TIP3    H230956   6.672   5.548  15.070 -1.7206  1.8143 -0.0891
 3181TIP3   OH230957   3.727   2.701  10.914  0.4940  0.4199 -0.2440
 3181TIP3    H130958   3.792   2.637  10.888  1.6761  1.6554 -0.4224
 3181TIP3    H230959   3.651   2.683  10.857  0.3426 -1.5258  0.5098
 3182TIP3   OH230960   2.409   4.711   5.239 -0.3542  0.3380  0.2990
 3182TIP3    H130961   2.355   4.746   5.310 -1.1522 -1.0279  0.3974
 3182TIP3    H230962   2.497   4.744   5.258 -0.8149  1.1664  1.1067
 3183TIP3   OH230963   3.363   2.511   0.176 -0.4213  0.1684 -0.7584
 3183TIP3    H130964   3.364   2.524   0.081  0.8650 -0.8785 -0.9068
 3183TIP3    H230965   3.364   2.416   0.188 -1.9709  0.2419  0.3219
 3184TIP3   OH230966   4.831   0.576  16.149 -0.3435 -0.3830 -0.7940
 3184TIP3    H130967   4.836   0.634  16.225  1.0151 -0.8648 -0.4894
 3184TIP3    H230968   4.877   0.623  16.079  0.3449 -0.8778 -0.6807
 3185TIP3   OH230969   3.242   2.690   3.418  0.0123 -0.7101 -0.0698
 3185TIP3    H130970   3.173   2.756   3.408 -1.1609 -1.6717  1.3195
 3185TIP3    H230971   3.294   2.721   3.492  2.3143  0.9816 -2.2197
 3186TIP3   OH230972   1.113   5.355  11.042  0.5365  0.6880 -0.4816
 3186TIP3    H130973   1.198   5.314  11.031 -0.5587 -1.4731 -1.4580
 3186TIP3    H230974   1.069   5.342  10.958 -1.6390 -0.4823  0.7579
 3187TIP3   OH230975   5.452   5.708   3.447 -0.1143 -0.3039  0.1809
 3187TIP3    H130976   5.406   5.764   3.510 -1.4867 -2.1748  0.9257
 3187TIP3    H230977   5.526   5.672   3.496 -0.7161 -1.1178  0.5255
 3188TIP3   OH230978   2.627   4.449   3.849  0.1169 -0.6078 -0.1633
 3188TIP3    H130979   2.533   4.456   3.863  0.2671  0.1718  0.5369
 3188TIP3    H230980   2.662   4.428   3.936  0.5265 -1.6796 -0.5662
 3189TIP3   OH230981   5.752   6.089  13.552  0.0286 -0.8316  0.5433
 3189TIP3    H130982   5.765   6.140  13.472 -2.1316  1.1181  1.3340
 3189TIP3    H230983   5.695   6.017  13.525 -0.2744 -0.4737  0.2087
 3190TIP3   OH230984   5.347   0.383   5.392  0.2108  0.0315 -0.3442
 3190TIP3    H130985   5.389   0.385   5.478  2.3527 -0.6898 -1.3019
 3190TIP3    H230986   5.391   0.312   5.345  1.6165  2.5568 -3.2051
 3191TIP3   OH230987   6.678   5.886   2.562  0.0573 -0.0638 -0.1841
 3191TIP3    H130988   6.602   5.875   2.506  0.2661 -1.1095 -0.2748
 3191TIP3    H230989   6.727   5.805   2.553  1.2002  0.6067 -0.1407
 3192TIP3   OH230990   3.325   2.373  13.541  0.7427 -0.1939 -0.6945
 3192TIP3    H130991   3.290   2.295  13.497 -2.2141  0.2013  0.6903
 3192TIP3    H230992   3.263   2.442  13.520  1.7327  1.1001  0.4385
 3193TIP3   OH230993   4.330   4.871   5.465 -0.5219  0.1747 -0.3183
 3193TIP3    H130994   4.365   4.933   5.528 -0.2328 -0.4172  0.1143
 3193TIP3    H230995   4.308   4.793   5.517 -1.8473  0.2814 -0.6810
 3194TIP3   OH230996   2.698   2.594  11.505 -0.0069 -0.1288  0.1715
 3194TIP3    H130997   2.793   2.583  11.503  0.1773  1.0222 -2.9292
 3194TIP3    H230998   2.664   2.523  11.451 -0.9755 -0.7360  1.5277
 3195TIP3   OH230999   6.040   5.804   0.083  0.6313  0.0794 -0.0770
 3195TIP3    H131000   6.109   5.864   0.111  0.9030  0.0185 -0.6044
 3195TIP3    H231001   6.011   5.838  -0.002 -0.2528  0.3214  0.3028
 3196TIP3   OH231002   3.999   2.512   4.283  0.2718 -0.2697  0.6485
 3196TIP3    H131003   4.043   2.589   4.248 -1.3521  1.4951  2.2061
 3196TIP3    H231004   4.053   2.485   4.357  0.2193  0.1778  0.8588
 3197TIP3   OH231005   3.208   6.666  11.542 -0.3207  0.1752 -0.4377
 3197TIP3    H131006   3.194   6.648  11.635  0.7312 -0.6867 -0.4358
 3197TIP3    H231007   3.120   6.672  11.505 -0.7419  0.2559  0.5600
 3198TIP3   OH231008   2.690   0.474  11.567 -0.2607 -0.2546  0.2680
 3198TIP3    H131009   2.697   0.509  11.478 -2.1807 -3.5718 -1.3730
 3198TIP3    H231010   2.598   0.485  11.591 -0.2907 -1.5093  0.8300
 3199TIP3   OH231011   1.425   1.868   6.474  0.5483 -0.1740  0.4291
 3199TIP3    H131012   1.429   1.963   6.476 -1.3948 -0.0071 -0.8087
 3199TIP3    H231013   1.339   1.847   6.509  0.8836 -1.4778  0.5243
 3200TIP3   OH231014   2.168   2.291   1.635  0.3216 -0.7580 -0.0951
 3200TIP3    H131015   2.233   2.277   1.565  1.2047  0.9369  0.3463
 3200TIP3    H231016   2.097   2.340   1.592  1.2124  0.9618  0.3272
 3201TIP3   OH231017   0.738   3.030  15.572 -0.0544 -0.2897 -0.7329
 3201TIP3    H131018   0.678   3.042  15.646 -0.8426 -0.1534 -1.3864
 3201TIP3    H231019   0.702   3.083  15.502  0.4653 -0.7297 -1.3497
 3202TIP3   OH231020   0.698   2.568   3.093  0.1990  0.0869  0.1354
 3202TIP3    H131021   0.752   2.491   3.114  0.1486 -0.0385 -0.1814
 3202TIP3    H231022   0.760   2.641   3.092  0.2659  0.0338  0.3374
 3203TIP3   OH231023   6.029   2.974  14.157  0.0205  0.9407  0.6898
 3203TIP3    H131024   5.966   3.043  14.178 -2.4476 -0.5713 -1.1711
 3203TIP3    H231025   6.060   2.943  14.241  1.2491  4.2563  1.5981
 3204TIP3   OH231026   2.061   1.315  13.918  0.1991  0.0852  0.0021
 3204TIP3    H131027   2.128   1.355  13.863 -0.4892  1.2244 -0.0288
 3204TIP3    H231028   2.096   1.228  13.937  1.4088  0.4301 -0.5024
 3205TIP3   OH231029   5.929   4.702  12.127 -0.3300 -0.7345  0.1974
 3205TIP3    H131030   5.894   4.672  12.043  0.4411 -0.1402 -0.3563
 3205TIP3    H231031   6.017   4.734  12.106 -0.3388 -0.0532  1.1339
 3206TIP3   OH231032   4.161   4.482   2.742 -0.4015  0.6909  0.2842
 3206TIP3    H131033   4.226   4.475   2.813 -0.0296  1.0149 -0.0180
 3206TIP3    H231034   4.139   4.392   2.720 -1.9747  0.5616  2.1251
 3207TIP3   OH231035   0.617   2.350  13.443 -0.1447  0.7995 -0.3518
 3207TIP3    H131036   0.676   2.276  13.428  1.8281  2.2723 -0.3046
 3207TIP3    H231037   0.533   2.320  13.408  0.3453 -1.7382  0.3881
 3208TIP3   OH231038   6.309   1.178  15.247  0.1262  0.1594 -0.5428
 3208TIP3    H131039   6.399   1.197  15.221 -0.2695  0.2624 -1.8925
 3208TIP3    H231040   6.256   1.207  15.173 -1.1595  1.4862  0.8299
 3209TIP3   OH231041   1.944   4.447   0.357 -0.0313  0.0138 -0.4195
 3209TIP3    H131042   1.924   4.477   0.269  0.3815  1.8487  0.0770
 3209TIP3    H231043   1.991   4.520   0.397 -1.2389 -0.3066  1.7202
 3210TIP3   OH231044   4.239   0.671   0.186 -0.4218 -0.1960 -0.2115
 3210TIP3    H131045   4.273   0.596   0.235  1.9317  0.3957 -0.8122
 3210TIP3    H231046   4.171   0.707   0.242 -0.1640 -1.5597  1.0407
 3211TIP3   OH231047   2.961   6.049  12.795  0.1675  0.2947  0.0776
 3211TIP3    H131048   3.021   6.096  12.853  0.2401  0.0012  0.2422
 3211TIP3    H231049   2.919   5.983  12.851  1.2946 -0.9634 -0.4938
 3212TIP3   OH231050   5.329   6.665  14.648 -0.7368 -0.2766 -0.0585
 3212TIP3    H131051   5.337   6.755  14.680  1.2231 -0.2662 -0.4449
 3212TIP3    H231052   5.287   6.674  14.563 -0.0398  0.3473 -0.3506
 3213TIP3   OH231053   2.086   5.470  11.947  0.0217 -0.1756 -0.7432
 3213TIP3    H131054   2.104   5.380  11.918  1.0063 -1.3932  3.0060
 3213TIP3    H231055   2.017   5.460  12.013  0.6588  1.7117  0.2767
 3214TIP3   OH231056   2.514   6.198  11.097 -0.1767 -0.7809  0.7404
 3214TIP3    H131057   2.590   6.252  11.118 -1.3591  1.6544 -0.8005
 3214TIP3    H231058   2.473   6.180  11.182 -2.1459  4.5977  1.2985
 3215TIP3   OH231059   0.009   4.356   2.252 -0.3883 -0.1820 -0.0136
 3215TIP3    H131060  -0.055   4.419   2.220  0.3209  0.4948 -0.1147
 3215TIP3    H231061  -0.000   4.358   2.347 -1.3997 -1.0396 -0.0713
 3216TIP3   OH231062   4.701   0.232  14.844 -0.2292 -0.2349  0.1950
 3216TIP3    H131063   4.646   0.164  14.882  0.0013 -0.1919  0.6130
 3216TIP3    H231064   4.771   0.184  14.799 -1.5199 -0.3545 -1.8342
 3217TIP3   OH231065   5.280   2.515  14.727 -0.1758 -0.3056  0.1614
 3217TIP3    H131066   5.269   2.424  14.756  0.6844 -0.3534  0.3798
 3217TIP3    H231067   5.191   2.548  14.715 -0.5033 -1.0163  0.5909
 3218TIP3   OH231068   2.120   1.331   4.129 -0.1986  0.8690 -0.2517
 3218TIP3    H131069   2.210   1.300   4.127 -0.2207  0.5263  1.9253
 3218TIP3    H231070   2.067   1.252   4.118 -0.3333  1.2080 -2.9082
 3219TIP3   OH231071   2.575   5.790  15.172 -0.3093  0.2009  0.1655
 3219TIP3    H131072   2.489   5.747  15.172  0.1636 -0.8019  0.8410
 3219TIP3    H231073   2.576   5.842  15.252 -0.8743  1.4919 -0.6438
 3220TIP3   OH231074   0.487   5.902  15.850  0.3383 -0.2714  0.7571
 3220TIP3    H131075   0.413   5.963  15.847  0.0644 -0.6381 -0.3265
 3220TIP3    H231076   0.564   5.956  15.831 -0.3026 -0.8316 -5.1860
 3221TIP3   OH231077   4.457   2.672  15.301  0.1996 -0.6147 -0.3276
 3221TIP3    H131078   4.426   2.601  15.245  0.0325 -0.3043 -0.6318
 3221TIP3    H231079   4.545   2.692  15.269  0.5532 -1.2070  0.2595
 3222TIP3   OH231080   4.015   0.592  16.705  0.0044 -0.3165  0.4873
 3222TIP3    H131081   4.066   0.560  16.632  1.0006 -0.9476  1.4390
 3222TIP3    H231082   4.079   0.609  16.774 -1.0577 -1.2573  1.7591
 3223TIP3   OH231083   5.804   5.965   1.316  0.3307 -0.1828 -0.1984
 3223TIP3    H131084   5.890   5.931   1.341  1.7549  1.3775 -2.5644
 3223TIP3    H231085   5.798   5.947   1.222 -0.3259  2.7987 -0.8402
 3224TIP3   OH231086   0.625   1.242   2.989  0.4329  0.1024 -0.5898
 3224TIP3    H131087   0.566   1.167   2.981  2.0733 -1.1921 -1.0991
 3224TIP3    H231088   0.600   1.301   2.918 -1.1714  0.2820  0.0937
 3225TIP3   OH231089   3.412   1.848   2.454  0.2801  0.0684 -0.2264
 3225TIP3    H131090   3.400   1.789   2.379 -1.7039  0.1480 -0.0386
 3225TIP3    H231091   3.500   1.883   2.443  1.1189 -2.0736 -0.9522
 3226TIP3   OH231092   4.852   3.375   4.099 -0.2787  0.7125  0.0844
 3226TIP3    H131093   4.905   3.362   4.020  0.3931  1.6293  0.3608
 3226TIP3    H231094   4.863   3.468   4.120 -1.3041  0.7191  0.6565
 3227TIP3   OH231095   0.207   2.582   3.153  0.0658  0.2521  0.0174
 3227TIP3    H131096   0.183   2.493   3.126 -0.5163  0.7247 -1.0677
 3227TIP3    H231097   0.285   2.603   3.102 -0.6075  0.8738 -0.7808
 3228TIP3   OH231098   0.624   1.355  11.005 -0.2694  0.0832 -0.2942
 3228TIP3    H131099   0.675   1.340  10.925 -1.0130 -1.0138 -0.5785
 3228TIP3    H231100   0.534   1.334  10.980 -0.5644  0.0988  0.7408
 3229TIP3   OH231101   2.560   6.024   4.622 -0.3132 -0.1905 -0.1153
 3229TIP3    H131102   2.544   5.968   4.546 -1.4948  0.4012 -0.3227
 3229TIP3    H231103   2.508   6.103   4.606  1.1996  0.9306  0.2446
 3230TIP3   OH231104   5.956   3.389   3.010  0.3773  0.3599  0.0113
 3230TIP3    H131105   5.920   3.305   2.982  0.2845  0.3026  0.2935
 3230TIP3    H231106   5.887   3.427   3.064  0.1501  0.9253 -0.6767
 3231TIP3   OH231107   6.584   6.558  12.102  0.6168  0.0708  0.1817
 3231TIP3    H131108   6.494   6.589  12.093  0.6158 -0.2100 -0.9680
 3231TIP3    H231109   6.605   6.521  12.016  2.0976  0.8369  0.1752
 3232TIP3   OH231110   5.083   0.069   6.274 -0.3167  0.1604 -0.2113
 3232TIP3    H131111   5.168   0.113   6.285 -0.2840 -0.1192  0.7629
 3232TIP3    H231112   5.022   0.139   6.254  0.2145  0.3170 -1.3593
 3233TIP3   OH231113   1.926   1.899   0.321  0.3188  0.0200 -0.6952
 3233TIP3    H131114   1.897   1.952   0.395 -0.8706  0.6520 -1.5673
 3233TIP3    H231115   1.846   1.859   0.288  0.7526  0.1162 -1.9101
 3234TIP3   OH231116   6.438   4.364   0.454 -0.1622 -0.3865  0.2357
 3234TIP3    H131117   6.468   4.290   0.401 -1.0622 -0.6948  0.1410
 3234TIP3    H231118   6.422   4.434   0.391 -1.9848 -0.9942 -0.0367
 3235TIP3   OH231119   5.096   2.729  12.669  0.2116  0.1652  0.6057
 3235TIP3    H131120   5.131   2.670  12.736  1.8270  0.4021  0.0299
 3235TIP3    H231121   5.151   2.808  12.676 -0.5161  0.7488 -0.0736
 3236TIP3   OH231122   4.680   2.303   1.723  0.0656  1.0318 -0.3792
 3236TIP3    H131123   4.640   2.356   1.654  0.3411  0.6531 -0.8320
 3236TIP3    H231124   4.606   2.255   1.761 -0.3339  2.4177  0.6596
 3237TIP3   OH231125   4.809   0.844   3.716  0.4994 -1.1561 -0.2857
 3237TIP3    H131126   4.774   0.755   3.712 -1.8459 -0.3423  0.3145
 3237TIP3    H231127   4.731   0.899   3.728  1.9345  0.9341 -0.1483
 3238TIP3   OH231128   4.368   3.406   0.005  0.0740 -0.6708 -0.0684
 3238TIP3    H131129   4.333   3.495  -0.000 -0.6364 -0.8061  1.5774
 3238TIP3    H231130   4.323   3.358  -0.064  0.4111  0.2158 -0.9240
 3239TIP3   OH231131   4.700   4.541   0.543  0.4439  0.3390 -0.2132
 3239TIP3    H131132   4.713   4.512   0.633 -1.3962 -0.8558 -0.2701
 3239TIP3    H231133   4.656   4.468   0.500  0.3160  1.2913 -1.8028
 3240TIP3   OH231134   6.644   5.671  13.963 -0.5186 -0.0595 -0.0542
 3240TIP3    H131135   6.554   5.638  13.961 -0.5075 -0.1412  0.6048
 3240TIP3    H231136   6.642   5.743  14.026 -0.2523  0.3427 -0.5001
 3241TIP3   OH231137   2.770   0.710  14.933 -0.0435 -0.1873 -0.2457
 3241TIP3    H131138   2.856   0.746  14.957  0.4257  0.1892 -2.2896
 3241TIP3    H231139   2.752   0.746  14.847 -3.0649  1.0408  0.7691
 3242TIP3   OH231140   3.603   2.549  16.891  0.4561 -0.1745  0.0025
 3242TIP3    H131141   3.577   2.486  16.959  0.0103  1.3128  1.2536
 3242TIP3    H231142   3.641   2.622  16.939  1.1780  0.4264 -1.4383
 3243TIP3   OH231143   1.237   6.158   3.049  0.4292 -0.2505 -0.5655
 3243TIP3    H131144   1.171   6.193   2.989  0.7104  0.7119 -0.3315
 3243TIP3    H231145   1.310   6.220   3.042  0.8494 -0.6809  0.0269
 3244TIP3   OH231146   1.153   5.672  14.801 -0.4575 -0.1703 -0.2526
 3244TIP3    H131147   1.224   5.709  14.854 -0.0099 -0.1465 -0.8617
 3244TIP3    H231148   1.192   5.595  14.758 -1.1380 -0.8616  0.3329
 3245TIP3   OH231149   6.399   1.483   5.007 -0.0342  0.0243 -0.3896
 3245TIP3    H131150   6.348   1.402   5.000  0.9480 -0.7830  1.0913
 3245TIP3    H231151   6.335   1.552   5.018 -0.8706 -0.6677 -0.8039
 3246TIP3   OH231152   4.145   4.413   5.112 -0.4693 -0.5954  0.2880
 3246TIP3    H131153   4.155   4.505   5.090  1.3978 -0.8133  0.0618
 3246TIP3    H231154   4.211   4.398   5.180  2.0374 -2.5712 -2.3148
 3247TIP3   OH231155   2.124   1.133   0.919  0.3485 -0.3203  0.1657
 3247TIP3    H131156   2.084   1.153   0.834  1.0561 -0.8846 -0.3129
 3247TIP3    H231157   2.081   1.193   0.980  1.2482  1.5645 -0.9353
 3248TIP3   OH231158   1.339   3.596   6.264  0.4070  0.1198 -1.0332
 3248TIP3    H131159   1.388   3.663   6.216 -0.0009  0.8829 -0.4026
 3248TIP3    H231160   1.283   3.645   6.324 -1.7894 -0.6764 -2.3213
 3249TIP3   OH231161   3.183   2.186  13.427 -0.6258 -0.8700 -0.1680
 3249TIP3    H131162   3.192   2.091  13.433 -0.8925 -0.8649  0.3379
 3249TIP3    H231163   3.115   2.199  13.361 -2.1771 -1.0957  1.3385
 3250TIP3   OH231164   3.865   4.349  16.224 -0.0468 -0.0262  0.0396
 3250TIP3    H131165   3.922   4.274  16.239  0.9781  0.9178  1.0616
 3250TIP3    H231166   3.844   4.381  16.311  0.1857  1.3358 -0.3739
 3251TIP3   OH231167   4.999   1.012  11.644  0.0841  0.0270  0.4970
 3251TIP3    H131168   4.914   0.975  11.619  1.0826 -0.6724 -2.1753
 3251TIP3    H231169   4.998   1.100  11.607 -0.2635  0.8554  2.3652
 3252TIP3   OH231170   2.465   4.210   4.762  0.0638  0.1309 -0.2383
 3252TIP3    H131171   2.497   4.286   4.712 -0.5898  0.8077  0.3569
 3252TIP3    H231172   2.373   4.202   4.738 -0.1063  0.0994  0.3956
 3253TIP3   OH231173   2.255   1.697   1.974 -0.0296  0.5293 -0.2053
 3253TIP3    H131174   2.287   1.743   1.898  0.0740  0.0126 -0.4815
 3253TIP3    H231175   2.208   1.763   2.025 -0.7549  0.7187 -1.0924
 3254TIP3   OH231176   5.399   5.796  14.216 -0.2414  0.0066  0.2163
 3254TIP3    H131177   5.305   5.808  14.202 -0.5059  0.2294  1.8956
 3254TIP3    H231178   5.441   5.845  14.145 -1.3997  1.1664  0.2969
 3255TIP3   OH231179   4.346   5.680  14.281 -0.0835 -0.0887  0.0337
 3255TIP3    H131180   4.380   5.593  14.259  1.1336  0.3492  0.1111
 3255TIP3    H231181   4.330   5.721  14.196 -1.5284 -0.6818 -0.0183
 3256TIP3   OH231182   3.783   1.906  13.641  0.8552  0.1979  0.1483
 3256TIP3    H131183   3.810   1.982  13.692  0.2948  0.1613  0.5019
 3256TIP3    H231184   3.789   1.832  13.701  0.7016  0.0757  0.0156
 3257TIP3   OH231185   2.044   0.505  15.847 -0.3825  0.6258  0.4484
 3257TIP3    H131186   2.104   0.431  15.857  0.4450  1.2700  0.3716
 3257TIP3    H231187   1.957   0.466  15.856  0.0740  0.0047  2.8638
 3258TIP3   OH231188   4.273   0.320   0.596  0.1207 -0.0553  0.3276
 3258TIP3    H131189   4.178   0.312   0.605 -0.3526  1.9570 -1.9017
 3258TIP3    H231190   4.290   0.414   0.599  2.2430 -0.4163  1.9178
 3259TIP3   OH231191   6.339   1.315  14.519  0.1254  0.1272 -0.1789
 3259TIP3    H131192   6.246   1.337  14.519  0.1498  0.2344 -0.2597
 3259TIP3    H231193   6.352   1.266  14.600  0.1562  0.8168  0.2430
 3260TIP3   OH231194   4.144   1.569   5.241  0.2724  0.4882  0.6336
 3260TIP3    H131195   4.051   1.549   5.255  0.3668 -0.6365 -0.2067
 3260TIP3    H231196   4.145   1.660   5.213 -0.8409 -0.1490 -1.7260
 3261TIP3   OH231197   4.085   5.434  16.322  0.4596  0.5957 -0.4286
 3261TIP3    H131198   4.091   5.417  16.416  0.4875  0.0157 -0.5336
 3261TIP3    H231199   4.066   5.528  16.316  0.9655  0.7466  0.1426
 3262TIP3   OH231200   4.456   6.404  11.670  0.0577 -0.4078 -0.0087
 3262TIP3    H131201   4.551   6.398  11.659  0.0608 -2.2074  0.6733
 3262TIP3    H231202   4.421   6.402  11.580  0.5747 -2.7160 -0.2220
 3263TIP3   OH231203   4.989   3.959   5.124  0.2099  0.1921  0.2518
 3263TIP3    H131204   4.972   4.051   5.147  1.1285  0.5322 -0.3567
 3263TIP3    H231205   4.927   3.941   5.053 -0.6050  0.0482  0.9870
 3264TIP3   OH231206   3.832   0.112  13.301 -0.1581  0.1555  0.4618
 3264TIP3    H131207   3.876   0.050  13.359  0.5196  0.6054  0.4368
 3264TIP3    H231208   3.783   0.170  13.360 -1.3444 -0.7976  0.4528
 3265TIP3   OH231209   3.723   3.603   1.813  0.2748  0.1857 -0.5562
 3265TIP3    H131210   3.716   3.517   1.771 -1.1616  0.5393 -1.1084
 3265TIP3    H231211   3.795   3.646   1.767  0.8182 -0.6067 -0.4683
 3266TIP3   OH231212   0.143   1.540   5.469  0.0125  0.5465 -0.4341
 3266TIP3    H131213   0.103   1.555   5.555  2.8855 -0.3130  1.1446
 3266TIP3    H231214   0.158   1.446   5.465 -1.0864  0.3923 -2.4407
 3267TIP3   OH231215   0.222   4.460  16.792 -0.3026  0.2678 -0.3066
 3267TIP3    H131216   0.144   4.404  16.787 -1.7303  2.1763 -0.3894
 3267TIP3    H231217   0.262   4.452  16.705 -2.5000  2.0493 -1.6109
 3268TIP3   OH231218   3.622   2.074  13.858  0.0858 -0.0122  0.2634
 3268TIP3    H131219   3.618   2.000  13.918  0.7225 -1.6428 -1.6031
 3268TIP3    H231220   3.716   2.094  13.850 -0.1498  2.2915  2.1633
 3269TIP3   OH231221   3.027   0.084   1.205  0.1675  0.5445 -0.3048
 3269TIP3    H131222   2.997   0.042   1.285  1.5185  0.2291  0.0631
 3269TIP3    H231223   2.971   0.047   1.136  0.8046 -1.2877  0.1077
 3270TIP3   OH231224   4.766   2.664   5.132 -0.4591 -0.0450 -0.2473
 3270TIP3    H131225   4.731   2.738   5.083 -0.4040  0.0487 -0.1455
 3270TIP3    H231226   4.708   2.591   5.110 -0.9023  0.1815  0.1669
 3271TIP3   OH231227   5.308   0.744  12.663 -0.1836  0.1237  0.0587
 3271TIP3    H131228   5.333   0.837  12.662 -0.5241  0.2172  0.1259
 3271TIP3    H231229   5.385   0.699  12.697  0.7651  0.1605 -1.8721
 3272TIP3   OH231230   4.505   1.839  16.461  0.5472  0.5408  0.1357
 3272TIP3    H131231   4.512   1.902  16.533  0.4794  0.5199  0.1608
 3272TIP3    H231232   4.412   1.833  16.443  0.4751 -0.2096  0.7153
 3273TIP3   OH231233   5.312   6.283   2.724  0.8557  0.2099 -0.0460
 3273TIP3    H131234   5.380   6.350   2.736  0.2158  1.3611 -2.2693
 3273TIP3    H231235   5.333   6.243   2.640 -0.5631 -0.2147 -0.2202
 3274TIP3   OH231236   0.792   1.616   5.843  0.2370  0.4135 -0.1392
 3274TIP3    H131237   0.843   1.539   5.868  0.0560  1.0290  2.3468
 3274TIP3    H231238   0.716   1.581   5.797  0.1443 -0.9246  0.9765
 3275TIP3   OH231239   4.343   0.237   1.591  0.1704  0.7373 -0.2916
 3275TIP3    H131240   4.370   0.146   1.600 -1.0993  0.2575 -1.0787
 3275TIP3    H231241   4.346   0.271   1.681 -2.0172 -0.8977  0.4891
 3276TIP3   OH231242   2.184   4.755  11.393  0.1569 -0.0715  0.3719
 3276TIP3    H131243   2.227   4.818  11.335 -0.1407 -2.1784 -2.3393
 3276TIP3    H231244   2.255   4.703  11.428  0.4415  1.8701  2.9354
 3277TIP3   OH231245   6.090   3.942   4.176 -0.2079 -0.0588  0.2124
 3277TIP3    H131246   6.123   3.867   4.226 -2.5117 -1.5130 -0.3065
 3277TIP3    H231247   6.107   3.920   4.084 -0.5694  0.2067  0.0758
 3278TIP3   OH231248   1.480   2.915   3.026  0.1808 -0.6010 -0.3754
 3278TIP3    H131249   1.470   2.975   2.952  1.9744 -1.3011 -1.2398
 3278TIP3    H231250   1.420   2.843   3.007 -0.7741  0.1163 -0.1557
 3279TIP3   OH231251   0.488   5.692   4.455  0.0185 -0.3746  0.4991
 3279TIP3    H131252   0.444   5.767   4.416  1.4910  1.3163  1.9190
 3279TIP3    H231253   0.560   5.672   4.395 -1.2839 -1.7399 -0.6924
 3280TIP3   OH231254   6.755   2.304   4.823  0.2142 -0.2927  0.4589
 3280TIP3    H131255   6.782   2.265   4.906  0.6447  0.7679  0.8416
 3280TIP3    H231256   6.664   2.276   4.812  0.6429 -1.7806  0.4552
 3281TIP3   OH231257   1.197   1.045   0.765 -0.4656 -0.3396 -0.5329
 3281TIP3    H131258   1.128   1.007   0.819 -0.6598  1.0435  0.2338
 3281TIP3    H231259   1.278   1.006   0.798 -0.5620  0.6075  0.9067
 3282TIP3   OH231260   1.665   2.003  16.088  0.5476 -0.1774 -0.0554
 3282TIP3    H131261   1.686   1.910  16.083  1.2619  0.0127 -0.7641
 3282TIP3    H231262   1.693   2.029  16.175 -0.6082 -0.8386  0.5428
 3283TIP3   OH231263   1.758   2.269  14.226  0.0822  0.3205  0.1804
 3283TIP3    H131264   1.783   2.305  14.141  0.2663  0.6757  0.3819
 3283TIP3    H231265   1.838   2.275  14.279 -0.3629  1.3232  0.7806
 3284TIP3   OH231266   2.182   5.455  13.089  0.4673 -0.0481  0.1217
 3284TIP3    H131267   2.136   5.538  13.102  1.1223  0.7399 -2.1434
 3284TIP3    H231268   2.266   5.467  13.133  1.0925  1.0390 -1.3088
 3285TIP3   OH231269   2.901   5.021   1.838 -0.1471  0.5439  0.0650
 3285TIP3    H131270   2.807   5.015   1.857 -0.2087 -1.1329 -0.5560
 3285TIP3    H231271   2.938   4.940   1.874  0.7159  0.2268 -1.4487
 3286TIP3   OH231272   2.376   1.069   0.435 -0.1746 -0.2177 -0.2960
 3286TIP3    H131273   2.353   1.064   0.342 -1.3978  1.3479 -0.1186
 3286TIP3    H231274   2.301   1.113   0.476  0.0455 -1.4601  1.5560
 3287TIP3   OH231275   3.292   4.154  14.310  0.4194 -0.0149 -0.2643
 3287TIP3    H131276   3.259   4.244  14.308  1.6992  0.4837 -1.9256
 3287TIP3    H231277   3.219   4.101  14.277 -0.1620  0.4703  0.2151
 3288TIP3   OH231278   6.561   4.337  16.151 -0.1902  0.8419 -0.0565
 3288TIP3    H131279   6.563   4.319  16.057 -1.8120  2.2987 -0.4112
 3288TIP3    H231280   6.640   4.387  16.168 -0.2476  1.1978 -0.8060
 3289TIP3   OH231281   1.354   3.407  16.661  0.3556  0.3429  0.4000
 3289TIP3    H131282   1.432   3.427  16.713  0.5145  0.5867  0.0659
 3289TIP3    H231283   1.365   3.456  16.580  0.7751 -1.1398 -0.4641
 3290TIP3   OH231284   4.172   5.266   2.891  0.4600 -0.2734 -0.0101
 3290TIP3    H131285   4.083   5.260   2.857  0.1454 -1.6011  0.9522
 3290TIP3    H231286   4.227   5.276   2.813 -0.3555 -1.6556 -0.8041
 3291TIP3   OH231287   5.255   0.570   0.773 -0.0407  0.1470  0.1837
 3291TIP3    H131288   5.265   0.513   0.697 -1.5838  0.4696 -0.3076
 3291TIP3    H231289   5.160   0.579   0.784  0.0419 -1.1199  3.0935
 3292TIP3   OH231290   6.572   1.182  11.755 -0.5780  0.2864  0.0057
 3292TIP3    H131291   6.578   1.113  11.821  0.2790 -0.1419 -0.5011
 3292TIP3    H231292   6.481   1.180  11.726 -1.3961  1.5177  2.2438
 3293TIP3   OH231293   5.546   1.061   5.393  0.1545 -0.8956  0.4276
 3293TIP3    H131294   5.619   1.005   5.368  0.3537 -0.7516  0.6829
 3293TIP3    H231295   5.475   1.000   5.413 -0.3959 -1.0041 -1.5967
 3294TIP3   OH231296   2.337   2.189  14.020 -0.0843 -0.2720  0.3806
 3294TIP3    H131297   2.367   2.099  14.005  0.8463  0.3792 -2.0435
 3294TIP3    H231298   2.414   2.236  14.050 -0.4280 -0.1255  1.0584
 3295TIP3   OH231299   4.360   2.628   4.900 -0.2721  0.8755  0.2650
 3295TIP3    H131300   4.363   2.598   4.809 -0.9847  2.7244 -0.4261
 3295TIP3    H231301   4.270   2.611   4.928 -0.8274  2.6447 -0.2932
 3296TIP3   OH231302   4.549   0.593   3.927 -0.4321 -0.1329  0.0394
 3296TIP3    H131303   4.468   0.644   3.924 -1.0529 -1.0765  0.2247
 3296TIP3    H231304   4.574   0.584   3.835 -0.1640  0.7175  0.0189
 3297TIP3   OH231305   2.440   1.410  12.489  0.2229 -0.3319 -0.0416
 3297TIP3    H131306   2.486   1.421  12.406  0.3921 -0.9710 -0.0357
 3297TIP3    H231307   2.388   1.490  12.499  2.1726  0.9312  0.4963
 3298TIP3   OH231308   5.809   2.756   3.472  0.3442  0.1132  0.2707
 3298TIP3    H131309   5.835   2.722   3.557  1.8452  1.2087  0.2776
 3298TIP3    H231310   5.865   2.710   3.409  0.3984  0.5104  0.0240
 3299TIP3   OH231311   4.735   2.546  15.967  0.2236 -0.1958  0.1370
 3299TIP3    H131312   4.642   2.537  15.949  0.1480 -1.1374  0.9317
 3299TIP3    H231313   4.775   2.467  15.932  0.8320  0.4850 -0.7696
 3300TIP3   OH231314   1.652   4.766   2.406  0.0021  0.1950 -0.4675
 3300TIP3    H131315   1.633   4.685   2.454  1.6805  0.3407  0.5369
 3300TIP3    H231316   1.676   4.829   2.475 -1.5057  1.6485 -1.2066
 3301TIP3   OH231317   4.505   3.515  14.975  0.3176  0.7463 -0.2789
 3301TIP3    H131318   4.522   3.609  14.976 -0.3333  0.9577 -2.5846
 3301TIP3    H231319   4.556   3.482  14.901 -0.7400 -0.4174 -0.5282
 3302TIP3   OH231320   3.055   0.234  16.655 -0.8648  0.2828  0.0669
 3302TIP3    H131321   3.047   0.159  16.714  0.5562  0.9782  1.2032
 3302TIP3    H231322   3.148   0.241  16.637 -0.9309  1.9039  0.1826
 3303TIP3   OH231323   1.055   5.796   6.760 -0.8111  0.3120 -0.1065
 3303TIP3    H131324   1.027   5.726   6.701 -0.0731 -1.0644  1.0786
 3303TIP3    H231325   0.984   5.860   6.758 -1.3904 -0.3327 -1.4466
 3304TIP3   OH231326   0.612   1.060  17.202  0.0967  0.5014  0.4701
 3304TIP3    H131327   0.566   1.137  17.168  0.9584  0.4275 -0.9205
 3304TIP3    H231328   0.588   0.989  17.141 -0.0389 -0.1433  1.2601
 3305TIP3   OH231329   4.911   4.088   5.668 -0.3041  0.2656 -0.4277
 3305TIP3    H131330   4.871   4.105   5.753  1.1579 -0.1373  0.3789
 3305TIP3    H231331   4.917   3.992   5.664  0.7707  0.3282 -0.4281
 3306TIP3   OH231332   2.533   3.787   6.129  0.2712 -0.5353  0.1020
 3306TIP3    H131333   2.440   3.767   6.119  0.3900 -1.6692  0.9765
 3306TIP3    H231334   2.564   3.799   6.040 -0.8290  0.4995 -0.1703
 3307TIP3   OH231335   1.682   0.028  16.254 -0.2441  0.2734  0.7975
 3307TIP3    H131336   1.694   0.120  16.232  1.3288  0.2589  1.4532
 3307TIP3    H231337   1.598   0.024  16.299 -1.1408  1.0866 -0.7233
 3308TIP3   OH231338   1.987   2.363  14.848  0.8751  0.1428  0.0003
 3308TIP3    H131339   1.998   2.297  14.916  0.3248  0.7179  0.6662
 3308TIP3    H231340   2.018   2.321  14.768 -0.2069 -1.2107  0.2543
 3309TIP3   OH231341   2.627   1.785   5.655  0.4364  0.2153  0.2412
 3309TIP3    H131342   2.712   1.757   5.689 -0.0724 -0.7550  0.7710
 3309TIP3    H231343   2.569   1.781   5.731 -0.2047  0.3179 -0.2404
 3310TIP3   OH231344   4.881   6.070  10.326 -0.1855 -0.1797  0.0586
 3310TIP3    H131345   4.822   6.110  10.390 -0.0690 -0.3154  0.2542
 3310TIP3    H231346   4.853   5.979  10.322  0.8629 -0.5862  1.1759
 3311TIP3   OH231347   1.963   0.413   3.444  0.4725  0.5196  0.4446
 3311TIP3    H131348   2.046   0.397   3.489  1.2938  1.1908 -0.7746
 3311TIP3    H231349   1.897   0.401   3.512  1.5668  0.1720  1.4990
 3312TIP3   OH231350   1.533   2.555  11.484  0.2737  0.4147 -0.4880
 3312TIP3    H131351   1.586   2.478  11.504  0.5140  0.9564  1.0921
 3312TIP3    H231352   1.443   2.525  11.498  0.4282  0.8336  1.9705
 3313TIP3   OH231353   6.418   6.669  15.387 -0.5279  0.6899  0.1103
 3313TIP3    H131354   6.369   6.586  15.385  5.0391 -3.1791  1.1319
 3313TIP3    H231355   6.427   6.693  15.295 -2.0700  0.0944 -0.2317
 3314TIP3   OH231356   3.812   4.467  15.982 -0.3024 -0.4485  0.3144
 3314TIP3    H131357   3.810   4.422  16.067  0.5723 -1.4270 -0.1688
 3314TIP3    H231358   3.889   4.523  15.986 -0.9326  0.4288  0.5988
 3315TIP3   OH231359   3.040   3.504  12.725  0.5554  0.6428  0.3440
 3315TIP3    H131360   2.999   3.570  12.782  0.6926  0.0244  1.1823
 3315TIP3    H231361   2.976   3.433  12.721 -0.7040  1.7737 -2.5807
 3316TIP3   OH231362   1.247   5.707   6.298  0.1416  0.0072 -0.0524
 3316TIP3    H131363   1.240   5.627   6.350 -0.1725 -0.2220 -0.4410
 3316TIP3    H231364   1.218   5.777   6.356 -2.5579 -0.5281 -0.6540
 3317TIP3   OH231365   2.045   2.805   0.310  0.1783 -0.5382 -0.2866
 3317TIP3    H131366   2.007   2.858   0.380  1.4442 -0.8785  0.6955
 3317TIP3    H231367   2.096   2.868   0.258 -2.3152  0.1012 -2.1620
 3318TIP3   OH231368   6.336   5.866  16.935  0.2158  0.0200 -0.4622
 3318TIP3    H131369   6.348   5.819  16.853 -0.0736 -0.0156 -0.4817
 3318TIP3    H231370   6.421   5.858  16.979  0.7959  1.1557 -1.3289
 3319TIP3   OH231371   5.125   1.987  17.211  0.1403 -0.4181 -0.2685
 3319TIP3    H131372   5.216   2.014  17.198  0.7558 -2.4090 -0.4474
 3319TIP3    H231373   5.096   1.959  17.125 -0.5867 -0.0012 -0.1665
 3320TIP3   OH231374   2.335   1.820   1.741  0.2339  0.3639 -0.0335
 3320TIP3    H131375   2.353   1.741   1.690  2.0053 -0.0433  1.1412
 3320TIP3    H231376   2.268   1.867   1.690 -2.5045 -2.8570  0.2257
 3321TIP3   OH231377   3.547   3.871  13.752 -0.0994  0.7150  0.1244
 3321TIP3    H131378   3.563   3.803  13.687 -2.3533  0.3590 -0.1191
 3321TIP3    H231379   3.473   3.838  13.803 -0.3327  2.3730  0.9003
 3322TIP3   OH231380   2.090   0.039  16.446 -0.8123  0.2897 -0.6423
 3322TIP3    H131381   2.163   0.063  16.390  0.2999  1.4457  1.1902
 3322TIP3    H231382   2.019   0.097  16.420 -0.8625 -0.2963 -1.9000
 3323TIP3   OH231383   2.417   4.309   3.351  0.3074 -0.2969  0.3081
 3323TIP3    H131384   2.335   4.340   3.313  1.3475  1.2264 -0.8209
 3323TIP3    H231385   2.408   4.325   3.445 -0.6424 -0.0441  0.1863
 3324TIP3   OH231386   2.599   0.600   2.248  0.2169 -0.0924 -0.1631
 3324TIP3    H131387   2.626   0.685   2.211 -0.5435  0.4804  0.5505
 3324TIP3    H231388   2.511   0.616   2.281  0.2369 -1.0554  0.3821
 3325TIP3   OH231389   2.338   5.186   5.659  0.2730  0.8904 -0.0284
 3325TIP3    H131390   2.253   5.182   5.615  0.0209  2.6537  0.2363
 3325TIP3    H231391   2.337   5.270   5.705  2.4327  1.2711 -0.5878
 3326TIP3   OH231392   0.040   5.581  16.943 -0.3034 -0.4637  0.2969
 3326TIP3    H131393  -0.024   5.639  16.985 -0.3185  1.1087 -1.7240
 3326TIP3    H231394   0.000   5.558  16.859  1.0461 -0.8641 -0.2653
 3327TIP3   OH231395   1.216   0.796   3.396 -0.2546 -0.5371 -0.1634
 3327TIP3    H131396   1.188   0.727   3.455  0.5604 -0.3747  0.4315
 3327TIP3    H231397   1.300   0.766   3.362  1.6029  1.3642  2.3300
 3328TIP3   OH231398   4.255   3.516  16.933  0.4706  0.1231 -0.4373
 3328TIP3    H131399   4.311   3.538  17.008  1.4946 -2.7872 -0.2292
 3328TIP3    H231400   4.314   3.516  16.858 -0.0467  0.5822 -0.8559
 3329TIP3   OH231401   3.099   4.683  15.965  0.1860  0.2324  0.6643
 3329TIP3    H131402   3.154   4.744  15.916  0.5987 -0.5376  0.1368
 3329TIP3    H231403   3.153   4.604  15.974 -0.9464 -0.6728 -0.1626
 3330TIP3   OH231404   5.961   6.038  16.399 -0.4088  0.1361 -0.3487
 3330TIP3    H131405   5.915   5.957  16.421 -0.5249 -0.0264 -1.1778
 3330TIP3    H231406   5.997   6.068  16.483 -1.6852  0.0634  0.2460
 3331TIP3   OH231407   1.795   2.698   4.841  0.5008 -0.0087 -0.3821
 3331TIP3    H131408   1.702   2.707   4.862  0.6725 -0.4426  0.5807
 3331TIP3    H231409   1.798   2.625   4.778  0.0721  0.8033 -1.3738
 3332TIP3   OH231410   4.710   6.224   1.760  0.1678 -0.1837  0.0282
 3332TIP3    H131411   4.731   6.207   1.668 -1.2439 -0.3016 -0.2936
 3332TIP3    H231412   4.631   6.278   1.757  0.4804  0.3597  1.1648
 3333TIP3   OH231413   2.856   2.418  16.141 -0.8169  0.0795  0.3381
 3333TIP3    H131414   2.823   2.332  16.116 -0.9537  0.2102  0.0625
 3333TIP3    H231415   2.943   2.401  16.178  0.0160  0.0253 -1.5684
 3334TIP3   OH231416   0.670   6.577   2.223 -0.1405 -0.1436  0.9293
 3334TIP3    H131417   0.623   6.627   2.156  2.1042  0.2372 -0.4643
 3334TIP3    H231418   0.640   6.487   2.211  0.3104 -0.1119 -0.7186
 3335TIP3   OH231419   0.918   3.071   3.867  0.0301  0.0843 -0.2673
 3335TIP3    H131420   0.977   3.140   3.837  0.0513 -0.5268 -1.7018
 3335TIP3    H231421   0.903   3.016   3.790 -2.3379  0.1571  0.0454
 3336TIP3   OH231422   6.013   3.819  14.778  0.2184 -0.2088  0.8343
 3336TIP3    H131423   6.038   3.785  14.864  0.4299  0.8433  1.2049
 3336TIP3    H231424   6.088   3.799  14.722  0.0736 -0.9166  0.8911
 3337TIP3   OH231425   0.345   4.090  13.579  0.1463 -0.1397  0.3431
 3337TIP3    H131426   0.307   4.176  13.594  0.7339  0.2161 -0.1628
 3337TIP3    H231427   0.437   4.100  13.603 -0.0764 -1.0379  1.7377
 3338TIP3   OH231428   4.077   2.039   5.326 -0.7563 -0.2794 -0.2672
 3338TIP3    H131429   4.006   2.099   5.307 -1.5179 -1.0337  0.1136
 3338TIP3    H231430   4.110   2.066   5.412  0.6172  1.1721 -1.1960
 3339TIP3   OH231431   4.925   2.089   2.766  0.1352  0.3861  0.0306
 3339TIP3    H131432   4.868   2.100   2.690 -0.0429 -2.2979 -0.3022
 3339TIP3    H231433   4.961   2.001   2.756  2.2768  1.0063  1.6410
 3340TIP3   OH231434   4.872   4.282  13.574 -0.0687  0.1981  0.3505
 3340TIP3    H131435   4.965   4.263  13.578 -0.0909  0.2894  1.7567
 3340TIP3    H231436   4.830   4.196  13.579 -0.0835  0.2790  2.2621
 3341TIP3   OH231437   6.036   3.849  11.077  0.1380  0.6507  0.0960
 3341TIP3    H131438   6.038   3.885  10.989 -0.3267  0.9491  0.2021
 3341TIP3    H231439   5.964   3.895  11.120  0.3106  0.4554  0.6072
 3342TIP3   OH231440   4.244   0.522  12.980  0.0439 -0.7295  0.4015
 3342TIP3    H131441   4.197   0.503  12.900 -0.9381 -0.1936  0.8273
 3342TIP3    H231442   4.202   0.468  13.047 -0.5472  0.3669  0.9498
 3343TIP3   OH231443   0.336   5.688  11.185  0.2977  0.0334 -0.1894
 3343TIP3    H131444   0.259   5.643  11.220 -0.8855  2.1283  0.0351
 3343TIP3    H231445   0.306   5.724  11.101  1.7624 -1.1051 -1.2441
 3344TIP3   OH231446   1.271   3.128  15.594 -0.3604  0.8641 -0.1491
 3344TIP3    H131447   1.296   3.188  15.664  3.7562 -0.8348  0.0993
 3344TIP3    H231448   1.239   3.050  15.640 -0.7945  0.9384 -0.3144
 3345TIP3   OH231449   5.830   3.240   0.515  0.3764 -0.3046  0.1585
 3345TIP3    H131450   5.749   3.190   0.508 -0.0086  0.4902 -1.7887
 3345TIP3    H231451   5.844   3.251   0.609 -1.9775 -0.1440  0.5409
 3346TIP3   OH231452   5.473   5.946   2.544 -0.1494 -0.7126  0.2238
 3346TIP3    H131453   5.483   5.871   2.486 -0.2665 -1.7224  1.4613
 3346TIP3    H231454   5.382   5.973   2.533 -0.3512 -1.3044  0.4150
 3347TIP3   OH231455   5.787   1.021  13.693  0.5900  0.0467  0.3915
 3347TIP3    H131456   5.874   1.061  13.695  0.1309  1.7148 -3.6888
 3347TIP3    H231457   5.726   1.095  13.697 -0.3994 -0.4534 -2.6732
 3348TIP3   OH231458   6.438   6.268  11.819 -0.4139 -0.1937  0.8787
 3348TIP3    H131459   6.441   6.287  11.725 -4.5977 -0.5621  0.4490
 3348TIP3    H231460   6.486   6.186  11.830 -1.9135 -1.4963 -1.4800
 3349TIP3   OH231461   2.089   3.814  16.067 -0.1892 -0.0373  0.0028
 3349TIP3    H131462   2.017   3.873  16.043 -0.7963 -1.1467 -1.0607
 3349TIP3    H231463   2.049   3.751  16.127  0.1983  0.0575  0.3611
 3350TIP3   OH231464   2.467   1.834  11.083 -0.3332  0.0757 -0.0128
 3350TIP3    H131465   2.501   1.886  11.155 -1.3779  1.5858 -0.5682
 3350TIP3    H231466   2.509   1.870  11.005 -1.9970  0.9892 -0.5408
 3351TIP3   OH231467   2.423   0.397   0.755 -0.3531 -0.8655 -0.1924
 3351TIP3    H131468   2.391   0.436   0.674 -0.3601 -0.7434 -0.1320
 3351TIP3    H231469   2.363   0.431   0.822 -2.5604 -3.6608 -0.5460
 3352TIP3   OH231470   4.324   0.772   2.848 -0.6254  0.5819 -0.3902
 3352TIP3    H131471   4.263   0.698   2.848 -0.3596  0.3587 -0.8638
 3352TIP3    H231472   4.304   0.819   2.929 -0.2114 -0.5003  0.3750
 3353TIP3   OH231473   3.984   5.514   0.794 -0.5510 -0.2253  0.1825
 3353TIP3    H131474   3.955   5.520   0.885 -1.5817 -1.0398 -0.0729
 3353TIP3    H231475   4.073   5.478   0.799 -0.4661  0.0666  0.8743
 3354TIP3   OH231476   4.297   6.140   2.411  0.5691  0.4887  0.5954
 3354TIP3    H131477   4.385   6.120   2.443  0.6244  2.0842  1.5365
 3354TIP3    H231478   4.239   6.099   2.475  0.6750  1.8244  1.5981
 3355TIP3   OH231479   4.077   4.062   3.893  0.2165  0.2372  0.0818
 3355TIP3    H131480   4.028   4.120   3.952 -2.5246 -0.8153 -0.9877
 3355TIP3    H231481   4.162   4.104   3.884 -1.3854  3.7828 -0.1249
 3356TIP3   OH231482   1.659   3.922  11.529  0.2845 -0.2253  0.3080
 3356TIP3    H131483   1.630   3.963  11.447  3.1445 -0.5455 -0.9864
 3356TIP3    H231484   1.675   3.831  11.505 -1.3220 -0.9943  1.9457
 3357TIP3   OH231485   1.241   2.150   2.365  0.5668 -0.5294  0.7434
 3357TIP3    H131486   1.274   2.221   2.310 -0.6728  1.0602  1.9251
 3357TIP3    H231487   1.282   2.071   2.330 -0.2369  0.3390 -2.5166
 3358TIP3   OH231488   2.287   1.512   4.726 -0.3469 -0.1629  0.6367
 3358TIP3    H131489   2.261   1.603   4.740 -0.4979  0.0124 -0.6317
 3358TIP3    H231490   2.352   1.517   4.656 -3.3113 -1.3017 -2.4643
 3359TIP3   OH231491   1.486   0.612   6.268 -0.2778 -0.2927  0.0815
 3359TIP3    H131492   1.499   0.689   6.323 -1.6602 -0.3853  0.5835
 3359TIP3    H231493   1.401   0.627   6.226 -0.2690 -1.2496 -0.3087
 3360TIP3   OH231494   5.821   0.872  17.118  0.0522  0.1482 -0.8265
 3360TIP3    H131495   5.888   0.882  17.186 -0.8154 -1.7694  0.4127
 3360TIP3    H231496   5.769   0.952  17.123 -0.3908 -0.2077  1.3015
 3361TIP3   OH231497   2.445   2.170   3.146 -0.0679  0.3506 -0.3224
 3361TIP3    H131498   2.495   2.245   3.113 -1.3810  1.8774  0.9854
 3361TIP3    H231499   2.474   2.096   3.092  2.5348  1.4264 -0.5542
 3362TIP3   OH231500   3.771   6.606   3.226 -0.8878 -0.2803  1.0220
 3362TIP3    H131501   3.837   6.553   3.272 -1.7865  0.5561  3.4653
 3362TIP3    H231502   3.808   6.695   3.227 -1.2948 -0.1068  0.8605
 3363TIP3   OH231503   1.244   4.012  12.773 -0.3583 -0.1460 -0.2183
 3363TIP3    H131504   1.281   4.011  12.861 -0.7469  0.1026 -0.0479
 3363TIP3    H231505   1.202   3.926  12.764  0.3986 -0.4931 -0.4754
 3364TIP3   OH231506   6.094   6.141  16.178  0.0960  0.0876 -0.4354
 3364TIP3    H131507   6.051   6.104  16.255  0.4290 -1.1716 -0.8224
 3364TIP3    H231508   6.187   6.124  16.192  0.0753 -1.1939 -1.5945
 3365TIP3   OH231509   3.352   2.621  13.050 -0.4120 -0.0324  0.2611
 3365TIP3    H131510   3.398   2.656  13.127  0.8868 -0.3347 -0.3395
 3365TIP3    H231511   3.382   2.676  12.978  1.3376 -2.0063 -0.6345
 3366TIP3   OH231512   3.392   3.678   0.889  0.5604  0.4756 -0.0660
 3366TIP3    H131513   3.417   3.589   0.863 -0.9292  0.1678 -0.5378
 3366TIP3    H231514   3.447   3.735   0.836  0.5388 -0.1745 -0.8078
 3367TIP3   OH231515   4.741   0.136   0.490  0.0118  0.3328 -0.0505
 3367TIP3    H131516   4.749   0.214   0.544 -0.6321  1.9592 -2.1726
 3367TIP3    H231517   4.831   0.104   0.479  0.5327  1.9947 -0.8335
 3368TIP3   OH231518   1.456   0.989  16.746  0.6714 -0.0208 -0.1957
 3368TIP3    H131519   1.516   0.959  16.814  1.2036  0.2341 -0.5483
 3368TIP3    H231520   1.511   1.041  16.687 -0.0917  1.1249  0.0572
 3369TIP3   OH231521   3.826   5.982   0.599 -0.2941 -0.4775 -0.0815
 3369TIP3    H131522   3.797   5.943   0.518 -0.1211  0.2682 -0.5161
 3369TIP3    H231523   3.890   5.920   0.635  1.3128  0.1785 -1.6405
 3370TIP3   OH231524   0.931   5.654  13.741 -0.3931 -0.6321 -0.1997
 3370TIP3    H131525   0.893   5.734  13.705  0.8247  0.3863  0.6588
 3370TIP3    H231526   0.890   5.583  13.691 -3.2849  0.3407  0.5818
 3371TIP3   OH231527   4.127   0.565  12.465 -0.3324  0.5113 -0.3327
 3371TIP3    H131528   4.130   0.658  12.444  0.8032  0.3327 -1.0765
 3371TIP3    H231529   4.199   0.552  12.527  1.0086 -0.2269 -1.9534
 3372TIP3   OH231530   3.444   4.645   1.555  0.6186  0.5370  0.6338
 3372TIP3    H131531   3.361   4.614   1.590  0.6855  0.0674  0.3883
 3372TIP3    H231532   3.495   4.565   1.540  2.3161  0.9079  3.6607
 3373TIP3   OH231533   5.250   6.336  12.152 -0.0650 -0.5620 -0.0287
 3373TIP3    H131534   5.172   6.358  12.101 -0.2498  0.1635  0.5514
 3373TIP3    H231535   5.281   6.419  12.187 -0.5895 -1.1236  1.9576
 3374TIP3   OH231536   5.280   3.488   2.519 -0.6995 -0.5046  0.3185
 3374TIP3    H131537   5.332   3.443   2.452 -0.3700  1.2210 -0.6597
 3374TIP3    H231538   5.340   3.497   2.593 -0.4551 -0.8261  0.1628
 3375TIP3   OH231539   2.959   4.768  12.515  0.3606 -0.2820  0.3101
 3375TIP3    H131540   2.944   4.840  12.575  2.7632  0.7111 -0.1850
 3375TIP3    H231541   3.033   4.720  12.553  2.2992  0.6831 -2.0124
 3376TIP3   OH231542   0.719   5.819   0.379 -0.3043  0.1676  0.0570
 3376TIP3    H131543   0.758   5.776   0.303 -0.8562 -0.7539  0.2790
 3376TIP3    H231544   0.756   5.908   0.378  1.1641 -0.4256 -0.1730
 3377TIP3   OH231545   3.901   2.137   4.266  0.3878 -0.5816 -0.1467
 3377TIP3    H131546   3.832   2.204   4.261 -1.0906 -1.8033  1.8933
 3377TIP3    H231547   3.905   2.116   4.359  1.2140 -2.8911 -0.6617
 3378TIP3   OH231548   3.246   1.386   2.750 -0.4153  0.1144 -0.1002
 3378TIP3    H131549   3.323   1.352   2.703  0.3971 -0.0688  1.2972
 3378TIP3    H231550   3.180   1.398   2.683  0.9463  0.5948 -1.4056
 3379TIP3   OH231551   4.207   4.365  13.463  0.0384  0.1820  0.5296
 3379TIP3    H131552   4.185   4.286  13.513 -0.4149 -0.7500 -1.0719
 3379TIP3    H231553   4.295   4.348  13.430 -0.7024 -0.4683 -1.2437
 3380TIP3   OH231554   5.980   3.763  16.418  0.1707 -0.0542  0.6547
 3380TIP3    H131555   5.915   3.747  16.485  2.1562 -1.1830  2.4120
 3380TIP3    H231556   5.971   3.690  16.357 -1.4962  0.8710 -0.3101
 3381TIP3   OH231557   1.296   5.941  14.224  0.3136 -0.0897  0.1611
 3381TIP3    H131558   1.363   5.926  14.290 -0.9789 -2.2905  1.0680
 3381TIP3    H231559   1.283   5.856  14.182 -2.3129  0.0910  0.4394
 3382TIP3   OH231560   0.347   4.427   5.345  0.5749  0.5063  0.8992
 3382TIP3    H131561   0.388   4.357   5.294 -1.3580 -0.1712  0.1634
 3382TIP3    H231562   0.420   4.473   5.387  1.9613 -1.3390  0.6256
 3383TIP3   OH231563   5.847   6.765   5.986 -0.3521 -0.0155  0.0832
 3383TIP3    H131564   5.787   6.717   6.043 -0.4508 -1.4081 -1.1521
 3383TIP3    H231565   5.792   6.827   5.939 -0.0787  2.2062  2.4645
 3384TIP3   OH231566   1.048   4.211  17.173  0.6822  0.4107 -0.1936
 3384TIP3    H131567   1.008   4.133  17.136 -0.1132  1.8345 -2.4949
 3384TIP3    H231568   0.975   4.270  17.189  1.2520  0.6830  1.6900
 3385TIP3   OH231569   6.209   0.976   6.023 -0.5099 -0.0069 -0.4744
 3385TIP3    H131570   6.142   1.009   6.083 -1.5293 -1.8703 -0.5244
 3385TIP3    H231571   6.268   0.925   6.079 -0.7993 -0.7802 -0.8713
 3386TIP3   OH231572   0.869   1.328   0.668 -0.5618  0.3845  0.0443
 3386TIP3    H131573   0.912   1.274   0.602 -0.6122  0.3059  0.0746
 3386TIP3    H231574   0.934   1.338   0.738 -0.7460 -0.1086  0.2916
 3387TIP3   OH231575   3.845   1.556   4.754 -0.0408  0.4940  0.0483
 3387TIP3    H131576   3.908   1.588   4.819 -0.6997  0.0944  0.8879
 3387TIP3    H231577   3.880   1.472   4.725  0.4517  0.8481 -0.4093
 3388TIP3   OH231578   6.090   6.260  11.833  0.0521  0.7079  0.5757
 3388TIP3    H131579   6.165   6.300  11.877  0.8284  0.0162 -0.0886
 3388TIP3    H231580   6.062   6.190  11.892  0.1732  0.7160  0.6425
 3389TIP3   OH231581   5.331   1.508   0.117  0.0318 -0.0102 -0.2159
 3389TIP3    H131582   5.328   1.497   0.022 -1.1100  4.3446 -0.8676
 3389TIP3    H231583   5.413   1.556   0.133  1.1218 -2.1727  1.3585
 3390TIP3   OH231584   4.500   5.125   2.069  0.1029 -0.1744  0.8058
 3390TIP3    H131585   4.538   5.039   2.086 -0.0614 -0.4951 -0.3328
 3390TIP3    H231586   4.558   5.187   2.114  1.9529 -0.6523 -0.8004
 3391TIP3   OH231587   3.455   5.910  14.007 -0.3983  0.0829  0.1318
 3391TIP3    H131588   3.505   5.956  13.939 -1.2351 -0.0973 -0.6202
 3391TIP3    H231589   3.431   5.978  14.069 -0.8884  0.5179 -0.5241
 3392TIP3   OH231590   6.057   3.869   2.237  0.0009  0.6722 -0.1269
 3392TIP3    H131591   5.988   3.805   2.252 -0.5122  1.1565 -0.3717
 3392TIP3    H231592   6.010   3.947   2.206  0.7529  0.6599 -1.3465
 3393TIP3   OH231593   3.580   2.151  13.377  0.3457 -0.4954  0.2750
 3393TIP3    H131594   3.565   2.151  13.471 -3.4956  0.3659 -0.1965
 3393TIP3    H231595   3.565   2.242  13.350  1.6597 -0.6649 -1.2062
 3394TIP3   OH231596   4.319   2.799   2.111  0.1716  0.4360 -0.3411
 3394TIP3    H131597   4.298   2.858   2.039  1.8735  1.2167 -0.2618
 3394TIP3    H231598   4.247   2.736   2.113 -1.9764  2.7536 -0.1146
 3395TIP3   OH231599   4.566   3.618  11.841 -0.0439  0.4416  0.3060
 3395TIP3    H131600   4.475   3.646  11.851 -0.3825 -0.2134 -0.8164
 3395TIP3    H231601   4.562   3.523  11.834  0.6368  0.4667 -0.6436
 3396TIP3   OH231602   5.324   3.789   2.887 -0.0905 -0.9834  0.2186
 3396TIP3    H131603   5.419   3.795   2.880  0.1708  2.4604  3.3831
 3396TIP3    H231604   5.291   3.830   2.807  1.3351  1.6894  0.8607
 3397TIP3   OH231605   0.457   1.879  12.757  0.8928  0.1735  0.6877
 3397TIP3    H131606   0.406   1.890  12.837  3.5211  0.7476  2.4055
 3397TIP3    H231607   0.502   1.963  12.746  0.9794 -0.0675 -1.1457
 3398TIP3   OH231608   1.317   1.316  12.475  0.4379  0.5037 -0.0809
 3398TIP3    H131609   1.227   1.288  12.457  0.2598  1.8895 -1.6007
 3398TIP3    H231610   1.311   1.411  12.483  1.9147  0.7612 -1.4608
 3399TIP3   OH231611   3.410   2.541   5.187 -0.7176 -0.7077 -0.2493
 3399TIP3    H131612   3.360   2.598   5.129 -1.1092 -0.8300 -0.0408
 3399TIP3    H231613   3.400   2.454   5.149  0.5058 -0.5465 -0.9925
 3400TIP3   OH231614   1.266   4.408  16.614  0.5838 -0.6171 -0.1905
 3400TIP3    H131615   1.285   4.427  16.522 -0.0073 -0.9938 -0.3957
 3400TIP3    H231616   1.315   4.329  16.634  0.6807 -0.5572 -0.1913
 3401TIP3   OH231617   2.231   4.925   0.055 -0.1695  0.4929 -0.1797
 3401TIP3    H131618   2.306   4.960   0.103 -0.1067 -0.5320  0.5035
 3401TIP3    H231619   2.157   4.938   0.114 -0.4084  0.8416 -0.5526
 3402TIP3   OH231620   3.987   5.898   5.781 -0.4382  0.3786 -0.4938
 3402TIP3    H131621   3.995   5.993   5.768  0.3926  0.6341  1.4983
 3402TIP3    H231622   3.892   5.882   5.784 -0.6265  0.8460 -2.4458
 3403TIP3   OH231623   5.006   0.227  15.806 -0.8728  0.1482 -0.5274
 3403TIP3    H131624   5.094   0.211  15.839 -0.5820 -0.9793 -1.7455
 3403TIP3    H231625   5.007   0.318  15.776  0.1896 -0.1120 -1.3740
 3404TIP3   OH231626   5.712   3.745   6.552 -0.1265 -0.3480 -0.4567
 3404TIP3    H131627   5.621   3.718   6.564  0.3117 -1.4977  0.4599
 3404TIP3    H231628   5.730   3.803   6.625  0.3656 -1.4980  0.3638
 3405TIP3   OH231629   0.150   3.341   2.069  0.3926 -0.4362  0.4426
 3405TIP3    H131630   0.123   3.327   1.979 -0.0141 -1.5323  0.7186
 3405TIP3    H231631   0.129   3.432   2.087 -1.2827 -0.7150  0.0138
 3406TIP3   OH231632   4.277   5.860   5.891 -0.6934  0.2658  0.0641
 3406TIP3    H131633   4.322   5.838   5.973 -1.2717 -2.3711 -0.2341
 3406TIP3    H231634   4.259   5.954   5.898  1.0604  0.5316  2.0381
 3407TIP3   OH231635   2.756   4.863   2.507 -0.2404  0.4856 -0.2502
 3407TIP3    H131636   2.714   4.864   2.593 -1.9896 -0.0010 -1.0585
 3407TIP3    H231637   2.844   4.829   2.524 -0.6107  0.2362  1.3195
 3408TIP3   OH231638   2.113   1.424  12.579  0.1357 -0.3396  0.3696
 3408TIP3    H131639   2.158   1.507  12.562 -0.3017 -0.2412 -0.3701
 3408TIP3    H231640   2.039   1.423  12.517  0.7103 -1.7258 -0.3539
 3409TIP3   OH231641   1.654   2.937  16.628 -0.4517  0.4066 -0.4247
 3409TIP3    H131642   1.736   2.909  16.670  0.1997 -0.6656 -2.2800
 3409TIP3    H231643   1.632   2.865  16.569 -1.2561  1.8871 -1.9912
 3410TIP3   OH231644   0.644   0.210   4.609  0.1178  0.2520 -0.9560
 3410TIP3    H131645   0.695   0.290   4.606  0.6293  0.3252  3.3209
 3410TIP3    H231646   0.553   0.240   4.615  0.0833  0.3568 -1.8170
 3411TIP3   OH231647   2.366   3.984  14.352  0.0035 -0.2907  0.0530
 3411TIP3    H131648   2.312   3.907  14.369  1.6401 -1.3288  0.8283
 3411TIP3    H231649   2.456   3.953  14.360  0.7277  1.6354  0.0533
 3412TIP3   OH231650   1.128   4.831  11.051 -0.1338  0.0947  0.5059
 3412TIP3    H131651   1.128   4.735  11.058  1.7527  0.1231  2.2349
 3412TIP3    H231652   1.061   4.851  10.987 -0.6675 -2.3867  0.1795
 3413TIP3   OH231653   3.873   0.019   4.485  0.1762  0.6864 -0.3938
 3413TIP3    H131654   3.818   0.044   4.410 -1.9296 -0.3259  0.7314
 3413TIP3    H231655   3.866   0.093   4.545  3.2332  2.2787 -1.7433
 3414TIP3   OH231656   5.107   4.896  14.782 -0.3328  0.5993 -0.0137
 3414TIP3    H131657   5.197   4.925  14.798 -0.9951  2.4031  0.6997
 3414TIP3    H231658   5.090   4.833  14.852  0.8301 -0.9390 -1.0397
 3415TIP3   OH231659   2.017   2.335   0.406  0.6496 -0.1554 -0.0726
 3415TIP3    H131660   1.953   2.346   0.336  2.0112  1.1515 -1.1762
 3415TIP3    H231661   1.973   2.368   0.484 -0.8268 -1.4634 -0.2924
 3416TIP3   OH231662   3.048   4.397   5.734  0.3370 -0.1908 -0.6497
 3416TIP3    H131663   3.127   4.379   5.684  0.1486  1.0157 -1.4146
 3416TIP3    H231664   3.076   4.454   5.805 -0.1376  1.9905 -2.1276
 3417TIP3   OH231665   4.739   4.765  11.595  0.3699  0.3148  0.0409
 3417TIP3    H131666   4.821   4.738  11.635  1.9836  1.5350 -2.2438
 3417TIP3    H231667   4.691   4.808  11.665  1.7052 -0.3071  1.3901
 3418TIP3   OH231668   6.530   5.124   3.796  0.1633  0.0474 -0.1314
 3418TIP3    H131669   6.573   5.090   3.875 -0.3542 -0.0223  0.1240
 3418TIP3    H231670   6.551   5.217   3.795 -0.7252  0.2686  0.6825
 3419TIP3   OH231671   4.220   5.189  16.308 -0.0588  0.0575  0.2767
 3419TIP3    H131672   4.258   5.110  16.345 -0.1366  0.3492  0.9983
 3419TIP3    H231673   4.154   5.216  16.371 -0.7365  0.1475 -0.4472
 3420TIP3   OH231674   3.642   3.381  16.200  0.1517  0.3009 -0.1780
 3420TIP3    H131675   3.565   3.364  16.146 -0.4891 -1.9126  1.3401
 3420TIP3    H231676   3.712   3.330  16.158  0.7098  1.8058 -1.1849
 3421TIP3   OH231677   2.898   6.586  11.520  0.1915 -0.5138 -0.5853
 3421TIP3    H131678   2.930   6.665  11.477 -0.1862 -0.0399 -0.0168
 3421TIP3    H231679   2.938   6.589  11.607 -0.5812 -0.4455 -0.2304
 3422TIP3   OH231680   0.884   3.419   1.813 -0.7514 -0.0628 -0.3109
 3422TIP3    H131681   0.832   3.493   1.784 -0.2188  0.5691  0.3206
 3422TIP3    H231682   0.973   3.438   1.784  0.2707  1.6169  3.2687
 3423TIP3   OH231683   5.188   1.700  13.868 -0.2687 -0.3902 -0.6205
 3423TIP3    H131684   5.110   1.750  13.889 -0.4509 -0.9369  0.0539
 3423TIP3    H231685   5.171   1.665  13.780  0.6465  2.1981 -1.9058
 3424TIP3   OH231686   0.876   6.346   1.621  0.5464 -0.3213  0.6302
 3424TIP3    H131687   0.943   6.325   1.686  0.5089 -2.2717  0.1110
 3424TIP3    H231688   0.827   6.264   1.609  0.1341  0.1542 -1.3599
 3425TIP3   OH231689   1.048   5.899  14.905 -0.1022 -0.1438  0.6027
 3425TIP3    H131690   1.081   5.818  14.868  1.7707  1.0563 -0.5260
 3425TIP3    H231691   1.071   5.895  14.998 -0.8245 -1.2555  0.7437
 3426TIP3   OH231692   6.253   5.251  15.073  0.3471 -0.0083 -0.1699
 3426TIP3    H131693   6.254   5.156  15.082 -0.3056 -0.0576 -0.5582
 3426TIP3    H231694   6.318   5.269  15.005 -0.5418 -0.3055 -1.1239
 3427TIP3   OH231695   2.809   1.877   2.628  0.5633 -0.7414  0.1773
 3427TIP3    H131696   2.791   1.785   2.652  1.4554 -1.4743 -1.7776
 3427TIP3    H231697   2.877   1.905   2.689  1.5689 -1.9837 -0.3341
 3428TIP3   OH231698   1.001   4.342  16.084  0.6150  0.4048  0.4139
 3428TIP3    H131699   0.929   4.336  16.020  0.6436  3.1447 -0.0006
 3428TIP3    H231700   1.068   4.395  16.040  0.9223  1.8257  2.4526
 3429TIP3   OH231701   5.711   3.247   1.348 -0.1319  0.3785 -0.4504
 3429TIP3    H131702   5.765   3.254   1.269  0.2196  0.9727 -0.1626
 3429TIP3    H231703   5.774   3.232   1.418 -0.1441  2.7434  0.1487
 3430TIP3   OH231704   6.242   6.164   0.397  0.5368 -0.3132  0.5248
 3430TIP3    H131705   6.328   6.147   0.358  0.2378  0.4833 -0.5597
 3430TIP3    H231706   6.214   6.080   0.432  1.3861 -0.7764  0.1261
 3431TIP3   OH231707   1.869   1.978  15.177  0.2003 -0.2788  0.1787
 3431TIP3    H131708   1.887   1.905  15.237 -1.1050 -0.1633  0.7491
 3431TIP3    H231709   1.849   1.936  15.094  0.4397 -0.5178  0.2388
 3432TIP3   OH231710   3.816   5.088  10.603  0.3005 -0.1413  0.8791
 3432TIP3    H131711   3.765   5.156  10.648 -0.4343 -0.6224  0.7802
 3432TIP3    H231712   3.876   5.137  10.546 -1.8290  0.4417 -1.0009
 3433TIP3   OH231713   0.118   5.514   4.664  0.0918  0.8708 -0.0543
 3433TIP3    H131714   0.150   5.523   4.574 -0.4151 -1.3495 -0.5219
 3433TIP3    H231715   0.039   5.460   4.655  0.4983 -0.0901  1.7929
 3434TIP3   OH231716   2.789   2.759  16.704 -0.5143 -0.3783  0.2035
 3434TIP3    H131717   2.848   2.817  16.752  1.2926 -2.9833  1.4086
 3434TIP3    H231718   2.751   2.702  16.772 -0.5012 -1.9693 -1.0596
 3435TIP3   OH231719   0.807   5.531   3.385  0.3069  0.3137  0.5890
 3435TIP3    H131720   0.842   5.507   3.471  1.3477 -0.7631 -0.1034
 3435TIP3    H231721   0.871   5.496   3.323  0.2560  2.1661 -0.6054
 3436TIP3   OH231722   4.784   1.697  16.092 -0.2842  0.5802 -0.1331
 3436TIP3    H131723   4.765   1.603  16.083 -1.1677  0.6532  0.8660
 3436TIP3    H231724   4.722   1.728  16.158 -0.4522  2.0105 -0.9306
 3437TIP3   OH231725   0.262   4.918   1.206 -0.6245  0.1236 -0.5644
 3437TIP3    H131726   0.213   4.948   1.130  0.4388  0.3470 -1.1837
 3437TIP3    H231727   0.344   4.968   1.203 -0.5863  0.1783  0.7568
 3438TIP3   OH231728   0.186   0.715   0.868 -0.3108  0.2245 -0.0362
 3438TIP3    H131729   0.108   0.749   0.913 -0.5580  1.8403 -1.5582
 3438TIP3    H231730   0.259   0.746   0.921 -0.6261 -1.9825  1.8641
 3439TIP3   OH231731   5.979   0.534   5.972  0.1324  0.8565  0.1935
 3439TIP3    H131732   5.984   0.461   5.911 -1.9092  1.4750 -0.8227
 3439TIP3    H231733   6.015   0.500   6.054  0.1655 -0.9423 -0.5252
 3440TIP3   OH231734   4.473   3.157  17.002 -0.0813 -0.3123 -0.2265
 3440TIP3    H131735   4.512   3.077  17.038  1.1381  0.4246  0.1504
 3440TIP3    H231736   4.387   3.130  16.970 -0.4816 -1.3739  1.6352
 3441TIP3   OH231737   5.364   4.126   2.620  0.2014 -0.0396 -0.3420
 3441TIP3    H131738   5.345   4.165   2.706 -0.8382  0.8216 -0.9415
 3441TIP3    H231739   5.314   4.044   2.620  0.0590  0.0460 -0.1921
 3442TIP3   OH231740   6.705   1.827  13.072 -0.0736 -0.1775  0.1067
 3442TIP3    H131741   6.764   1.849  13.144  0.7269 -1.8884  0.0067
 3442TIP3    H231742   6.617   1.834  13.110  0.1813  1.5680  0.4792
 3443TIP3   OH231743   2.592   6.053  12.168 -0.1671 -0.5440  0.3943
 3443TIP3    H131744   2.622   6.031  12.080 -2.8296 -2.2906 -0.1724
 3443TIP3    H231745   2.575   6.147  12.164  1.2077 -0.3007 -0.4523
 3444TIP3   OH231746   1.179   4.128  12.013  0.2386  0.9195 -0.4733
 3444TIP3    H131747   1.179   4.223  12.027 -1.9932  1.0477 -1.0387
 3444TIP3    H231748   1.087   4.104  12.010  0.5961 -0.6895 -3.9639
 3445TIP3   OH231749   5.102   4.012  17.149 -0.1086  0.3924  0.4762
 3445TIP3    H131750   5.016   4.045  17.172 -0.0812  0.3744  0.6037
 3445TIP3    H231751   5.097   3.994  17.055  0.2162  1.8101  0.1662
 3446TIP3   OH231752   5.064   4.463  14.724 -0.1242  0.2907 -0.8120
 3446TIP3    H131753   5.064   4.407  14.802  0.7544  0.9312 -0.3281
 3446TIP3    H231754   4.991   4.523  14.738  0.0908  0.4718 -0.4052
 3447TIP3   OH231755   0.309   3.488   3.161 -0.4383 -0.0298 -0.3937
 3447TIP3    H131756   0.350   3.498   3.246  0.7147 -2.8409 -0.5085
 3447TIP3    H231757   0.268   3.402   3.163 -0.6101 -0.0762 -2.5901
 3448TIP3   OH231758   6.014   2.436   5.571  0.2771 -0.5714  0.4350
 3448TIP3    H131759   6.065   2.358   5.550  1.0821  0.2313 -0.7527
 3448TIP3    H231760   6.079   2.505   5.583 -0.3333 -0.2918  2.7141
 3449TIP3   OH231761   3.032   2.233   2.972 -0.4300 -0.7882  0.1386
 3449TIP3    H131762   3.123   2.202   2.974  0.3474  1.0688 -1.7316
 3449TIP3    H231763   2.989   2.180   2.905 -1.1533 -2.5403  1.9097
 3450TIP3   OH231764   5.879   2.160   0.245 -0.3399 -0.5987 -0.2863
 3450TIP3    H131765   5.961   2.139   0.200 -0.5543 -1.6078 -0.2404
 3450TIP3    H231766   5.885   2.115   0.329 -0.7004 -0.2152 -0.0519
 3451TIP3   OH231767   6.129   1.629  15.778  0.0807  0.0069  0.4293
 3451TIP3    H131768   6.056   1.653  15.721  1.6333  2.5650 -0.6485
 3451TIP3    H231769   6.092   1.564  15.838 -2.2499 -1.0533 -1.9550
 3452TIP3   OH231770   5.516   3.117   2.737 -0.6041 -0.8358  0.2214
 3452TIP3    H131771   5.546   3.031   2.709  0.0550 -0.3217 -0.7281
 3452TIP3    H231772   5.425   3.103   2.762 -1.3720 -1.3532 -2.4584
 3453TIP3   OH231773   5.229   5.118  11.292 -0.9355 -0.2609 -0.3974
 3453TIP3    H131774   5.297   5.156  11.237 -1.8063  1.7132 -0.1771
 3453TIP3    H231775   5.195   5.044  11.241  1.6667 -1.6527 -0.2887
 3454TIP3   OH231776   3.487   4.135   3.238  0.2615 -0.3399 -0.4088
 3454TIP3    H131777   3.449   4.062   3.287  0.2512  1.4135  2.4247
 3454TIP3    H231778   3.412   4.189   3.215  0.4252 -0.3797 -1.0597
 3455TIP3   OH231779   4.402   6.755   1.872 -0.3998  0.2334 -0.0872
 3455TIP3    H131780   4.435   6.827   1.927  1.3219  1.5279 -2.6333
 3455TIP3    H231781   4.417   6.677   1.924  0.7216  1.4254  1.4833
 3456TIP3   OH231782   6.113   5.396   5.227 -0.1295 -0.2513  0.0525
 3456TIP3    H131783   6.052   5.322   5.227  0.5561 -0.8273  0.3088
 3456TIP3    H231784   6.169   5.381   5.151  1.6631 -1.4208  1.5014
 3457TIP3   OH231785   2.350   2.530  13.334  0.4976  0.1522 -0.5037
 3457TIP3    H131786   2.268   2.579  13.337 -0.5187 -1.3782 -1.7053
 3457TIP3    H231787   2.415   2.594  13.308 -0.6895  0.9937 -1.4929
 3458TIP3   OH231788   6.400   6.116  12.727 -0.5432  1.0477 -0.3681
 3458TIP3    H131789   6.481   6.168  12.731  0.3697 -0.2499 -1.2115
 3458TIP3    H231790   6.422   6.042  12.671 -1.7637 -0.3277  0.8930
 3459TIP3   OH231791   5.241   6.289  14.653 -0.1665  0.0337  0.2192
 3459TIP3    H131792   5.231   6.321  14.563 -0.9839  2.1060  0.9683
 3459TIP3    H231793   5.335   6.290  14.669 -0.1022  1.5330 -0.0502
 3460TIP3   OH231794   3.770   3.179  14.006  0.1036 -0.2199 -0.1393
 3460TIP3    H131795   3.741   3.266  13.978 -1.1633 -0.2221  1.0604
 3460TIP3    H231796   3.703   3.120  13.970 -0.3564 -0.4311  1.0118
 3461TIP3   OH231797   0.388   0.841  10.894  0.5349 -0.0109  0.1148
 3461TIP3    H131798   0.379   0.849  10.799  3.1162 -0.8052 -0.2825
 3461TIP3    H231799   0.429   0.923  10.921 -0.0599  0.1519  0.5430
 3462TIP3   OH231800   1.711   4.024   2.962 -0.0883 -0.4667  0.0206
 3462TIP3    H131801   1.788   4.081   2.963 -1.0149  0.8717 -0.8737
 3462TIP3    H231802   1.682   4.020   3.053 -0.0870  0.6276  0.0822
 3463TIP3   OH231803   6.555   2.028   0.917 -0.0610  0.2654  0.3113
 3463TIP3    H131804   6.637   1.988   0.947 -0.6173 -1.5639 -0.5051
 3463TIP3    H231805   6.512   2.056   0.998  0.8203  0.1739  0.8346
 3464TIP3   OH231806   4.379   0.945   1.239  0.1211  0.0874 -0.1003
 3464TIP3    H131807   4.428   0.876   1.195  1.1415  0.3200  0.6242
 3464TIP3    H231808   4.432   1.024   1.224 -1.4203  0.8949 -1.5872
 3465TIP3   OH231809   1.583   0.692   2.792  0.0814  0.2108  0.0572
 3465TIP3    H131810   1.659   0.739   2.825  0.5324 -0.2314 -0.3429
 3465TIP3    H231811   1.552   0.641   2.866  0.3703  0.1429  0.1327
 3466TIP3   OH231812   1.941   1.145  14.503 -0.0624 -0.0723  0.2838
 3466TIP3    H131813   1.865   1.153  14.560 -0.8367 -0.6815 -0.6160
 3466TIP3    H231814   1.915   1.077  14.440  0.5258  0.9751 -1.1332
 3467TIP3   OH231815   5.244   6.029  14.425 -0.7824 -0.0736  0.0439
 3467TIP3    H131816   5.229   5.958  14.363  1.1349 -0.2350 -0.2848
 3467TIP3    H231817   5.328   6.008  14.466 -1.8679  0.1458  2.5631
 3468TIP3   OH231818   6.112   0.688   4.217 -0.3792 -0.1254  0.3527
 3468TIP3    H131819   6.057   0.748   4.268  1.7238  1.5268  0.7911
 3468TIP3    H231820   6.175   0.653   4.280 -0.7555 -1.8504 -0.1726
 3469TIP3   OH231821   0.139   5.526   0.449 -0.1590 -0.0450 -0.2143
 3469TIP3    H131822   0.168   5.522   0.541 -0.7644 -0.7418 -0.0507
 3469TIP3    H231823   0.083   5.604   0.446  0.3694  0.3461 -0.1470
 3470TIP3   OH231824   4.629   0.001  15.035  0.3968  0.0035 -0.1133
 3470TIP3    H131825   4.659  -0.088  15.053  0.5140  0.0694  0.0169
 3470TIP3    H231826   4.549   0.011  15.087 -1.1267 -0.9397 -2.1454
 3471TIP3   OH231827   0.851   4.244  12.150 -0.2405  0.1453 -0.7528
 3471TIP3    H131828   0.853   4.248  12.246  0.7286 -0.2699 -0.7376
 3471TIP3    H231829   0.762   4.217  12.129 -0.5395  0.4974  0.0208
 3472TIP3   OH231830   6.175   0.420  14.998 -0.1502  0.3136  0.1168
 3472TIP3    H131831   6.161   0.494  14.939 -0.7615  0.1307  0.0270
 3472TIP3    H231832   6.258   0.382  14.970  0.4714  1.3062  0.5342
 3473TIP3   OH231833   1.190   4.029  16.090  0.3842  0.6441  0.5061
 3473TIP3    H131834   1.206   4.023  15.996 -2.6523  5.3970 -0.6183
 3473TIP3    H231835   1.260   4.085  16.123  0.6137  0.1706  0.8470
 3474TIP3   OH231836   4.825   1.693   0.415 -0.8756  0.0867  0.6497
 3474TIP3    H131837   4.752   1.718   0.358  0.5165 -1.5274 -2.0527
 3474TIP3    H231838   4.899   1.745   0.383  0.2992 -1.9794 -0.1516
 3475TIP3   OH231839   6.277   5.941   1.982  0.3754 -0.2851  0.1746
 3475TIP3    H131840   6.201   5.980   2.026  1.2565  0.3733  1.1557
 3475TIP3    H231841   6.259   5.847   1.983 -0.9514 -0.0607 -0.6389
 3476TIP3   OH231842   2.406   3.199  12.292 -0.3523 -0.1958 -0.4756
 3476TIP3    H131843   2.395   3.294  12.290 -0.1563 -0.1832 -2.1390
 3476TIP3    H231844   2.422   3.174  12.201 -1.3592 -1.9351 -0.2414
 3477TIP3   OH231845   1.653   0.951   2.237 -0.5471  0.0453 -0.5911
 3477TIP3    H131846   1.647   1.010   2.311 -2.2261  0.1844 -0.7914
 3477TIP3    H231847   1.708   0.997   2.173 -0.5948  0.7197 -0.1481
 3478TIP3   OH231848   0.766   2.376  15.739  0.0704 -0.4619 -0.1475
 3478TIP3    H131849   0.727   2.393  15.654  0.7137 -0.7482 -0.5041
 3478TIP3    H231850   0.693   2.346  15.793  0.0872 -2.7529 -1.2980
 3479TIP3   OH231851   4.200   6.340  14.114 -0.0632 -0.0703  0.0270
 3479TIP3    H131852   4.135   6.340  14.184 -0.5166  2.1162 -0.3108
 3479TIP3    H231853   4.178   6.264  14.061 -0.6313 -0.9131  1.4240
 3480TIP3   OH231854   3.443   2.893   2.165  0.5117  0.0411  0.0592
 3480TIP3    H131855   3.526   2.935   2.144  0.0034  1.1651  0.2058
 3480TIP3    H231856   3.390   2.963   2.203 -0.1339 -0.8945  0.9612
 3481TIP3   OH231857   5.135   1.043   1.292 -0.1116  0.2996 -0.2614
 3481TIP3    H131858   5.171   1.121   1.252  0.1190 -0.5491 -1.7743
 3481TIP3    H231859   5.101   0.991   1.219 -0.5339 -0.8678  0.7217
 3482TIP3   OH231860   4.546   6.398  13.186 -0.5424 -0.6703 -0.3965
 3482TIP3    H131861   4.577   6.311  13.213  1.3712  0.2882  0.7440
 3482TIP3    H231862   4.512   6.385  13.098  2.6241 -2.0300 -1.5621
 3483TIP3   OH231863   0.081   6.295  13.263  0.1585 -0.2563  0.4936
 3483TIP3    H131864   0.009   6.290  13.327 -0.6451 -0.4044 -0.3959
 3483TIP3    H231865   0.090   6.389  13.245 -1.6112 -0.3361 -1.3017
 3484TIP3   OH231866   3.093   1.254  13.656  0.3126 -0.7620  0.8367
 3484TIP3    H131867   3.052   1.243  13.570  0.6103  1.9925  0.2403
 3484TIP3    H231868   3.186   1.267  13.637  0.3104  0.3558  1.5066
 3485TIP3   OH231869   1.903   2.498   5.274 -0.3055 -0.5874  0.2719
 3485TIP3    H131870   1.917   2.586   5.309  0.6096 -0.9355  0.8009
 3485TIP3    H231871   1.809   2.483   5.285 -0.6841  0.7357 -0.8328
 3486TIP3   OH231872   3.267   1.957   0.718  0.4473  0.0757 -0.6031
 3486TIP3    H131873   3.280   1.863   0.735  0.0191  0.3351  1.4288
 3486TIP3    H231874   3.173   1.967   0.709  0.3186  0.5253  0.9259
 3487TIP3   OH231875   4.909   2.416  13.887 -0.6209 -0.2409  0.1284
 3487TIP3    H131876   4.839   2.359  13.853 -0.2356 -0.6718  0.0570
 3487TIP3    H231877   4.887   2.429  13.979 -0.5915 -0.6820  0.1971
 3488TIP3   OH231878   2.806   5.333   4.559  0.1987  0.4170 -0.2866
 3488TIP3    H131879   2.754   5.320   4.638  0.5140  0.2097 -0.1095
 3488TIP3    H231880   2.890   5.366   4.592  0.1762  0.7459 -0.5676
 3489TIP3   OH231881   6.566   2.133   0.493 -0.0182 -0.0521 -0.4921
 3489TIP3    H131882   6.616   2.213   0.480  2.1204 -0.9218  1.7391
 3489TIP3    H231883   6.491   2.160   0.546  1.0489  0.4266  0.8331
 3490TIP3   OH231884   1.387   5.514   0.609 -0.4050 -0.1175 -0.5462
 3490TIP3    H131885   1.333   5.440   0.636  0.7311 -0.2497  1.5368
 3490TIP3    H231886   1.454   5.476   0.552 -0.1583 -0.5997  0.0655
 3491TIP3   OH231887   3.963   6.245   2.092  0.1966 -0.3768  0.1378
 3491TIP3    H131888   3.944   6.292   2.173  3.0199  0.8409  0.2163
 3491TIP3    H231889   4.041   6.194   2.112 -0.0119 -1.3502 -1.3728
 3492TIP3   OH231890   1.637   5.400   3.514  0.3245 -0.3354 -0.5019
 3492TIP3    H131891   1.592   5.344   3.451 -1.2834  2.2221 -1.8128
 3492TIP3    H231892   1.693   5.456   3.460 -0.6706  1.5500  0.3417
 3493TIP3   OH231893   3.818   1.477  16.666  0.3699  0.6588  0.0776
 3493TIP3    H131894   3.788   1.398  16.621  0.3087  0.6331  0.1612
 3493TIP3    H231895   3.744   1.502  16.722 -0.0779  1.4804 -0.8601
 3494TIP3   OH231896   3.425   1.582   4.040 -0.5553  0.3611 -0.5736
 3494TIP3    H131897   3.489   1.615   4.103 -0.4093  0.2473 -0.6609
 3494TIP3    H231898   3.348   1.561   4.092 -0.6163  0.7526 -0.5027
 3495TIP3   OH231899   2.252   5.296  12.289  0.3030  0.1071  0.3611
 3495TIP3    H131900   2.271   5.384  12.322  0.4569  0.2431 -0.0805
 3495TIP3    H231901   2.167   5.274  12.328 -1.6581  1.9817 -2.3991
 3496TIP3   OH231902   6.581   5.210   5.011  0.2231  0.5067 -0.4241
 3496TIP3    H131903   6.509   5.148   5.026  0.8657 -0.2184 -0.2707
 3496TIP3    H231904   6.658   5.154   4.998  1.2313  1.2828  1.7666
 3497TIP3   OH231905   1.852   6.574   5.815  0.3872 -0.2409 -0.2447
 3497TIP3    H131906   1.773   6.573   5.869 -0.6741 -2.8977 -1.6711
 3497TIP3    H231907   1.876   6.666   5.810 -0.6309  0.3474  2.9766
 3498TIP3   OH231908   1.231   0.348   6.628 -0.0984 -0.3964 -0.7457
 3498TIP3    H131909   1.188   0.371   6.546 -0.2564  2.6298  0.0725
 3498TIP3    H231910   1.290   0.422   6.646  1.2907 -1.8188  0.9792
 3499TIP3   OH231911   5.262   4.494  14.516  0.3473  0.0378 -0.1139
 3499TIP3    H131912   5.205   4.462  14.586 -0.6539 -0.7838 -1.2571
 3499TIP3    H231913   5.223   4.577  14.490 -0.3065 -0.4753 -0.8261
 3500TIP3   OH231914   5.430   6.523   0.843 -0.2664 -0.1126  0.1939
 3500TIP3    H131915   5.412   6.528   0.937 -0.1021 -3.4481  0.5541
 3500TIP3    H231916   5.523   6.500   0.838 -0.8245 -2.4940 -0.5564
 3501TIP3   OH231917   0.444   5.687  12.094  0.0035 -0.5955  0.7020
 3501TIP3    H131918   0.386   5.612  12.106 -1.4572 -0.0550 -2.1669
 3501TIP3    H231919   0.386   5.758  12.065  1.5950  1.1562  1.5473
 3502TIP3   OH231920   4.403   1.137   1.889 -0.0812  0.5828  0.0792
 3502TIP3    H131921   4.443   1.081   1.822 -0.4232 -0.1994  0.5051
 3502TIP3    H231922   4.425   1.226   1.863 -0.6203  0.3290 -1.3337
 3503TIP3   OH231923   3.950   5.516  12.252 -0.2474 -0.3511 -0.7107
 3503TIP3    H131924   3.892   5.461  12.199 -2.5821 -0.9345  2.2124
 3503TIP3    H231925   4.012   5.455  12.291  0.9717 -0.0181 -2.0232
 3504TIP3   OH231926   5.373   1.020  15.468 -0.3834  0.0459 -0.5231
 3504TIP3    H131927   5.324   0.971  15.534  0.7897 -0.3338  0.0986
 3504TIP3    H231928   5.439   0.959  15.436  0.0892  0.7324 -0.8822
 3505TIP3   OH231929   0.973   4.094   0.567 -0.4911 -0.0900  0.6370
 3505TIP3    H131930   0.990   4.079   0.660  0.7067  0.1509  0.4721
 3505TIP3    H231931   1.035   4.037   0.522 -2.3790 -1.7077 -0.0587
 3506TIP3   OH231932   2.789   6.771  14.770 -0.8387 -0.2234 -0.5248
 3506TIP3    H131933   2.767   6.710  14.700 -2.1272 -0.4918  0.0787
 3506TIP3    H231934   2.884   6.777  14.768 -0.7234 -1.8726 -0.9081
 3507TIP3   OH231935   4.150   5.116   0.820 -0.3574 -0.0316 -0.1827
 3507TIP3    H131936   4.244   5.103   0.827 -0.3691  0.0856  0.2283
 3507TIP3    H231937   4.134   5.202   0.860 -0.5122  0.4178 -1.1779
 3508TIP3   OH231938   0.201   5.266  11.961  0.0623 -0.3830  0.0330
 3508TIP3    H131939   0.270   5.201  11.978 -0.2890 -0.8593 -0.3129
 3508TIP3    H231940   0.222   5.339  12.019  0.9797 -0.4271 -0.2319
 3509TIP3   OH231941   1.831   6.266   4.823 -0.0703 -0.1010 -0.5017
 3509TIP3    H131942   1.781   6.201   4.773 -0.5236 -0.5038  0.4544
 3509TIP3    H231943   1.819   6.241   4.914 -0.6982  1.6164 -0.0592
 3510TIP3   OH231944   5.104   3.348  11.754  0.4965 -0.3024 -0.4268
 3510TIP3    H131945   5.195   3.366  11.777 -0.2442  2.9423  0.3930
 3510TIP3    H231946   5.099   3.367  11.660  0.2292  2.0678 -0.0043
 3511TIP3   OH231947   6.441   4.838  17.059  0.2414  0.6726  0.4799
 3511TIP3    H131948   6.387   4.760  17.075  0.7812 -0.1422 -1.3860
 3511TIP3    H231949   6.412   4.870  16.973  3.0339 -0.1524 -0.8956
 3512TIP3   OH231950   3.708   4.119  16.112 -0.2728 -0.3286 -0.6896
 3512TIP3    H131951   3.747   4.097  16.197  0.5164  1.4623 -0.5557
 3512TIP3    H231952   3.763   4.073  16.049 -0.3153 -0.9407 -0.2927
 3513TIP3   OH231953   6.524   3.528   3.970 -0.0807  0.0695 -0.6384
 3513TIP3    H131954   6.497   3.588   4.040 -0.6381  0.1372 -0.9083
 3513TIP3    H231955   6.546   3.447   4.016 -0.4676  0.1058 -0.3815
 3514TIP3   OH231956   4.272   2.884  14.640 -0.2906 -0.4840 -0.1543
 3514TIP3    H131957   4.247   2.859  14.729 -0.4751  1.8222  0.5029
 3514TIP3    H231958   4.309   2.971  14.649  0.9871 -0.7632 -2.1825
 3515TIP3   OH231959   5.621   0.408   3.026 -0.1868 -0.3302 -0.5375
 3515TIP3    H131960   5.572   0.448   2.955  0.2828  1.2147 -0.0429
 3515TIP3    H231961   5.570   0.428   3.105  1.3598  1.6579  0.0343
 3516TIP3   OH231962   5.260   4.098  12.040  0.1102  0.1274 -0.4228
 3516TIP3    H131963   5.208   4.179  12.047  0.3536  0.2945 -0.5316
 3516TIP3    H231964   5.288   4.080  12.129  0.3047  0.3283 -0.4432
 3517TIP3   OH231965   3.171   3.217  16.663  0.3247  0.2269  0.0617
 3517TIP3    H131966   3.179   3.307  16.630  0.6915  0.5238  0.9460
 3517TIP3    H231967   3.138   3.226  16.752 -0.1837 -0.5486 -0.0360
 3518TIP3   OH231968   0.623   0.069   4.928 -0.7097 -0.2462  0.1254
 3518TIP3    H131969   0.585   0.146   4.886  1.1071  0.7873  0.2862
 3518TIP3    H231970   0.706   0.100   4.965 -0.1861 -2.1565  0.6634
 3519TIP3   OH231971   1.235   0.608  14.284 -0.2724  0.1473 -0.2799
 3519TIP3    H131972   1.291   0.685  14.297  1.1640 -0.7898 -0.6645
 3519TIP3    H231973   1.229   0.597  14.189  0.3054 -0.7153 -0.2367
 3520TIP3   OH231974   6.393   2.446  11.066 -0.0354 -0.5755 -0.2474
 3520TIP3    H131975   6.381   2.354  11.043 -0.2373 -0.6303  0.0652
 3520TIP3    H231976   6.307   2.475  11.094 -0.0191 -0.2299 -0.5486
 3521TIP3   OH231977   3.900   2.335   4.805 -0.7118  0.0736 -0.5109
 3521TIP3    H131978   3.990   2.309   4.824 -0.8307  0.1970  0.2370
 3521TIP3    H231979   3.867   2.371   4.887 -1.2298  0.6580 -0.9637
 3522TIP3   OH231980   1.028   5.793   0.544 -0.2501  0.4805 -0.1904
 3522TIP3    H131981   0.955   5.731   0.543 -0.8076  0.9277  2.9803
 3522TIP3    H231982   0.996   5.868   0.593  1.0956  2.4901 -2.1587
 3523TIP3   OH231983   1.729   3.179  16.723  0.0628 -0.2608  0.0618
 3523TIP3    H131984   1.701   3.093  16.692 -0.0370 -0.4690  0.7078
 3523TIP3    H231985   1.814   3.163  16.764  0.3144  0.0549 -0.3358
 3524TIP3   OH231986   1.826   1.150  14.079 -0.2800  0.5139  0.2580
 3524TIP3    H131987   1.896   1.202  14.040 -0.6604 -0.2286 -1.5190
 3524TIP3    H231988   1.758   1.146  14.012 -1.5234  0.1896  1.4702
 3525TIP3   OH231989   6.310   4.188   2.417 -0.2335 -0.2840 -0.7931
 3525TIP3    H131990   6.316   4.142   2.333  0.0099  0.0106 -0.9407
 3525TIP3    H231991   6.218   4.184   2.441 -0.4416  0.3112 -1.4612
 3526TIP3   OH231992   4.313   1.636   4.829 -0.0469  0.3862 -0.2608
 3526TIP3    H131993   4.309   1.732   4.829 -2.2410  0.3547  0.5484
 3526TIP3    H231994   4.315   1.612   4.737  0.7125  1.2096 -0.4672
 3527TIP3   OH231995   6.095   3.804   3.558  0.8401  0.1325 -0.4473
 3527TIP3    H131996   6.027   3.736   3.557 -0.1220  1.0411  0.4073
 3527TIP3    H231997   6.050   3.884   3.533  1.6379  0.7263 -0.0493
 3528TIP3   OH231998   2.319   2.217  16.534 -0.1617 -0.2562  0.1485
 3528TIP3    H131999   2.314   2.305  16.495 -3.2295  0.4700  1.8112
 3528TIP3    H232000   2.273   2.161  16.471 -0.1715 -0.2126  0.1169
 3529TIP3   OH232001   2.891   2.510   3.640 -0.0900 -0.1255 -0.7032
 3529TIP3    H132002   2.851   2.536   3.557 -0.1214  0.0225 -0.6421
 3529TIP3    H232003   2.962   2.451   3.616 -1.3926 -1.7539 -0.7371
 3530TIP3   OH232004   4.326   6.489  16.518  0.0088  0.5924  0.3749
 3530TIP3    H132005   4.372   6.435  16.582  2.2709 -0.0568 -1.6274
 3530TIP3    H232006   4.315   6.432  16.442 -0.0772  2.1107 -0.8005
 3531TIP3   OH232007   1.223   5.948   5.236 -0.1959 -0.6320  0.0333
 3531TIP3    H132008   1.137   5.906   5.246  0.0056 -1.2420 -0.6866
 3531TIP3    H232009   1.213   6.033   5.279 -0.4875 -1.5746  1.9665
 3532TIP3   OH232010   5.070   5.643  13.475 -0.4472  0.2531 -0.2692
 3532TIP3    H132011   5.073   5.645  13.570 -0.3158  1.8786 -0.2736
 3532TIP3    H232012   5.032   5.558  13.453  0.3975 -0.5338  1.1876
 3533TIP3   OH232013   4.428   2.013  14.882 -0.1035  0.1014  0.0402
 3533TIP3    H132014   4.364   2.063  14.832  0.7862  1.3508  0.1182
 3533TIP3    H232015   4.497   1.993  14.819 -0.0919 -0.3744  0.2003
 3534TIP3   OH232016   2.405   3.075  14.166 -0.0837 -0.2921 -0.6005
 3534TIP3    H132017   2.375   3.027  14.243  0.2515  0.2013 -0.1616
 3534TIP3    H232018   2.495   3.047  14.152 -0.2496 -0.6321 -1.0176
 3535TIP3   OH232019   6.624   5.679   3.781 -0.1186  0.3646  0.0991
 3535TIP3    H132020   6.671   5.757   3.812  0.6603 -1.1594  3.1313
 3535TIP3    H232021   6.652   5.669   3.690  2.2089  1.8591  0.5678
 3536TIP3   OH232022   2.413   3.767  14.658 -0.3315  0.0760 -0.2463
 3536TIP3    H132023   2.342   3.828  14.639 -0.2278  0.2780  0.0139
 3536TIP3    H232024   2.377   3.681  14.635 -0.4323  0.2422 -0.7369
 3537TIP3   OH232025   3.037   6.161  16.418 -0.4776  0.7351 -0.1833
 3537TIP3    H132026   3.011   6.072  16.398 -2.6852  1.4286 -0.7305
 3537TIP3    H232027   3.106   6.182  16.356  0.7728 -0.8702  0.5989
 3538TIP3   OH232028   0.484   1.704   3.040  0.4725 -0.4410 -0.1160
 3538TIP3    H132029   0.444   1.783   3.075 -0.2869 -1.0928  0.5499
 3538TIP3    H232030   0.495   1.722   2.947  1.4898  0.9029  0.2330
 3539TIP3   OH232031   2.250   0.265   1.182  0.5273 -0.7124 -0.5842
 3539TIP3    H132032   2.318   0.331   1.189  0.1494 -0.3451 -0.3131
 3539TIP3    H232033   2.280   0.206   1.112  1.0030 -0.4224 -0.6246
 3540TIP3   OH232034   2.904   2.161  11.887  0.1494  0.1743 -0.6423
 3540TIP3    H132035   2.858   2.195  11.964  1.4513  1.4492 -0.3978
 3540TIP3    H232036   2.891   2.227  11.820 -2.1732 -1.5524 -2.0608
 3541TIP3   OH232037   5.023   0.955  12.133  0.0653  0.4632 -0.4101
 3541TIP3    H132038   5.020   0.863  12.159 -1.2420  0.7655  0.6070
 3541TIP3    H232039   5.070   0.998  12.204 -0.6442  0.7860 -0.1202
 3542TIP3   OH232040   4.863   6.617   3.738  0.1590  0.0740  0.1869
 3542TIP3    H132041   4.935   6.642   3.797  1.8203 -0.6107 -1.4311
 3542TIP3    H232042   4.843   6.527   3.761  2.2996 -0.9632 -1.5409
 3543TIP3   OH232043   1.800   4.492   4.842 -0.7956  0.1456  0.3632
 3543TIP3    H132044   1.737   4.478   4.912 -0.4593 -2.1534  0.2890
 3543TIP3    H232045   1.783   4.421   4.780 -0.4613  1.5772 -1.4423
 3544TIP3   OH232046   1.549   5.095  15.850 -0.1876  0.0946 -1.1941
 3544TIP3    H132047   1.515   5.138  15.929 -1.5052 -2.0217 -0.5338
 3544TIP3    H232048   1.621   5.151  15.821  1.4333  0.1348  2.4383
 3545TIP3   OH232049   0.941   0.299   4.778  0.1077  0.3085  0.1834
 3545TIP3    H132050   0.937   0.368   4.844 -1.7073 -0.0841  0.5238
 3545TIP3    H232051   0.904   0.222   4.821 -0.9182 -0.0112 -1.2101
 3546TIP3   OH232052   0.429   4.813  10.884 -0.0004 -0.0688 -0.4530
 3546TIP3    H132053   0.403   4.721  10.879  0.8549 -0.5209  1.8515
 3546TIP3    H232054   0.504   4.813  10.944 -1.1057  2.3187  1.0739
 3547TIP3   OH232055   1.665   6.123  14.557 -0.2338 -0.2349  0.1428
 3547TIP3    H132056   1.697   6.171  14.633  0.2766  0.0227 -0.2299
 3547TIP3    H232057   1.669   6.187  14.486  0.5366 -0.8536 -0.3790
 3548TIP3   OH232058   0.595   4.818  12.763  0.0132 -0.0025 -0.0520
 3548TIP3    H132059   0.567   4.893  12.710  0.6956  0.3782  0.1071
 3548TIP3    H232060   0.599   4.745  12.701  0.0208  0.2531 -0.3567
 3549TIP3   OH232061   2.709   5.924  11.322 -0.0497  0.7698  0.0586
 3549TIP3    H132062   2.632   5.966  11.360  0.0967 -0.0034  1.2953
 3549TIP3    H232063   2.727   5.851  11.381  0.0018 -0.7321 -1.7391
 3550TIP3   OH232064   5.898   5.014  16.696 -0.1742 -0.2207  0.0243
 3550TIP3    H132065   5.834   5.079  16.722  0.6980  0.9152 -0.5545
 3550TIP3    H232066   5.919   4.966  16.776 -1.5018 -0.4163  0.2745
 3551TIP3   OH232067   5.736   1.812   0.157 -0.4139 -0.1952  0.6529
 3551TIP3    H132068   5.652   1.784   0.122 -0.1556  0.6161 -0.6575
 3551TIP3    H232069   5.719   1.897   0.197 -0.3621 -0.3722  1.0610
 3552TIP3   OH232070   1.585   6.030  17.072 -0.1758  0.4299  0.8299
 3552TIP3    H132071   1.507   6.032  17.016  0.7138  2.6493 -0.4566
 3552TIP3    H232072   1.655   6.001  17.014  0.7021  2.4906  0.7723
 3553TIP3   OH232073   5.067   6.219  14.202 -0.1139 -0.4515  0.3148
 3553TIP3    H132074   5.038   6.243  14.290 -0.8594  1.7963 -0.4671
 3553TIP3    H232075   5.004   6.155  14.172 -1.4179  0.7041  0.4889
 3554TIP3   OH232076   1.106   6.331   4.663  0.0272  0.4666  0.5278
 3554TIP3    H132077   1.090   6.415   4.620  0.2424  1.3349  2.0694
 3554TIP3    H232078   1.019   6.292   4.672 -0.0720  0.4960 -0.2141
 3555TIP3   OH232079   3.535   2.241   2.526  1.0182  0.1639  0.2162
 3555TIP3    H132080   3.567   2.229   2.615  1.2969 -2.8635 -0.1600
 3555TIP3    H232081   3.576   2.169   2.476 -0.9014  0.3730 -1.8348
 3556TIP3   OH232082   6.190   4.438  13.671  0.2408  0.3479  0.1156
 3556TIP3    H132083   6.173   4.404  13.759  0.9685  0.7775  0.4296
 3556TIP3    H232084   6.114   4.409  13.620  0.4701 -1.1024  0.5440
 3557TIP3   OH232085   1.282   4.994  16.822  0.5024  0.2702  0.3369
 3557TIP3    H132086   1.336   5.051  16.877 -1.0755 -0.2422  2.5498
 3557TIP3    H232087   1.330   4.911  16.819  1.1959  0.6765 -0.1356
 3558TIP3   OH232088   1.656   4.801  14.729 -0.2278 -0.3616  0.6165
 3558TIP3    H132089   1.680   4.802  14.636  0.2057 -0.7904  0.7203
 3558TIP3    H232090   1.738   4.783  14.774 -0.3196  0.4674  1.1233
 3559TIP3   OH232091   5.742   4.898   1.829  0.1380 -0.1072 -0.4836
 3559TIP3    H132092   5.831   4.934   1.829  0.7623 -1.5621  0.4008
 3559TIP3    H232093   5.728   4.869   1.738 -0.2923  2.0472 -1.1554
 3560TIP3   OH232094   4.270   1.234  17.241  0.4486  0.2090  0.0584
 3560TIP3    H132095   4.251   1.182  17.320 -2.2386  0.2342 -0.4971
 3560TIP3    H232096   4.360   1.209  17.218  0.9271 -0.6306  2.4659
 3561TIP3   OH232097   5.429   1.127   3.947  0.7321  0.1233  0.2659
 3561TIP3    H132098   5.342   1.128   3.906  1.0109 -2.8569 -0.6553
 3561TIP3    H232099   5.413   1.147   4.039 -1.0080 -0.7933  0.2027
 3562TIP3   OH232100   0.366   0.812   5.808  0.2133 -0.2107 -0.2408
 3562TIP3    H132101   0.412   0.822   5.891 -1.0405  2.6328  0.2095
 3562TIP3    H232102   0.296   0.749   5.826  0.7759 -0.6451  0.4649
 3563TIP3   OH232103   6.455   2.596  16.528 -0.7057  0.2303  0.0183
 3563TIP3    H132104   6.447   2.537  16.453  1.9295 -0.0165 -0.1482
 3563TIP3    H232105   6.420   2.545  16.602 -0.9659 -0.4904 -0.5916
 3564TIP3   OH232106   6.733   4.007  14.615 -0.0753 -0.9469  0.0364
 3564TIP3    H132107   6.663   3.966  14.666 -2.2068  0.5570 -1.5156
 3564TIP3    H232108   6.777   3.933  14.573 -0.8834 -1.9318  0.8583
 3565TIP3   OH232109   6.058   4.660   3.096 -0.0706 -0.0740 -0.0816
 3565TIP3    H132110   6.099   4.745   3.110 -0.3535  0.3206 -1.4778
 3565TIP3    H232111   6.018   4.638   3.180  0.2477  1.0281  0.3734
 3566TIP3   OH232112   5.392   0.130   4.725 -0.3485 -0.1182 -0.1293
 3566TIP3    H132113   5.414   0.115   4.633  0.1780 -2.0531  0.2696
 3566TIP3    H232114   5.332   0.204   4.724  1.9831  1.9186 -1.7602
 3567TIP3   OH232115   3.764   3.953   2.716  0.4318  0.3289 -0.5321
 3567TIP3    H132116   3.757   3.885   2.783  2.9606 -1.3308 -1.7580
 3567TIP3    H232117   3.804   4.027   2.761 -0.9711  0.5065  0.4911
 3568TIP3   OH232118   3.910   4.667  13.326 -0.3708 -0.4466  0.1763
 3568TIP3    H132119   3.866   4.741  13.285 -0.9743 -0.2403  1.1632
 3568TIP3    H232120   3.862   4.652  13.407  1.0748 -0.5443  1.0461
 3569TIP3   OH232121   0.969   4.620   6.490  0.1448 -0.0407 -0.2373
 3569TIP3    H132122   1.019   4.601   6.410  2.6692  0.4122  1.1155
 3569TIP3    H232123   1.032   4.665   6.547 -2.0139  1.0262  1.4355
 3570TIP3   OH232124   4.178   0.302  13.138  0.0209 -0.0313 -0.3633
 3570TIP3    H132125   4.273   0.293  13.149 -0.0695 -0.6595 -0.0775
 3570TIP3    H232126   4.145   0.212  13.139 -0.5270  0.1595 -0.9380
 3571TIP3   OH232127   2.953   1.053  11.861 -0.0322 -0.4151  0.1743
 3571TIP3    H132128   2.860   1.065  11.839 -0.2757 -0.7352  1.0003
 3571TIP3    H232129   2.952   1.013  11.948  0.8758 -0.8565 -0.0083
 3572TIP3   OH232130   2.813   6.233  14.511 -0.3832 -0.0632  0.9566
 3572TIP3    H132131   2.837   6.202  14.423  1.2717  0.8114  1.0683
 3572TIP3    H232132   2.803   6.152  14.562 -1.1629 -0.5726  0.0287
 3573TIP3   OH232133   3.901   6.150  17.200  0.4815 -0.0067  0.3666
 3573TIP3    H132134   3.963   6.199  17.145  0.2575  2.4628  2.1519
 3573TIP3    H232135   3.935   6.061  17.200  4.0417  1.1751  1.1513
 3574TIP3   OH232136   4.503   1.266   5.731 -0.0330 -0.0244  0.2274
 3574TIP3    H132137   4.510   1.359   5.755 -2.0115 -0.1441  1.4794
 3574TIP3    H232138   4.472   1.223   5.811  1.3019 -1.8883 -0.1765
 3575TIP3   OH232139   4.140   5.389   2.330  0.0893  0.1200  0.3141
 3575TIP3    H132140   4.155   5.462   2.390 -0.5595  0.4394  0.1021
 3575TIP3    H232141   4.047   5.368   2.341  0.0149  0.0350 -0.4017
 3576TIP3   OH232142   1.357   6.676  13.523  0.0265 -0.1785 -0.2285
 3576TIP3    H132143   1.409   6.611  13.475  2.5602  0.5250  1.3788
 3576TIP3    H232144   1.416   6.751  13.534 -1.2272  0.5778  1.9864
 3577TIP3   OH232145   2.565   2.108   5.570  0.2057  0.2374  0.2696
 3577TIP3    H132146   2.655   2.088   5.543  0.0050 -0.3201 -0.0019
 3577TIP3    H232147   2.517   2.027   5.555 -0.3764  0.5744  0.2819
 3578TIP3   OH232148   6.282   2.358   4.860  0.0040  0.4307 -0.3046
 3578TIP3    H132149   6.280   2.264   4.873  1.3480  0.0695 -2.3710
 3578TIP3    H232150   6.191   2.382   4.841 -0.0729 -0.7192 -1.4476
 3579TIP3   OH232151   5.207   6.125   0.230  0.4024 -0.3334  0.4129
 3579TIP3    H132152   5.240   6.134   0.319 -1.1475 -0.7717  1.0666
 3579TIP3    H232153   5.219   6.033   0.209  1.4592 -0.0844 -0.1400
 3580TIP3   OH232154   4.240   5.745  15.385  0.5468 -0.3737 -0.8381
 3580TIP3    H132155   4.156   5.699  15.395  2.1119 -3.2148  0.3759
 3580TIP3    H232156   4.242   5.806  15.458 -0.4434 -0.2760 -0.8704
 3581TIP3   OH232157   6.600   4.283  12.033 -0.4287 -0.1679 -0.5078
 3581TIP3    H132158   6.626   4.353  12.094 -1.5505  0.4828 -0.7373
 3581TIP3    H232159   6.663   4.287  11.962 -0.6283  0.7931 -0.6390
 3582TIP3   OH232160   3.164   6.385   2.916  0.4262 -0.3626  0.5104
 3582TIP3    H132161   3.192   6.455   2.856  0.1507 -0.5367  0.1735
 3582TIP3    H232162   3.158   6.307   2.860 -0.1641 -0.4520  0.6992
 3583TIP3   OH232163   6.741   5.150   6.799  0.5410  0.4797  0.0042
 3583TIP3    H132164   6.792   5.113   6.870 -1.2096 -2.1953  0.0086
 3583TIP3    H232165   6.803   5.161   6.727  1.3668 -1.6611  0.3360
 3584TIP3   OH232166   0.259   0.285  11.428  0.6753  0.1174  0.7200
 3584TIP3    H132167   0.261   0.380  11.432  0.4650  0.1877 -0.3338
 3584TIP3    H232168   0.170   0.262  11.454  0.1892  0.3433 -0.6394
 3585TIP3   OH232169   6.108   6.283   4.436 -0.0826  0.6264 -0.2861
 3585TIP3    H132170   6.075   6.344   4.503 -2.0638 -0.3767 -0.2664
 3585TIP3    H232171   6.157   6.217   4.486  0.1666  0.9696 -0.0682
 3586TIP3   OH232172   6.509   0.004  14.848 -0.2477  0.5062  0.2141
 3586TIP3    H132173   6.599   0.035  14.836  0.8506 -2.2157  0.6108
 3586TIP3    H232174   6.515  -0.059  14.921 -1.9124 -1.6882 -1.3919
 3587TIP3   OH232175   4.020   2.767   1.954  0.1979  0.4660 -0.0544
 3587TIP3    H132176   4.009   2.673   1.974  0.3387  0.5693  0.5337
 3587TIP3    H232177   4.001   2.811   2.037  0.5348  0.9345 -0.2251
 3588TIP3   OH232178   6.166   2.638  14.362 -0.4780 -0.9453 -0.1047
 3588TIP3    H132179   6.149   2.585  14.440  1.8758 -1.2503  0.2582
 3588TIP3    H232180   6.128   2.724  14.382  1.4989 -0.5048  2.1148
 3589TIP3   OH232181   3.610   0.666  12.925 -0.1028 -0.1188  0.3137
 3589TIP3    H132182   3.606   0.595  12.989  0.5520  0.7730  1.3742
 3589TIP3    H232183   3.593   0.623  12.841  0.3612 -1.5513  0.9180
 3590TIP3   OH232184   2.652   0.228  10.830 -0.6090 -0.3015 -0.1423
 3590TIP3    H132185   2.713   0.155  10.818  0.0034 -0.0925  1.3833
 3590TIP3    H232186   2.639   0.232  10.925 -1.8404  0.6098 -0.3329
 3591TIP3   OH232187   4.305   4.626  10.761 -0.7562  0.9993 -0.3522
 3591TIP3    H132188   4.396   4.656  10.764 -0.7078  0.8360 -0.1670
 3591TIP3    H232189   4.269   4.668  10.683 -0.1240 -0.0443 -1.2324
 3592TIP3   OH232190   4.269   2.065  10.697  0.1377  0.3296 -0.2747
 3592TIP3    H132191   4.338   2.005  10.667 -0.6328  0.3592 -2.2227
 3592TIP3    H232192   4.197   2.007  10.724 -0.4369  0.3227 -1.7351
 3593TIP3   OH232193   6.717   1.546   4.066  0.1441 -0.6096 -0.3653
 3593TIP3    H132194   6.805   1.543   4.030  0.3244  0.7411 -0.0851
 3593TIP3    H232195   6.730   1.556   4.160 -0.3235 -2.4002 -0.0811
 3594TIP3   OH232196   4.983   1.332  15.969  0.0214  0.5917 -0.3657
 3594TIP3    H132197   4.915   1.388  15.931  0.1737  1.3342  0.4243
 3594TIP3    H232198   5.056   1.391  15.985  0.8707 -0.1968 -1.1901
 3595TIP3   OH232199   6.378   1.600   2.234  0.3059 -0.4504  0.6085
 3595TIP3    H132200   6.467   1.578   2.205  0.1946 -1.0846  0.7553
 3595TIP3    H232201   6.341   1.518   2.263 -0.7295 -0.4016 -0.4899
 3596TIP3   OH232202   0.070   5.262   3.492  0.0758 -0.0929 -0.1030
 3596TIP3    H132203  -0.022   5.239   3.484 -0.0514 -0.7699  2.4264
 3596TIP3    H232204   0.110   5.230   3.412 -1.6420 -1.1109 -0.5999
 3597TIP3   OH232205   0.578   2.165  12.689  0.6806  0.2163  0.1657
 3597TIP3    H132206   0.507   2.148  12.627  1.6093 -1.2365 -0.5755
 3597TIP3    H232207   0.648   2.203  12.636  0.6548  1.1627  0.7889
 3598TIP3   OH232208   0.324   6.298   4.643 -0.2264 -0.1496 -0.0251
 3598TIP3    H132209   0.321   6.393   4.632 -0.6883 -0.1486  0.0937
 3598TIP3    H232210   0.304   6.263   4.556 -0.8147 -0.1366  0.1016
 3599TIP3   OH232211   0.052   1.170  14.269  0.7621 -0.4526 -0.2595
 3599TIP3    H132212   0.049   1.085  14.226  0.4668 -0.8108  0.4510
 3599TIP3    H232213  -0.029   1.174  14.320  0.3720  0.6027 -0.9277
 3600TIP3   OH232214   3.075   5.205  13.492 -0.2093 -0.0239 -0.5123
 3600TIP3    H132215   3.094   5.279  13.549  0.3458 -0.2775 -0.3584
 3600TIP3    H232216   3.026   5.144  13.547 -0.8778  0.3209 -0.7061
 3601TIP3   OH232217   1.127   3.905   3.436  0.3108 -0.1043 -0.1688
 3601TIP3    H132218   1.152   3.970   3.370 -2.2989  0.5884 -0.6107
 3601TIP3    H232219   1.087   3.957   3.506  3.5952 -0.7443  2.4409
 3602TIP3   OH232220   2.165   4.037   4.852 -0.4885 -0.6429 -0.0907
 3602TIP3    H132221   2.167   4.024   4.947  0.5090 -1.0405 -0.1521
 3602TIP3    H232222   2.162   4.132   4.841  1.8092 -0.4747  0.3456
 3603TIP3   OH232223   6.477   2.112   1.421  0.1461 -0.7092 -0.3696
 3603TIP3    H132224   6.438   2.030   1.452  0.9146 -1.2885 -0.8823
 3603TIP3    H232225   6.419   2.180   1.454 -0.6902 -1.4778 -0.2069
 3604TIP3   OH232226   0.147   4.979   4.325  0.6162 -0.2298  0.6934
 3604TIP3    H132227   0.206   5.042   4.367  0.8725 -0.1604  0.2412
 3604TIP3    H232228   0.201   4.901   4.314  0.4691 -0.3365  0.7349
 3605TIP3   OH232229   2.323   1.162  15.682  0.9621  0.3041 -0.1591
 3605TIP3    H132230   2.365   1.085  15.720  0.9572  0.6362  0.5266
 3605TIP3    H232231   2.231   1.138  15.675  1.0655  0.0083 -0.5689
 3606TIP3   OH232232   4.488   4.200  15.855 -0.4379  0.0839  0.0560
 3606TIP3    H132233   4.424   4.252  15.904 -0.0523  1.6078 -0.9775
 3606TIP3    H232234   4.438   4.166  15.781 -0.8286 -1.5701  1.0225
 3607TIP3   OH232235   3.754   0.254   0.710 -0.1807 -0.2431  0.0330
 3607TIP3    H132236   3.715   0.315   0.647 -0.5379 -0.5230 -0.0162
 3607TIP3    H232237   3.752   0.302   0.793 -0.2681 -0.1045 -0.0481
 3608TIP3   OH232238   3.348   5.070  16.599  0.2678  0.0436 -0.0599
 3608TIP3    H132239   3.282   5.028  16.544 -0.5206  1.3864 -0.1803
 3608TIP3    H232240   3.303   5.087  16.682  1.5006 -2.1531  1.1619
 3609TIP3   OH232241   6.425   1.017   3.522  0.1127 -0.6973  0.0192
 3609TIP3    H132242   6.413   1.067   3.441  3.4840 -1.0796 -0.8852
 3609TIP3    H232243   6.364   1.057   3.584  0.4879  2.5884 -1.4744
 3610TIP3   OH232244   5.167   3.788   0.058 -0.2338  0.1971  0.4936
 3610TIP3    H132245   5.244   3.752   0.014 -1.2941 -0.1633 -1.1366
 3610TIP3    H232246   5.131   3.852  -0.003 -2.2239 -0.9060  0.4057
 3611TIP3   OH232247   5.918   6.525  11.147  0.1039 -0.0888 -0.4467
 3611TIP3    H132248   5.944   6.617  11.159  1.4757 -0.0941 -2.7822
 3611TIP3    H232249   5.840   6.529  11.092  0.2779 -0.3196 -0.7137
 3612TIP3   OH232250   2.522   2.845  14.686  0.0923 -0.1349  0.2978
 3612TIP3    H132251   2.543   2.926  14.732 -0.3594  0.7933 -1.0867
 3612TIP3    H232252   2.571   2.777  14.733  0.7176  0.9747  1.2824
 3613TIP3   OH232253   0.566   5.880  13.935  0.5790  0.1406 -0.0043
 3613TIP3    H132254   0.549   5.808  13.874 -0.3564 -0.9832  1.5244
 3613TIP3    H232255   0.655   5.865  13.965  0.4337 -0.3077  0.2076
 3614TIP3   OH232256   3.194   6.561  14.713 -0.1262 -0.1159 -0.0436
 3614TIP3    H132257   3.232   6.562  14.625  0.1953  1.5102  0.0679
 3614TIP3    H232258   3.150   6.646  14.720 -1.8240 -1.0192  0.6756
 3615TIP3   OH232259   2.893   1.524  15.797 -0.3479 -0.0235  0.2744
 3615TIP3    H132260   2.901   1.525  15.702  0.2911 -1.8165  0.2752
 3615TIP3    H232261   2.810   1.568  15.815  0.6626  2.5821 -0.9188
 3616TIP3   OH232262   3.404   4.547  17.224 -0.0093 -0.1509 -0.1354
 3616TIP3    H132263   3.385   4.547  17.318  0.7482  1.3952  0.0547
 3616TIP3    H232264   3.317   4.550  17.183 -0.3362 -0.1692  0.5283
 3617TIP3   OH232265   0.525   0.443   4.016  0.4452  0.8976  0.3121
 3617TIP3    H132266   0.553   0.514   3.957 -1.1902  0.8725 -0.5395
 3617TIP3    H232267   0.530   0.482   4.104 -0.5776  2.1605 -0.1480
 3618TIP3   OH232268   3.537   2.341   1.072  0.1435  0.0973 -0.4488
 3618TIP3    H132269   3.444   2.342   1.049 -0.3087 -3.6743  0.5762
 3618TIP3    H232270   3.582   2.315   0.991 -0.1221 -1.5042 -0.1005
 3619TIP3   OH232271   0.503   2.812   5.399  0.5548 -0.5820  0.1780
 3619TIP3    H132272   0.561   2.783   5.328 -1.4221  0.9595 -2.2522
 3619TIP3    H232273   0.516   2.907   5.402 -1.6190 -0.2203 -0.3252
 3620TIP3   OH232274   2.512   4.843   2.986  0.4458  0.1053  0.5254
 3620TIP3    H132275   2.517   4.934   3.018  0.4772 -0.5584  2.6004
 3620TIP3    H232276   2.437   4.806   3.033  1.5606 -1.4368  1.1768
 3621TIP3   OH232277   6.071   3.085  13.178  0.1372  0.0754 -0.5991
 3621TIP3    H132278   5.984   3.103  13.214  0.1968  1.3244 -1.0337
 3621TIP3    H232279   6.062   3.000  13.135 -0.5179 -0.4142  0.4504
 3622TIP3   OH232280   5.111   1.904   5.191 -0.5334 -0.1544  0.1615
 3622TIP3    H132281   5.149   1.823   5.225 -0.1927  0.2297  0.7122
 3622TIP3    H232282   5.137   1.906   5.099  0.6135 -0.0094  0.4703
 3623TIP3   OH232283   5.115   6.500   2.013 -0.0387  0.2661  0.1763
 3623TIP3    H132284   5.176   6.430   2.035  0.1081  0.5710  0.7697
 3623TIP3    H232285   5.108   6.552   2.094  0.0222  1.0564 -0.3094
 3624TIP3   OH232286   2.112   4.144  13.862  1.0419 -0.0518  0.2269
 3624TIP3    H132287   2.043   4.210  13.865  1.2588  0.3090 -1.6802
 3624TIP3    H232288   2.069   4.063  13.891  0.8780  0.9196  3.0053
 3625TIP3   OH232289   5.308   3.045  14.006 -0.3070 -0.1558 -0.0580
 3625TIP3    H132290   5.370   3.106  14.046 -0.9085  1.0062 -0.8510
 3625TIP3    H232291   5.233   3.044  14.065 -1.0357  1.2679 -0.9090
 3626TIP3   OH232292   1.512   5.799   5.907 -0.3594 -0.5030  0.6522
 3626TIP3    H132293   1.588   5.792   5.966  0.1695  1.9589  0.3513
 3626TIP3    H232294   1.446   5.845   5.959 -1.0673 -1.1663  0.3558
 3627TIP3   OH232295   3.144   5.073  10.686  0.5400  0.0263  0.4267
 3627TIP3    H132296   3.097   5.105  10.763  1.7547 -1.6016  1.9055
 3627TIP3    H232297   3.079   5.020  10.640 -0.2726  1.2202  0.1291
 3628TIP3   OH232298   1.921   4.348   5.672 -0.0978  0.0024  0.0864
 3628TIP3    H132299   2.016   4.341   5.660 -0.1494  2.2970 -2.5020
 3628TIP3    H232300   1.886   4.270   5.629  0.5598 -0.3636  0.2011
 3629TIP3   OH232301   0.240   3.800   2.838 -0.4757 -0.4444  0.0724
 3629TIP3    H132302   0.164   3.856   2.827  0.6233  1.0158 -0.4741
 3629TIP3    H232303   0.243   3.779   2.931 -0.2387  1.4480  0.5148
 3630TIP3   OH232304   3.698   3.821   6.326  0.0897  0.0853  0.4857
 3630TIP3    H132305   3.711   3.752   6.391  0.6802  0.5346  0.8513
 3630TIP3    H232306   3.666   3.775   6.249  2.7277 -0.9715 -0.1009
 3631TIP3   OH232307   1.670   3.257   3.105 -0.1595 -0.1092 -0.0941
 3631TIP3    H132308   1.638   3.347   3.112  0.2259 -0.0718  1.5161
 3631TIP3    H232309   1.766   3.266   3.102 -0.0899 -0.4899  0.7871
 3632TIP3   OH232310   4.349   5.291  16.793  0.0299  0.1207 -0.1223
 3632TIP3    H132311   4.336   5.216  16.852  2.0176  0.7915  1.2970
 3632TIP3    H232312   4.420   5.263  16.735  1.4716  1.1499  1.0420
 3633TIP3   OH232313   3.495   1.467  16.667 -0.2309  0.4330  0.0677
 3633TIP3    H132314   3.452   1.382  16.664 -0.4211  0.5310 -0.0326
 3633TIP3    H232315   3.426   1.530  16.646 -0.2280  0.6631  0.7350
 3634TIP3   OH232316   0.861   6.292   3.902 -0.1987  1.1116 -0.3911
 3634TIP3    H132317   0.815   6.352   3.844  0.9455  0.4746 -2.0145
 3634TIP3    H232318   0.951   6.325   3.905 -0.0029  0.5489  0.2282
 3635TIP3   OH232319   2.152   4.650  15.825 -0.0816  0.2112 -1.2992
 3635TIP3    H132320   2.181   4.573  15.776  1.9975 -0.3496  0.6434
 3635TIP3    H232321   2.061   4.632  15.849  1.2285 -3.3490  1.9703
 3636TIP3   OH232322   4.014   0.968  10.802 -0.1702 -0.2124  0.4162
 3636TIP3    H132323   4.104   0.965  10.834 -0.5698 -1.0139  1.5418
 3636TIP3    H232324   4.021   1.003  10.713  1.1825  0.2853  0.6955
 3637TIP3   OH232325   3.622   5.849   3.760 -0.0739  0.7766  0.4539
 3637TIP3    H132326   3.618   5.766   3.713 -1.0789  0.9967  0.1284
 3637TIP3    H232327   3.640   5.915   3.693 -1.9884  1.1518  0.2636
 3638TIP3   OH232328   3.720   6.737   5.341  0.5526  0.0678  0.3673
 3638TIP3    H132329   3.740   6.828   5.359 -2.0844  1.0148 -0.8635
 3638TIP3    H232330   3.662   6.710   5.413 -0.8777  0.2896 -0.6570
 3639TIP3   OH232331   4.414   5.090   0.873  0.0544  0.2402 -0.0987
 3639TIP3    H132332   4.498   5.057   0.839 -1.0022 -1.1946 -1.4278
 3639TIP3    H232333   4.439   5.149   0.944  2.2276  0.4192 -0.9256
 3640TIP3   OH232334   1.901   3.842   1.520 -0.1426 -0.6716  0.0410
 3640TIP3    H132335   1.865   3.810   1.438  0.7355  1.0904 -1.1185
 3640TIP3    H232336   1.985   3.797   1.529 -1.8672 -3.9060  2.1565
 3641TIP3   OH232337   0.246   2.605   4.097  0.8338  0.6715 -0.6842
 3641TIP3    H132338   0.220   2.565   4.180  0.9067 -0.0858 -1.0192
 3641TIP3    H232339   0.250   2.699   4.116  0.0977  0.5806 -0.0392
 3642TIP3   OH232340   6.121   0.908   5.241 -0.0026 -0.6917  0.9061
 3642TIP3    H132341   6.200   0.905   5.293  0.2972  0.2867  0.5227
 3642TIP3    H232342   6.115   0.998   5.210 -2.0218 -0.3590  2.0859
 3643TIP3   OH232343   0.966   3.535   3.979 -0.7441 -0.1700  0.5105
 3643TIP3    H132344   0.934   3.496   3.897  0.9063  0.3966 -0.4475
 3643TIP3    H232345   0.996   3.622   3.953  0.7901 -0.3787  1.5063
 3644TIP3   OH232346   2.654   4.876  16.891 -0.1982  0.0294 -0.3922
 3644TIP3    H132347   2.567   4.841  16.913  0.1150 -0.2034  0.5141
 3644TIP3    H232348   2.685   4.820  16.820 -0.2058 -0.7910  0.2377
 3645TIP3   OH232349   4.959   1.355   0.872  0.0004 -0.0570  0.4298
 3645TIP3    H132350   4.944   1.396   0.957  2.0865 -0.9423  1.2897
 3645TIP3    H232351   4.942   1.262   0.887 -2.0119  0.0498 -0.8005
 3646TIP3   OH232352   3.335   5.236  13.319 -0.2823  0.2506 -0.2647
 3646TIP3    H132353   3.327   5.141  13.320 -0.3919  0.2453  0.9638
 3646TIP3    H232354   3.281   5.265  13.394  0.6126  1.1891  0.0377
 3647TIP3   OH232355   4.185   3.882   0.191  0.1294 -0.2768 -0.0802
 3647TIP3    H132356   4.145   3.834   0.264  0.0873  1.5865  1.2023
 3647TIP3    H232357   4.115   3.938   0.157 -0.4424 -2.5568 -2.9861
 3648TIP3   OH232358   1.559   1.816  12.915 -0.6999  0.5354 -0.2921
 3648TIP3    H132359   1.556   1.911  12.925  2.8608  0.8831 -1.0274
 3648TIP3    H232360   1.503   1.798  12.840  0.1139  2.3936 -1.4286
 3649TIP3   OH232361   5.338   0.639   1.037  0.3365  0.4597 -0.2247
 3649TIP3    H132362   5.340   0.562   1.093  2.0048  1.0400  0.5814
 3649TIP3    H232363   5.298   0.608   0.956  1.6370 -1.4842 -0.2033
 3650TIP3   OH232364   4.235   2.455  17.161  0.2956  0.0279  0.0798
 3650TIP3    H132365   4.163   2.496  17.209  0.7748 -0.1516  0.9630
 3650TIP3    H232366   4.313   2.477  17.211  1.1515  1.8848 -1.8729
 3651TIP3   OH232367   4.781   3.984   3.376 -0.0645 -0.2877  0.1245
 3651TIP3    H132368   4.838   3.946   3.310 -0.2830  0.4174 -0.4778
 3651TIP3    H232369   4.779   3.919   3.447  1.3041 -0.4115  0.0606
 3652TIP3   OH232370   5.021   4.025   4.145  0.0610  0.2533  0.3749
 3652TIP3    H132371   5.066   3.945   4.119  0.4901  1.2834 -2.3140
 3652TIP3    H232372   5.047   4.090   4.081 -1.1938  2.2862  1.7872
 3653TIP3   OH232373   0.995   1.594   3.781 -0.4416  0.1552 -0.1043
 3653TIP3    H132374   0.958   1.506   3.790  0.7308 -0.4742 -1.1264
 3653TIP3    H232375   1.072   1.594   3.837 -1.2364  1.0582  1.0531
 3654TIP3   OH232376   1.035   6.374  14.315  0.8514  0.0341  0.4276
 3654TIP3    H132377   0.989   6.355  14.233  0.8170  0.4982  0.3346
 3654TIP3    H232378   1.128   6.374  14.291  0.9215 -1.0855  0.6531
 3655TIP3   OH232379   1.639   3.470  15.411  0.1641  0.1271 -0.5109
 3655TIP3    H132380   1.576   3.435  15.475  1.1361  0.6104  0.7529
 3655TIP3    H232381   1.712   3.502  15.464  1.4119 -0.2548 -1.9252
 3656TIP3   OH232382   0.691   3.192   4.698 -0.3105  0.6477  0.3405
 3656TIP3    H132383   0.690   3.206   4.603 -1.8666 -0.0815  0.2329
 3656TIP3    H232384   0.756   3.123   4.710  0.1812  1.0081 -0.1383
 3657TIP3   OH232385   6.639   0.212   5.561  0.3244  0.3913  0.1873
 3657TIP3    H132386   6.689   0.282   5.520 -0.9577  0.0106 -2.2048
 3657TIP3    H232387   6.683   0.132   5.532 -0.9551  0.0955 -1.0054
 3658TIP3   OH232388   3.443   2.091   4.866 -0.2466 -0.5418 -0.5819
 3658TIP3    H132389   3.395   2.008   4.870 -0.5777 -0.6654 -3.9831
 3658TIP3    H232390   3.407   2.135   4.789  0.3945  2.4971  0.7361
 3659TIP3   OH232391   4.904   4.607   2.989 -0.4480  0.3751  0.1682
 3659TIP3    H132392   4.982   4.644   2.948 -0.4771  0.0742 -0.1603
 3659TIP3    H232393   4.869   4.679   3.042  0.0053  0.5354  0.2576
 3660TIP3   OH232394   4.590   3.104  14.400 -0.1532  0.3338 -0.4333
 3660TIP3    H132395   4.664   3.045  14.384 -0.2830  0.2876 -0.8616
 3660TIP3    H232396   4.631   3.184  14.433 -0.0385 -0.3001  1.0236
 3661TIP3   OH232397   2.900   0.860   5.551  0.2362 -0.7720  0.2405
 3661TIP3    H132398   2.828   0.903   5.596  0.1482 -2.2889  1.6169
 3661TIP3    H232399   2.900   0.771   5.584  0.4350 -1.8824 -2.4963
 3662TIP3   OH232400   6.057   3.880  12.207 -0.3823  0.4517  0.3355
 3662TIP3    H132401   6.094   3.795  12.184 -0.5591  0.6422 -0.6871
 3662TIP3    H232402   6.118   3.915  12.272  1.3398  0.7740 -1.3359
 3663TIP3   OH232403   0.874   5.533  15.330 -0.3653 -0.4786  0.2297
 3663TIP3    H132404   0.919   5.457  15.368  1.9693  0.8622  0.3970
 3663TIP3    H232405   0.803   5.551  15.391 -0.1415 -1.7332  0.9045
 3664TIP3   OH232406   5.801   1.277  16.466 -0.2332  0.3266  0.1518
 3664TIP3    H132407   5.872   1.338  16.487  2.6919 -1.2677 -3.8756
 3664TIP3    H232408   5.812   1.206  16.529  2.3729 -0.2241 -0.7895
 3665TIP3   OH232409   6.693   3.928  11.654  0.3886  0.0842 -0.2852
 3665TIP3    H132410   6.660   3.841  11.677  3.3144 -1.6980 -2.2556
 3665TIP3    H232411   6.658   3.944  11.566 -0.4448  1.1441  0.2141
 3666TIP3   OH232412   6.320   0.829  14.025 -0.6395 -0.0924 -0.1834
 3666TIP3    H132413   6.327   0.915  13.983 -0.1756  0.2348  0.5385
 3666TIP3    H232414   6.258   0.781  13.970 -0.6047  0.5650 -0.8241
 3667TIP3   OH232415   3.477   0.469  16.621 -0.5635 -0.0985  0.1806
 3667TIP3    H132416   3.535   0.478  16.697 -0.2147  0.4580 -0.1435
 3667TIP3    H232417   3.526   0.412  16.561 -0.7052 -0.2859  0.2411
 3668TIP3   OH232418   1.266   1.908   3.578  0.4378 -0.4776  0.3163
 3668TIP3    H132419   1.234   1.909   3.488  1.9414  0.4028 -0.2494
 3668TIP3    H232420   1.343   1.852   3.575  1.9457  1.4668  0.4704
 3669TIP3   OH232421   5.400   1.253  16.555 -0.0086 -0.3182  0.2024
 3669TIP3    H132422   5.464   1.186  16.579  1.7076  1.0228 -0.3901
 3669TIP3    H232423   5.329   1.242  16.618  0.3868 -2.4307  0.3368
 3670TIP3   OH232424   2.317   4.209  16.194  0.1145 -0.1697  0.5630
 3670TIP3    H132425   2.310   4.142  16.263 -0.8207 -0.4973  0.1715
 3670TIP3    H232426   2.325   4.159  16.113 -1.6985  0.1369  0.1524
 3671TIP3   OH232427   1.883   3.825  14.385  0.5045  0.1496 -0.3285
 3671TIP3    H132428   1.826   3.877  14.329  0.7285 -0.6396 -1.3180
 3671TIP3    H232429   1.822   3.778  14.442  0.3016  1.4495  0.5699
 3672TIP3   OH232430   1.661   2.309  16.591 -0.1966 -0.3435  0.0843
 3672TIP3    H132431   1.596   2.331  16.525  0.3888  0.4840 -0.2209
 3672TIP3    H232432   1.668   2.387  16.645  0.9960 -0.2050 -0.2570
 3673TIP3   OH232433   4.649   3.820   4.211  0.2407  0.2393  0.3041
 3673TIP3    H132434   4.554   3.806   4.212 -0.4271  3.2177 -2.6303
 3673TIP3    H232435   4.669   3.856   4.297 -1.2124 -0.6600  1.0582
 3674TIP3   OH232436   2.288   1.894   4.059 -0.0134  0.0514  0.5894
 3674TIP3    H132437   2.302   1.981   4.022  0.0586 -0.4134 -0.5037
 3674TIP3    H232438   2.201   1.900   4.100 -1.8578 -0.4107 -2.8580
 3675TIP3   OH232439   5.593   2.361  15.980 -0.4425  0.2181  0.8411
 3675TIP3    H132440   5.516   2.374  15.926  0.6098 -0.1142 -0.8013
 3675TIP3    H232441   5.564   2.304  16.051 -2.0286  1.2546  1.0588
 3676TIP3   OH232442   3.746   0.268   0.387  0.1340 -0.3824 -0.5096
 3676TIP3    H132443   3.713   0.338   0.443 -1.7224 -1.0703 -0.6723
 3676TIP3    H232444   3.724   0.296   0.298  0.7097 -0.5177 -0.7035
 3677TIP3   OH232445   4.644   0.682   2.509  0.3096  0.5156 -0.6281
 3677TIP3    H132446   4.694   0.752   2.550 -1.4782  2.3120 -1.3784
 3677TIP3    H232447   4.603   0.636   2.583  2.7077 -0.8233 -0.0217
 3678TIP3   OH232448   0.321   2.111  14.649 -0.6335  0.4219 -0.0440
 3678TIP3    H132449   0.266   2.176  14.692 -1.0530  0.7483 -1.0297
 3678TIP3    H232450   0.396   2.160  14.616 -0.2205  0.1427  0.4527
 3679TIP3   OH232451   0.390   1.105  15.552  0.2073  0.5660 -0.1537
 3679TIP3    H132452   0.474   1.150  15.556  0.5674 -0.1704  1.4743
 3679TIP3    H232453   0.367   1.089  15.644 -0.7200 -1.0391 -0.6185
 3680TIP3   OH232454   1.407   0.329   0.398  0.3319  1.0500  0.5486
 3680TIP3    H132455   1.396   0.267   0.471 -1.2561  0.3373 -0.2490
 3680TIP3    H232456   1.445   0.276   0.328 -1.5875  0.7314 -0.3412
 3681TIP3   OH232457   4.992   3.532   4.727 -0.0732 -0.2060 -0.0231
 3681TIP3    H132458   5.081   3.499   4.738  0.3195  1.0828  0.9288
 3681TIP3    H232459   4.993   3.618   4.769 -1.6274  0.0674 -0.4811
 3682TIP3   OH232460   1.287   2.449   1.173 -0.7176 -0.0649 -0.5167
 3682TIP3    H132461   1.224   2.421   1.239  0.6862  0.3847  1.0890
 3682TIP3    H232462   1.350   2.378   1.168 -1.5932 -0.7754 -2.5462
 3683TIP3   OH232463   4.839   3.163   0.473  0.3631 -0.2353  0.2939
 3683TIP3    H132464   4.921   3.142   0.427 -0.1838 -1.4760 -0.1499
 3683TIP3    H232465   4.792   3.220   0.412  1.4234  1.5667  1.0846
 3684TIP3   OH232466   3.594   1.282   1.580  0.0554 -0.3732  0.6357
 3684TIP3    H132467   3.615   1.262   1.489 -0.4941 -2.3000  0.8859
 3684TIP3    H232468   3.656   1.350   1.605 -2.0635  2.9257 -2.2027
 3685TIP3   OH232469   2.096   6.139   3.049 -0.3554  0.9511 -0.0902
 3685TIP3    H132470   2.190   6.125   3.059 -0.7297 -2.4441 -0.1861
 3685TIP3    H232471   2.088   6.229   3.018  2.8872  1.1690 -0.5946
 3686TIP3   OH232472   1.262   0.124  15.716 -0.0528 -0.2508 -0.6752
 3686TIP3    H132473   1.249   0.198  15.776 -1.4182 -1.2631  0.3581
 3686TIP3    H232474   1.342   0.082  15.747 -0.9941 -1.0450  0.8338
 3687TIP3   OH232475   4.660   0.081  12.541 -0.0823  0.3363  0.1103
 3687TIP3    H132476   4.653   0.111  12.632  0.9353  0.9506  0.0025
 3687TIP3    H232477   4.715   0.003  12.546  1.5167  1.4212 -0.1668
 3688TIP3   OH232478   3.677   5.676  13.054 -0.4130 -0.3621 -0.6280
 3688TIP3    H132479   3.703   5.628  12.975  0.9367 -0.9378  0.1273
 3688TIP3    H232480   3.686   5.613  13.125  0.6766  0.7649  0.2911
 3689TIP3   OH232481   5.993   0.865   2.870  0.6711  0.3806 -0.0700
 3689TIP3    H132482   5.974   0.776   2.899 -0.2133  0.6463  0.1889
 3689TIP3    H232483   5.954   0.921   2.936 -0.9730  0.9921 -1.5015
 3690TIP3   OH232484   4.912   5.055   4.031 -0.0120 -0.1186  0.1047
 3690TIP3    H132485   4.912   5.070   3.936  1.2345 -1.0129 -0.0592
 3690TIP3    H232486   4.955   5.132   4.068 -0.8453  0.4170  0.0066
 3691TIP3   OH232487   2.588   1.432  13.625 -0.5899  0.1277 -0.4920
 3691TIP3    H132488   2.590   1.525  13.645  1.0496 -0.2647  1.5749
 3691TIP3    H232489   2.629   1.390  13.701 -2.3235 -2.3975 -0.8190
 3692TIP3   OH232490   0.981   3.714   3.051 -0.2063  0.9651  0.2312
 3692TIP3    H132491   1.054   3.662   3.086 -0.2793  2.0696  2.1568
 3692TIP3    H232492   0.950   3.664   2.976 -0.0436 -1.6176  1.7631
 3693TIP3   OH232493   4.423   0.585   2.137 -0.1914  0.2107  0.2601
 3693TIP3    H132494   4.371   0.633   2.201 -0.5836 -0.2077  0.2631
 3693TIP3    H232495   4.389   0.613   2.052  0.0728  0.4820  0.2426
 3694TIP3   OH232496   4.686   5.860  15.996  0.0117  0.3420  0.5310
 3694TIP3    H132497   4.746   5.816  15.936  0.5474 -1.3732  2.2553
 3694TIP3    H232498   4.612   5.800  16.005 -1.5977  1.9830 -0.7645
 3695TIP3   OH232499   1.253   6.561   1.351 -0.2276  0.1407 -0.4835
 3695TIP3    H132500   1.336   6.514   1.357  0.2890  0.9474 -1.1259
 3695TIP3    H232501   1.201   6.527   1.424  0.9289  0.1304  0.3660
 3696TIP3   OH232502   0.380   3.703  16.298  0.1189 -0.1979  0.3034
 3696TIP3    H132503   0.362   3.672  16.210  0.3000  0.3904  0.0479
 3696TIP3    H232504   0.332   3.786  16.305  0.7190  0.1471  0.4792
 3697TIP3   OH232505   6.131   2.543   2.530 -0.0611 -0.3999 -0.3306
 3697TIP3    H132506   6.151   2.588   2.448 -0.4252  0.4337  0.0150
 3697TIP3    H232507   6.216   2.527   2.570  0.0523  0.8142 -0.0467
 3698TIP3   OH232508   3.126   3.525   6.162 -0.5344  0.0821  0.3541
 3698TIP3    H132509   3.194   3.586   6.188 -1.4831  1.2861  0.0902
 3698TIP3    H232510   3.168   3.468   6.097  0.7422 -0.4729  1.6263
 3699TIP3   OH232511   3.675   3.946   2.456  0.1978  0.0769 -1.2957
 3699TIP3    H132512   3.714   3.943   2.543 -0.1720  1.2501 -1.0724
 3699TIP3    H232513   3.606   3.880   2.457 -0.7000  0.9908 -0.2386
 3700TIP3   OH232514   3.975   4.757  12.095 -0.4879 -0.6185 -0.2887
 3700TIP3    H132515   4.046   4.695  12.104  0.6383  0.5767 -0.6326
 3700TIP3    H232516   3.940   4.766  12.184 -0.0873 -1.0663 -0.0825
 3701TIP3   OH232517   1.060   1.765   1.504  0.6544  0.2822  0.1276
 3701TIP3    H132518   1.143   1.744   1.548  0.4939  1.4269  1.0202
 3701TIP3    H232519   1.038   1.685   1.456  1.1088 -0.8492  1.7236
 3702TIP3   OH232520   5.139   6.329  13.941  0.2532 -0.1131 -0.1905
 3702TIP3    H132521   5.149   6.280  14.022  0.2382 -0.2197 -0.2539
 3702TIP3    H232522   5.061   6.383  13.955 -0.1021 -0.5745 -0.3608
 3703TIP3   OH232523   4.569   4.660  13.777  0.4253  0.2090 -0.0703
 3703TIP3    H132524   4.521   4.705  13.708  1.0598 -0.0063 -0.6634
 3703TIP3    H232525   4.589   4.574  13.740  2.7666  0.8788 -0.5397
 3704TIP3   OH232526   0.868   0.247  15.567  0.0662 -0.0636 -0.4640
 3704TIP3    H132527   0.850   0.244  15.661 -0.7966 -1.3892 -0.6535
 3704TIP3    H232528   0.961   0.224  15.561 -0.1386 -1.0631  0.0028
 3705TIP3   OH232529   2.916   4.847   2.192  0.0100 -0.4251 -0.2032
 3705TIP3    H132530   2.823   4.829   2.176 -0.1073 -0.6613  0.6876
 3705TIP3    H232531   2.917   4.937   2.226  0.1726 -0.2259 -0.7165
 3706TIP3   OH232532   3.091   1.693  15.239 -0.4456 -0.4175  1.0863
 3706TIP3    H132533   3.092   1.623  15.304 -2.5328 -0.3094  1.3166
 3706TIP3    H232534   3.183   1.719  15.230  0.1799 -2.0783  2.1767
 3707TIP3   OH232535   4.197   1.764  12.375  0.4477 -0.2007 -0.0701
 3707TIP3    H132536   4.275   1.751  12.321  1.0093  2.0314  0.1210
 3707TIP3    H232537   4.124   1.760  12.313  0.8395 -0.5696 -0.5165
 3708TIP3   OH232538   0.528   2.982  11.220  0.3750  0.0577  0.3532
 3708TIP3    H132539   0.438   2.959  11.199 -0.0447 -0.6156  2.6541
 3708TIP3    H232540   0.572   2.897  11.233  1.4249  0.3671 -0.8864
 3709TIP3   OH232541   3.934   4.106  10.582 -0.5139 -0.3900 -0.2738
 3709TIP3    H132542   3.979   4.022  10.569 -0.9348 -1.1786  2.6960
 3709TIP3    H232543   3.997   4.171  10.552  0.2711 -1.6885 -1.6171
 3710TIP3   OH232544   6.335   4.457   1.432 -0.2363  0.1070 -0.4162
 3710TIP3    H132545   6.284   4.402   1.373 -0.1194  0.6739 -1.0679
 3710TIP3    H232546   6.343   4.540   1.385 -1.2358  1.0152  0.9494
 3711TIP3   OH232547   0.045   3.214  15.094 -0.3654  0.0817  0.2757
 3711TIP3    H132548   0.045   3.276  15.021 -0.8907 -0.3722 -0.1179
 3711TIP3    H232549  -0.047   3.199  15.113 -0.2514 -0.8299  0.1495
 3712TIP3   OH232550   5.104   1.612   2.809  0.2081  0.4357 -0.1676
 3712TIP3    H132551   5.051   1.623   2.888 -0.7737 -0.7841 -0.6228
 3712TIP3    H232552   5.097   1.695   2.763 -0.6091  0.5735  0.2017
 3713TIP3   OH232553   4.584   1.156   3.118 -0.0719 -0.1334  0.0617
 3713TIP3    H132554   4.624   1.210   3.050  1.0581 -1.7820 -0.6499
 3713TIP3    H232555   4.553   1.219   3.183  0.5958  1.3914 -1.0132
 3714TIP3   OH232556   3.735   0.730  11.972  0.2663  0.7791  0.0473
 3714TIP3    H132557   3.753   0.652  11.920 -1.2048  0.6426 -0.2964
 3714TIP3    H232558   3.641   0.729  11.984  0.2990  2.1989  0.5362
 3715TIP3   OH232559   2.391   3.078  13.870 -0.0023  0.3800  0.2084
 3715TIP3    H132560   2.418   3.047  13.956 -1.0006 -1.8287 -0.1819
 3715TIP3    H232561   2.303   3.041  13.857 -0.5515  2.0063 -1.1080
 3716TIP3   OH232562   3.255   4.614  16.975 -0.3537  0.0179 -0.0704
 3716TIP3    H132563   3.239   4.535  16.924  2.0222 -0.9497  0.5403
 3716TIP3    H232564   3.243   4.686  16.914 -0.1696 -0.9699 -1.2997
 3717TIP3   OH232565   0.096   1.936   5.454  0.1841 -0.2010  0.0112
 3717TIP3    H132566   0.191   1.936   5.465  0.1489 -0.6344  0.3463
 3717TIP3    H232567   0.077   1.863   5.395  0.2452  1.2931 -1.9459
 3718TIP3   OH232568   6.746   0.359  11.231 -0.0406  0.2882  0.0016
 3718TIP3    H132569   6.706   0.446  11.226 -0.5223  0.0850  0.2607
 3718TIP3    H232570   6.796   0.351  11.150 -3.8350 -1.0701 -2.4442
 3719TIP3   OH232571   4.686   0.622   5.957  0.3486  0.1976  0.2651
 3719TIP3    H132572   4.610   0.565   5.953  0.3521  0.1749  0.5422
 3719TIP3    H232573   4.696   0.644   6.049 -0.3749  1.6147  0.0265
 3720TIP3   OH232574   0.522   0.634   1.011 -0.1093 -0.5881 -0.1302
 3720TIP3    H132575   0.439   0.588   1.024 -0.7344  0.7125  0.7267
 3720TIP3    H232576   0.550   0.657   1.100  1.2374 -1.0847 -0.4002
 3721TIP3   OH232577   5.619   1.456  15.613 -0.6703  0.5797  0.0220
 3721TIP3    H132578   5.542   1.400  15.605  0.3209 -1.0831  1.3520
 3721TIP3    H232579   5.594   1.523  15.677 -1.5657  1.1464 -0.8950
 3722TIP3   OH232580   1.228   4.477  13.987 -0.3740  0.0286  0.0073
 3722TIP3    H132581   1.146   4.505  14.027  0.1424  0.5705  0.6983
 3722TIP3    H232582   1.236   4.384  14.011 -1.1343 -0.2377 -0.6869
 3723TIP3   OH232583   6.233   3.708   1.698  0.3833  0.0545 -0.0531
 3723TIP3    H132584   6.207   3.731   1.787 -0.5394 -1.5410  0.1298
 3723TIP3    H232585   6.318   3.665   1.708  0.1121 -0.4566  0.1246
 3724TIP3   OH232586   3.002   4.208   4.335 -0.3862  0.0967 -0.2949
 3724TIP3    H132587   3.013   4.147   4.408 -1.1397 -0.7239 -0.8396
 3724TIP3    H232588   2.944   4.276   4.368 -0.1434  0.1160  0.0915
 3725TIP3   OH232589   4.446   5.051   4.066  0.0458 -0.3524  0.7502
 3725TIP3    H132590   4.509   4.980   4.062  0.4530  0.0669 -0.6159
 3725TIP3    H232591   4.495   5.124   4.105  0.2263 -0.2158  0.2716
 3726TIP3   OH232592   0.034   3.193  11.977  0.8236  0.1497  0.1733
 3726TIP3    H132593  -0.022   3.148  11.914 -0.1491  0.9886  0.4061
 3726TIP3    H232594   0.032   3.136  12.055  1.0695 -0.2953 -0.1410
 3727TIP3   OH232595   3.444   3.014  10.842  0.0282 -0.7665 -0.0373
 3727TIP3    H132596   3.496   2.978  10.913  1.0112 -0.4350 -0.5632
 3727TIP3    H232597   3.426   2.939  10.785  3.1455 -0.3448 -1.7929
 3728TIP3   OH232598   5.775   5.843   2.120 -0.2894 -0.3933  0.4859
 3728TIP3    H132599   5.805   5.849   2.029  0.9893  0.4054  0.9261
 3728TIP3    H232600   5.775   5.750   2.140 -0.3776 -0.5607 -0.2654
 3729TIP3   OH232601   5.297   3.715  13.274 -0.3803  0.0114 -0.2207
 3729TIP3    H132602   5.260   3.722  13.362  0.1672 -0.9374  0.0996
 3729TIP3    H232603   5.324   3.805  13.252 -1.1619  0.3775  0.2828
 3730TIP3   OH232604   3.598   3.763  13.502 -0.2670  0.3789  0.3067
 3730TIP3    H132605   3.693   3.767  13.490 -0.4837  1.5126 -1.3989
 3730TIP3    H232606   3.573   3.676  13.469  0.1843  0.0108  0.9211
 3731TIP3   OH232607   0.452   2.002   3.139 -0.0212  0.3686 -0.0558
 3731TIP3    H132608   0.439   2.079   3.194 -0.2297 -1.4286  2.5452
 3731TIP3    H232609   0.364   1.966   3.127  0.1039  0.3687 -1.0757
 3732TIP3   OH232610   2.765   0.288  16.054 -0.1365 -0.1253 -0.6575
 3732TIP3    H132611   2.698   0.247  16.000 -1.2844 -1.7754  1.7835
 3732TIP3    H232612   2.739   0.266  16.144  3.1374  0.0168  0.4615
 3733TIP3   OH232613   1.651   1.254  13.098 -0.0608  0.4139 -0.2862
 3733TIP3    H132614   1.562   1.249  13.064 -0.0785 -0.8182 -0.1158
 3733TIP3    H232615   1.705   1.211  13.032  0.4500  1.3473 -0.4920
 3734TIP3   OH232616   5.323   4.676   3.866  0.0738 -0.0716  0.2672
 3734TIP3    H132617   5.374   4.746   3.908 -0.6358 -1.4366  3.6711
 3734TIP3    H232618   5.233   4.706   3.871  0.0313  0.1558 -1.2928
 3735TIP3   OH232619   1.830   3.449  13.185  0.0224 -0.3515  0.3626
 3735TIP3    H132620   1.757   3.439  13.246  1.2695  1.1800  2.2337
 3735TIP3    H232621   1.866   3.360  13.176 -0.9605 -0.8132  0.8270
 3736TIP3   OH232622   3.516   0.239  11.748 -0.8455  0.6457 -0.5651
 3736TIP3    H132623   3.612   0.238  11.743 -0.8828  1.1242 -1.8077
 3736TIP3    H232624   3.492   0.330  11.729 -1.5130  0.8574  1.1230
 3737TIP3   OH232625   3.110   6.161  11.156 -0.1031  0.7950 -0.1016
 3737TIP3    H132626   3.090   6.073  11.188  0.9224  0.9740  1.1351
 3737TIP3    H232627   3.065   6.219  11.217  0.2379  1.1288 -0.1610
 3738TIP3   OH232628   1.212   2.748   5.660  0.3448 -0.0240 -0.1793
 3738TIP3    H132629   1.131   2.763   5.708 -1.0401 -2.8213 -1.4564
 3738TIP3    H232630   1.185   2.734   5.569  2.3060 -0.4741 -0.7568
 3739TIP3   OH232631   4.188   0.552  16.907 -0.4097 -0.1541 -0.6097
 3739TIP3    H132632   4.157   0.480  16.961 -2.1830  0.6619 -0.4925
 3739TIP3    H232633   4.271   0.519  16.870  0.6578 -0.8894  2.1937
 3740TIP3   OH232634   4.416   1.539   0.056  0.7032 -0.7257  0.2246
 3740TIP3    H132635   4.408   1.458   0.106  1.1904 -0.1542  1.2885
 3740TIP3    H232636   4.511   1.556   0.053  0.6524 -0.5461 -0.5681
 3741TIP3   OH232637   3.095   3.634  15.352 -0.5489 -0.6865  0.2916
 3741TIP3    H132638   3.108   3.726  15.377 -1.1696 -0.3368 -0.6616
 3741TIP3    H232639   3.184   3.598  15.349 -0.3780 -0.4979  2.0263
 3742TIP3   OH232640   1.573   0.318   3.432 -0.4457  0.1202  0.3673
 3742TIP3    H132641   1.543   0.318   3.341 -1.7918  0.2783  0.7858
 3742TIP3    H232642   1.534   0.239   3.469 -0.1832  0.2368  0.8889
 3743TIP3   OH232643   1.909   2.569   2.563  0.6660 -0.4008 -0.4735
 3743TIP3    H132644   1.835   2.580   2.504  2.0915  2.0692 -1.9826
 3743TIP3    H232645   1.980   2.619   2.522  2.3429 -0.2712  2.3145
 3744TIP3   OH232646   5.862   5.989  17.129  0.7345 -0.0151 -0.1501
 3744TIP3    H132647   5.825   5.904  17.105  2.4699 -0.9352  0.3453
 3744TIP3    H232648   5.956   5.981  17.111  1.4939  0.6331  3.0214
 3745TIP3   OH232649   0.136   5.128  12.220  0.1395 -0.0982  0.5643
 3745TIP3    H132650   0.170   5.101  12.135  0.4889  0.4841  0.5187
 3745TIP3    H232651   0.211   5.127  12.278  0.0627  0.2891  0.6768
 3746TIP3   OH232652   0.095   5.110  16.502 -0.1554  1.2735  0.5881
 3746TIP3    H132653   0.074   5.078  16.590 -0.3353  0.6772  0.3330
 3746TIP3    H232654   0.184   5.077  16.485 -1.7466 -2.7169 -1.2664
 3747TIP3   OH232655   3.140   3.264  12.969  0.5074  0.1790 -0.0589
 3747TIP3    H132656   3.162   3.234  12.881 -0.5509 -1.7805  0.2732
 3747TIP3    H232657   3.203   3.218  13.026  0.3545  0.4157  0.3017
 3748TIP3   OH232658   6.658   5.347   5.403 -0.5269 -0.0455 -0.3914
 3748TIP3    H132659   6.621   5.429   5.433 -1.9824  0.2106 -2.6475
 3748TIP3    H232660   6.585   5.301   5.361  0.5436 -1.9134 -0.3282
 3749TIP3   OH232661   4.739   6.283  17.143 -0.2796  0.1500  0.1678
 3749TIP3    H132662   4.788   6.234  17.208  0.5371 -0.6382 -0.9917
 3749TIP3    H232663   4.677   6.220  17.106  1.1448 -0.2652 -1.7118
 3750TIP3   OH232664   1.822   6.672  13.133  0.7811  0.5333 -0.0773
 3750TIP3    H132665   1.806   6.579  13.117 -1.0865  0.9492 -0.9324
 3750TIP3    H232666   1.872   6.701  13.057  2.9709 -0.0833  1.0332
 3751TIP3   OH232667   4.981   0.067   1.866 -0.1465  0.1085  0.4863
 3751TIP3    H132668   5.023   0.097   1.947 -1.1256  1.6136  0.4635
 3751TIP3    H232669   4.953   0.147   1.821 -2.3846 -0.7692  0.1611
 3752TIP3   OH232670   5.857   3.166   1.569 -0.1173  0.3611  0.2081
 3752TIP3    H132671   5.831   3.103   1.636 -0.7754 -1.1024 -1.3461
 3752TIP3    H232672   5.932   3.125   1.526 -1.0770  0.2216 -1.3866
 3753TIP3   OH232673   1.472   4.332   4.028  0.1095  0.4147 -0.3497
 3753TIP3    H132674   1.471   4.273   4.104 -1.2790 -2.7829 -2.6196
 3753TIP3    H232675   1.411   4.402   4.051  0.1152 -0.1802  1.6565
 3754TIP3   OH232676   5.324   0.300  16.358 -0.3006  0.2247  0.0285
 3754TIP3    H132677   5.378   0.379  16.362 -1.3018  0.9534 -0.3606
 3754TIP3    H232678   5.277   0.307  16.275 -1.9460  0.2756  0.9305
 3755TIP3   OH232679   0.469   6.139   4.905  0.2925 -0.1243 -0.3118
 3755TIP3    H132680   0.382   6.180   4.913  0.3471  0.1587 -1.1591
 3755TIP3    H232681   0.485   6.134   4.811  1.6328  0.7393 -0.1475
 3756TIP3   OH232682   0.324   0.458  14.001 -0.2200 -0.3853 -0.2250
 3756TIP3    H132683   0.286   0.380  13.960  1.4677 -0.4759 -1.7565
 3756TIP3    H232684   0.295   0.531  13.946  0.1562 -0.2166 -0.2001
 3757TIP3   OH232685   3.916   0.056   1.079  0.3183 -0.2061  0.6473
 3757TIP3    H132686   3.872   0.140   1.075  0.5406  0.0199  2.2705
 3757TIP3    H232687   3.854  -0.006   1.039 -0.4394  0.4940  0.7166
 3758TIP3   OH232688   4.560   3.304   3.608  0.4786  0.2595  0.6856
 3758TIP3    H132689   4.619   3.358   3.555  0.4289  1.5737  1.9024
 3758TIP3    H232690   4.475   3.348   3.603 -0.1969 -1.0874 -0.2680
 3759TIP3   OH232691   6.424   1.086  12.550 -0.5354  0.6170  0.1224
 3759TIP3    H132692   6.456   1.026  12.483  0.7452  0.9572  0.3947
 3759TIP3    H232693   6.460   1.051  12.632 -0.5369  1.2362  0.3902
 3760TIP3   OH232694   5.958   4.212  12.577  0.1232  0.3203 -0.2617
 3760TIP3    H132695   5.938   4.150  12.648  1.1906  0.2832  0.0152
 3760TIP3    H232696   5.893   4.192  12.510 -1.5463  0.9876  1.0548
 3761TIP3   OH232697   1.366   0.742  16.643 -0.3937 -0.1148  0.0615
 3761TIP3    H132698   1.275   0.742  16.615 -0.3445  1.1524 -0.1532
 3761TIP3    H232699   1.384   0.833  16.666  1.6674  0.2882 -2.6606
 3762TIP3   OH232700   5.682   2.610  16.484 -0.4232 -0.2730 -0.3545
 3762TIP3    H132701   5.603   2.591  16.534  0.8229 -0.1837  1.7535
 3762TIP3    H232702   5.666   2.697  16.446 -0.8009  0.4002  1.2488
 3763TIP3   OH232703   3.405   3.952  15.017 -0.2710  0.5471  0.7832
 3763TIP3    H132704   3.345   3.928  15.088 -0.6615  3.2574  1.5063
 3763TIP3    H232705   3.489   3.968  15.060 -0.7097  3.0018  0.8747
 3764TIP3   OH232706   4.768   0.333   2.331 -0.2228 -0.1297  0.0113
 3764TIP3    H132707   4.851   0.291   2.356 -0.2062 -0.3746 -0.4317
 3764TIP3    H232708   4.794   0.417   2.293 -0.0492 -0.7995 -1.4388
 3765TIP3   OH232709   2.732   2.872  13.497  0.2782  0.5927 -0.0658
 3765TIP3    H132710   2.739   2.779  13.519  1.1533  0.6457 -0.1052
 3765TIP3    H232711   2.723   2.916  13.581 -0.2711  0.4747 -0.0525
 3766TIP3   OH232712   6.428   6.203   1.638 -0.2232  0.4480 -0.0993
 3766TIP3    H132713   6.477   6.126   1.667  1.6151  1.5581 -0.1041
 3766TIP3    H232714   6.425   6.260   1.715 -0.0031  1.1206 -0.5800
 3767TIP3   OH232715   5.148   2.772   4.742  0.6890 -0.2842  0.3263
 3767TIP3    H132716   5.223   2.730   4.698  0.1180 -0.2628 -0.7060
 3767TIP3    H232717   5.081   2.776   4.674 -0.4607 -0.8285  1.3977
 3768TIP3   OH232718   4.245   4.735  16.738  0.1953  0.2538 -0.0377
 3768TIP3    H132719   4.298   4.710  16.662  0.7900  0.1814  0.3951
 3768TIP3    H232720   4.219   4.826  16.720  0.2442  0.2020 -0.3744
 3769TIP3   OH232721   5.052   4.939   2.495 -0.5712 -0.5492  0.1138
 3769TIP3    H132722   4.971   4.888   2.497  0.8681 -3.1260 -1.7398
 3769TIP3    H232723   5.113   4.891   2.551  0.0213  0.7661  0.6353
 3770TIP3   OH232724   0.960   4.734  12.367  0.4173  0.6967 -0.0357
 3770TIP3    H132725   0.930   4.694  12.286 -1.9884 -0.1218  1.1746
 3770TIP3    H232726   1.054   4.715  12.370  0.3134 -0.3751 -1.9685
 3771TIP3   OH232727   2.080   1.188   1.271  0.5246  0.0084 -0.2725
 3771TIP3    H132728   2.015   1.125   1.301  0.4196  0.5211  0.6210
 3771TIP3    H232729   2.163   1.153   1.303  0.3764  0.7298  0.9746
 3772TIP3   OH232730   0.763   1.883   4.276 -0.3921 -0.2818  0.0801
 3772TIP3    H132731   0.839   1.845   4.320 -0.1249 -0.3519 -0.4238
 3772TIP3    H232732   0.784   1.875   4.182  0.1642  2.0713 -0.0590
 3773TIP3   OH232733   3.200   0.454  15.353 -0.0600  0.7046  0.0556
 3773TIP3    H132734   3.144   0.377  15.345  1.5062 -0.5031  0.1013
 3773TIP3    H232735   3.251   0.439  15.433  0.2834  1.7857  0.0621
 3774TIP3   OH232736   5.730   1.094   1.541  0.0286  0.1716 -0.1065
 3774TIP3    H132737   5.741   1.109   1.635  0.3153  0.7028 -0.2187
 3774TIP3    H232738   5.635   1.101   1.526  0.0289  0.5602  0.0676
 3775TIP3   OH232739   4.996   4.387  17.166  0.3050  0.0368  0.0187
 3775TIP3    H132740   5.063   4.399  17.098 -1.4396  0.2431 -1.7337
 3775TIP3    H232741   4.939   4.319  17.130 -1.7764  1.5325  0.3509
 3776TIP3   OH232742   0.316   4.997   0.803  0.4319 -0.2858  0.3524
 3776TIP3    H132743   0.262   4.938   0.750  1.4931  0.5753 -1.8071
 3776TIP3    H232744   0.390   4.943   0.831  1.3813 -0.0765 -1.5832
 3777TIP3   OH232745   0.319   2.482  12.535 -0.1984 -0.0599 -0.4839
 3777TIP3    H132746   0.378   2.554  12.555  0.5365 -0.6207 -0.6073
 3777TIP3    H232747   0.246   2.524  12.489  0.3486  0.5637 -0.8059
 3778TIP3   OH232748   2.602   5.747   5.518  0.1198  0.0837 -0.0331
 3778TIP3    H132749   2.694   5.739   5.542  0.4567  2.4118 -0.2409
 3778TIP3    H232750   2.604   5.785   5.430 -1.0537 -0.8143 -0.4675
 3779TIP3   OH232751   1.253   3.458   5.522 -0.4417  0.3238 -0.4746
 3779TIP3    H132752   1.340   3.496   5.532  0.4286 -1.7750  0.5997
 3779TIP3    H232753   1.247   3.394   5.593 -2.6436 -0.0113 -0.8902
 3780TIP3   OH232754   2.841   6.123  15.308  0.1504 -0.2977 -0.0136
 3780TIP3    H132755   2.934   6.106  15.326  0.5124 -2.1385 -3.0359
 3780TIP3    H232756   2.835   6.219  15.306  1.6712 -0.1146  1.4285
 3781TIP3   OH232757   0.927   6.741  16.897 -0.1312 -0.3139  0.4751
 3781TIP3    H132758   0.959   6.773  16.812 -0.5042  1.4170  0.9538
 3781TIP3    H232759   1.003   6.745  16.954 -0.0724 -0.7226  0.4284
 3782TIP3   OH232760   3.920   2.768  10.495 -0.3895 -0.2173 -0.3305
 3782TIP3    H132761   3.987   2.720  10.446  0.0876 -0.6127  0.6846
 3782TIP3    H232762   3.892   2.708  10.564  0.2773  0.9681  1.0171
 3783TIP3   OH232763   4.600   1.517  11.882  0.0389  0.4324  0.3044
 3783TIP3    H132764   4.524   1.542  11.934  0.4396  1.1792  0.5385
 3783TIP3    H232765   4.564   1.500  11.795 -0.5307 -0.1555  0.6496
 3784TIP3   OH232766   4.749   2.199  17.083  0.0691  0.2372 -0.4567
 3784TIP3    H132767   4.800   2.191  17.164 -0.2694 -0.6037 -0.3185
 3784TIP3    H232768   4.660   2.218  17.112  0.0807  0.6352 -0.6658
 3785TIP3   OH232769   6.287   1.929   2.044 -0.4117 -0.0380 -0.4525
 3785TIP3    H132770   6.315   1.840   2.023 -0.4065 -0.1244 -0.0747
 3785TIP3    H232771   6.225   1.920   2.116 -3.0015 -0.0251 -2.5569
 3786TIP3   OH232772   4.861   6.448   1.125  0.4065 -0.9033 -0.1741
 3786TIP3    H132773   4.837   6.518   1.186  0.3097 -0.8590 -0.2642
 3786TIP3    H232774   4.954   6.432   1.142  0.4292 -0.7507 -0.1579
 3787TIP3   OH232775   6.216   6.152   5.086 -0.1294  0.7565  0.0031
 3787TIP3    H132776   6.186   6.209   5.015  0.9210  0.0304 -1.0766
 3787TIP3    H232777   6.272   6.207   5.139  2.0587  0.4686 -1.8486
 3788TIP3   OH232778   6.497   0.806   0.753 -0.2793  0.0015 -0.6797
 3788TIP3    H132779   6.455   0.791   0.837 -0.1901 -2.2607 -0.9719
 3788TIP3    H232780   6.577   0.853   0.773 -0.7087  0.2913  0.3884
 3789TIP3   OH232781   1.343   2.900  12.121 -0.1929 -0.1512  0.0881
 3789TIP3    H132782   1.425   2.936  12.087 -0.0988 -0.1733  0.2898
 3789TIP3    H232783   1.297   2.976  12.157 -0.0066 -0.2269  0.4897
 3790TIP3   OH232784   5.311   3.452  15.035 -0.3359  0.4742  0.3732
 3790TIP3    H132785   5.236   3.433  14.978 -1.0215  0.1886  1.3310
 3790TIP3    H232786   5.355   3.526  14.993 -0.0944 -0.5225 -1.1725
 3791TIP3   OH232787   5.051   1.291   5.991 -0.3097  0.2219 -0.1902
 3791TIP3    H132788   5.074   1.361   6.051 -0.5555  0.6674 -0.6057
 3791TIP3    H232789   5.052   1.333   5.905 -0.8599 -0.1886 -0.3980
 3792TIP3   OH232790   4.078   2.867   2.393 -0.3983  0.6071  0.1590
 3792TIP3    H132791   4.045   2.778   2.388  0.0160  0.4789 -0.3476
 3792TIP3    H232792   4.093   2.882   2.487  2.7644 -1.0642  0.0205
 3793TIP3   OH232793   5.915   3.885  16.901  0.0099 -0.4319  0.3032
 3793TIP3    H132794   6.003   3.866  16.934  0.3129 -0.0569 -0.2767
 3793TIP3    H232795   5.893   3.970  16.940  0.7988  0.5281 -1.2549
 3794TIP3   OH232796   4.499   3.980   1.428  1.0656 -0.0872  0.1528
 3794TIP3    H132797   4.414   4.015   1.453  1.6153  1.5983 -0.2442
 3794TIP3    H232798   4.502   3.988   1.333  2.6875  2.4541  0.3309
 3795TIP3   OH232799   5.904   1.608  12.148 -0.2711  0.8043  0.2903
 3795TIP3    H132800   5.839   1.549  12.109  0.4550  0.2803 -0.1625
 3795TIP3    H232801   5.876   1.619  12.239 -0.1737 -0.6165  0.5099
 3796TIP3   OH232802   6.069   3.390  15.857 -0.3282 -0.0077  0.3482
 3796TIP3    H132803   6.123   3.464  15.885 -0.4612  0.0289  0.5060
 3796TIP3    H232804   5.979   3.418  15.871 -0.4344  0.3379 -0.9095
 3797TIP3   OH232805   5.315   5.628  13.316 -0.2595  0.0301 -0.2144
 3797TIP3    H132806   5.306   5.703  13.257 -0.7207 -0.7235 -1.1380
 3797TIP3    H232807   5.228   5.618  13.355  0.1916  0.8824  1.0755
 3798TIP3   OH232808   2.758   5.789   4.236 -0.1203  0.4697  0.5992
 3798TIP3    H132809   2.827   5.797   4.301  0.5753  1.3344 -0.2059
 3798TIP3    H232810   2.804   5.791   4.152 -1.1949  2.5799 -0.0093
 3799TIP3   OH232811   0.277   4.200   1.558 -0.0275 -0.0331 -0.3860
 3799TIP3    H132812   0.259   4.216   1.465 -1.5710 -1.0493 -0.2916
 3799TIP3    H232813   0.191   4.199   1.600  0.6133 -0.0189  0.9979
 3800TIP3   OH232814   4.115   2.273  13.747 -0.2123  0.1623 -0.8905
 3800TIP3    H132815   4.118   2.274  13.843 -1.0851 -1.0501 -0.8172
 3800TIP3    H232816   4.093   2.363  13.722  0.6299  0.6287  0.0120
 3801TIP3   OH232817   4.469   4.523  14.976 -0.2007 -0.4455  0.2439
 3801TIP3    H132818   4.490   4.588  14.909 -0.0145 -0.1213  0.6157
 3801TIP3    H232819   4.521   4.447  14.953 -1.1303 -0.8062 -0.7473
 3802TIP3   OH232820   6.554   6.173  16.641  0.6719  0.5753  0.2072
 3802TIP3    H132821   6.528   6.194  16.551 -1.2328  2.5890  1.1374
 3802TIP3    H232822   6.592   6.254  16.675  0.6656  0.0798  1.4670
 3803TIP3   OH232823   1.931   0.214  12.820 -0.4782 -0.0933  0.1605
 3803TIP3    H132824   1.964   0.301  12.798 -1.2983  0.4113  0.8343
 3803TIP3    H232825   1.942   0.163  12.740 -2.0712  1.2801 -1.0162
 3804TIP3   OH232826   0.902   4.001   4.154 -0.0204  0.1850 -0.1134
 3804TIP3    H132827   0.995   3.996   4.129 -0.1230 -0.4883 -0.3585
 3804TIP3    H232828   0.883   3.917   4.195 -0.6851  0.0955 -0.6028
 3805TIP3   OH232829   2.365   1.833  16.805  0.5496  0.3121 -0.1339
 3805TIP3    H132830   2.334   1.840  16.896 -0.8419 -1.5395 -0.4108
 3805TIP3    H232831   2.442   1.889  16.802  0.6308  0.4304  2.2027
 3806TIP3   OH232832   1.639   0.990   1.814  0.7858  0.8060  0.4195
 3806TIP3    H132833   1.665   1.038   1.893 -1.1763  2.3578  0.2029
 3806TIP3    H232834   1.544   0.982   1.821  0.6721  0.2131 -1.3694
 3807TIP3   OH232835   1.311   2.468  12.410  0.2028 -0.6868  0.0260
 3807TIP3    H132836   1.330   2.533  12.342  0.2703  2.4152  2.7689
 3807TIP3    H232837   1.226   2.494  12.445 -0.2333 -2.7193  0.6133
 3808TIP3   OH232838   5.824   6.115  12.267 -0.4000 -0.2283 -0.2319
 3808TIP3    H132839   5.802   6.137  12.177  0.7809  1.7892 -0.0955
 3808TIP3    H232840   5.908   6.069  12.261  0.1751  0.7654 -0.1481
 3809TIP3   OH232841   2.172   1.661  13.149 -0.0950 -0.5836  0.2503
 3809TIP3    H132842   2.166   1.754  13.168 -1.1180 -0.8198  1.1857
 3809TIP3    H232843   2.161   1.656  13.054 -4.7944  0.0107  0.5190
 3810TIP3   OH232844   0.812   2.372   4.953 -0.0185 -0.3132  0.2379
 3810TIP3    H132845   0.806   2.370   5.048  0.6024  1.5409  0.3467
 3810TIP3    H232846   0.747   2.436   4.926  0.1082 -0.5054 -0.5506
 3811TIP3   OH232847   6.496   1.154   4.427 -0.2509 -0.1085 -0.1228
 3811TIP3    H132848   6.536   1.078   4.386 -0.0109 -0.3751  0.5902
 3811TIP3    H232849   6.423   1.178   4.369 -0.3519 -0.9084 -0.3266
 3812TIP3   OH232850   3.485   2.503  10.995 -0.2146 -0.1300 -0.4353
 3812TIP3    H132851   3.564   2.501  11.048 -0.2375  0.4749 -0.3653
 3812TIP3    H232852   3.508   2.559  10.920 -1.0299  1.3109  0.3552
 3813TIP3   OH232853   4.833   5.241  16.004 -0.3618 -0.0295  0.1987
 3813TIP3    H132854   4.796   5.173  15.947  0.2808 -1.5200  1.4885
 3813TIP3    H232855   4.823   5.206  16.092  2.0361  0.5057  0.7446
 3814TIP3   OH232856   2.742   6.425   1.908  0.0989 -0.4057  0.6990
 3814TIP3    H132857   2.680   6.496   1.925  0.0215 -0.2571 -0.1206
 3814TIP3    H232858   2.749   6.378   1.991 -0.9476 -0.2876  0.8671
 3815TIP3   OH232859   0.677   3.154  11.693  0.1126  0.4920 -0.4007
 3815TIP3    H132860   0.700   3.065  11.718  0.1539  0.4886 -0.4504
 3815TIP3    H232861   0.642   3.146  11.605  0.8506  0.6247 -0.7174
 3816TIP3   OH232862   2.066   6.307   3.327 -0.1794  0.2485  0.7516
 3816TIP3    H132863   2.106   6.307   3.240 -1.0902 -0.8932  0.3071
 3816TIP3    H232864   1.973   6.322   3.311 -0.9521 -3.2278  1.1536
 3817TIP3   OH232865   4.597   5.217  16.373  0.5933 -0.1323  0.1325
 3817TIP3    H132866   4.642   5.290  16.415  0.3883  0.7016 -1.0612
 3817TIP3    H232867   4.566   5.252  16.290  0.7020 -1.6463 -0.5813
 3818TIP3   OH232868   1.679   5.142  13.705 -0.1725 -0.0741 -0.0260
 3818TIP3    H132869   1.600   5.157  13.757 -0.0049 -1.4128  0.6345
 3818TIP3    H232870   1.740   5.099  13.764  1.6215  2.1411 -0.1024
 3819TIP3   OH232871   2.145   3.724   1.469  0.0831 -0.0715  0.2922
 3819TIP3    H132872   2.199   3.707   1.392 -1.2856 -0.6678 -0.5682
 3819TIP3    H232873   2.109   3.638   1.492 -0.0361  0.2178  1.2002
 3820TIP3   OH232874   4.664   3.153  10.848 -0.7002 -0.8052  0.4002
 3820TIP3    H132875   4.660   3.247  10.827 -1.8004 -0.5488  1.6129
 3820TIP3    H232876   4.595   3.114  10.795 -1.2034 -0.6861  0.9516
 3821TIP3   OH232877   5.400   6.263  16.766  0.5389  0.0369  0.0876
 3821TIP3    H132878   5.396   6.167  16.770  2.8945 -0.0966  1.2775
 3821TIP3    H232879   5.462   6.287  16.835  1.5649  2.2637 -1.4749
 3822TIP3   OH232880   0.057   5.792   0.154 -0.0763  0.2891 -0.8355
 3822TIP3    H132881   0.012   5.773   0.236  0.4536 -1.3976 -0.9002
 3822TIP3    H232882   0.002   5.858   0.111 -0.6160  0.8286  0.6287
 3823TIP3   OH232883   1.415   1.813  13.308  0.0280  0.7559 -0.9205
 3823TIP3    H132884   1.461   1.817  13.392  0.1295  1.4993 -1.0037
 3823TIP3    H232885   1.422   1.722  13.281 -2.0239 -0.0673  0.9812
 3824TIP3   OH232886   2.746   2.521   2.384 -0.4290  0.7963 -0.5420
 3824TIP3    H132887   2.682   2.561   2.325 -2.4032 -0.1300  0.8682
 3824TIP3    H232888   2.704   2.524   2.470  0.5580 -1.6656  0.1005
 3825TIP3   OH232889   3.328   3.779   0.064 -0.3841 -0.6352 -0.4594
 3825TIP3    H132890   3.397   3.844   0.051  0.2236 -0.9473  1.0072
 3825TIP3    H232891   3.321   3.734  -0.021  0.0656  0.4902 -1.1095
 3826TIP3   OH232892   3.356   1.412  10.812  0.4384  0.4429 -0.3538
 3826TIP3    H132893   3.387   1.502  10.812  1.2529  0.1798  0.3114
 3826TIP3    H232894   3.311   1.402  10.896  1.0894  0.0005 -0.0458
 3827TIP3   OH232895   5.966   3.781   5.300  0.6964 -0.1553 -0.1766
 3827TIP3    H132896   5.898   3.815   5.242  1.0819  1.1406  0.1066
 3827TIP3    H232897   6.011   3.859   5.333  0.8078 -0.8762  1.4791
 3828TIP3   OH232898   2.355   6.608   4.024 -0.5036  0.2123  0.0250
 3828TIP3    H132899   2.428   6.611   3.962  1.4181  1.3433  2.1882
 3828TIP3    H232900   2.368   6.685   4.080 -1.5626 -1.2322  2.4139
 3829TIP3   OH232901   5.977   1.889   1.437 -0.1001 -0.2076  0.0295
 3829TIP3    H132902   5.939   1.928   1.515  0.4517 -0.3117  0.3598
 3829TIP3    H232903   5.956   1.949   1.366 -0.8746 -0.2707  0.2022
 3830TIP3   OH232904   3.035   4.404   6.252  0.0691  0.2854  0.0750
 3830TIP3    H132905   3.059   4.359   6.333  0.4454  0.2752 -0.0381
 3830TIP3    H232906   3.093   4.481   6.249  0.5815 -0.1139 -0.5509
 3831TIP3   OH232907   2.777   0.109  13.703 -0.0582 -0.6228  0.0030
 3831TIP3    H132908   2.687   0.142  13.709 -0.6927 -2.1605 -0.5192
 3831TIP3    H232909   2.827   0.183  13.669 -0.7913  0.7790  1.7955
 3832TIP3   OH232910   3.660   5.355  11.847 -0.1757 -0.4468  0.0132
 3832TIP3    H132911   3.590   5.296  11.877 -0.4536  0.3237  0.9218
 3832TIP3    H232912   3.682   5.322  11.760 -0.7118 -1.5498  0.2680
 3833TIP3   OH232913   2.664   0.610   0.751 -0.5624 -0.5705 -0.0825
 3833TIP3    H132914   2.577   0.586   0.720 -0.0009 -1.7854 -0.7921
 3833TIP3    H232915   2.714   0.528   0.749  0.4713  0.0086  0.7554
 3834TIP3   OH232916   1.078   0.239   5.886  0.0327  0.2796 -0.0404
 3834TIP3    H132917   1.023   0.175   5.931  1.3009 -1.6035 -1.0214
 3834TIP3    H232918   1.081   0.207   5.795 -0.0179  2.2626 -0.7799
 3835TIP3   OH232919   6.056   0.602  11.640 -0.0052  0.5221  0.0255
 3835TIP3    H132920   6.032   0.686  11.601  2.1362  1.9612  1.5782
 3835TIP3    H232921   5.989   0.586  11.706 -1.9145 -0.4084 -1.9959
 3836TIP3   OH232922   4.890   1.612   2.015 -0.1723  0.0016  0.3435
 3836TIP3    H132923   4.917   1.581   2.102  0.8495 -1.1951 -0.3643
 3836TIP3    H232924   4.804   1.573   2.002 -1.6327  2.4425  1.9094
 3837TIP3   OH232925   0.454   1.114  11.984 -0.7498  0.2240 -0.1806
 3837TIP3    H132926   0.444   1.022  11.962 -0.2154  0.0646  0.2042
 3837TIP3    H232927   0.392   1.160  11.927 -0.9885 -0.3663 -0.4029
 3838TIP3   OH232928   6.163   3.737   1.965  0.1399  0.1250  0.1829
 3838TIP3    H132929   6.126   3.769   2.048 -0.2910  0.0496  0.0233
 3838TIP3    H232930   6.248   3.699   1.990  0.1056  0.2840  0.5583
 3839TIP3   OH232931   1.013   3.329   4.155 -0.3526 -0.0100  0.1641
 3839TIP3    H132932   0.943   3.264   4.154  1.0550 -1.5816  0.5171
 3839TIP3    H232933   0.992   3.387   4.081 -2.3287 -0.0526  0.6335
 3840TIP3   OH232934   0.603   6.234  11.813  0.4254 -0.7451  0.2572
 3840TIP3    H132935   0.542   6.301  11.782 -0.4786 -1.2349  0.9071
 3840TIP3    H232936   0.681   6.246  11.760  0.6208  1.3993  0.9476
 3841TIP3   OH232937   4.700   3.310  15.466 -0.2148 -0.4424  0.1311
 3841TIP3    H132938   4.791   3.338  15.476 -0.1431  0.1667 -1.7576
 3841TIP3    H232939   4.649   3.390  15.472 -0.4453 -0.5206 -0.6729
 3842TIP3   OH232940   2.156   2.995  13.329 -0.3684  0.1028 -0.6068
 3842TIP3    H132941   2.151   3.005  13.234 -0.0213 -0.0362 -0.6423
 3842TIP3    H232942   2.249   3.008  13.349  0.1090 -2.6189 -0.6343
 3843TIP3   OH232943   1.454   5.605   1.785  0.2353  0.3067  0.7199
 3843TIP3    H132944   1.375   5.560   1.816 -1.0930 -0.0951 -2.8503
 3843TIP3    H232945   1.435   5.698   1.797 -1.7058  0.3365 -1.7405
 3844TIP3   OH232946   1.632   5.561  11.955  0.8471 -0.2458 -0.9180
 3844TIP3    H132947   1.650   5.492  11.892 -1.8612  0.2769 -2.3999
 3844TIP3    H232948   1.577   5.624  11.908  0.0409  1.0029  1.4869
 3845TIP3   OH232949   0.462   4.128  10.537 -0.3045  0.4412  0.0145
 3845TIP3    H132950   0.541   4.171  10.504  0.5361 -1.1736 -0.1527
 3845TIP3    H232951   0.392   4.158  10.478  0.1447  1.9193  0.1913
 3846TIP3   OH232952   2.906   3.871   1.848 -0.3186  0.5748 -0.4193
 3846TIP3    H132953   2.859   3.805   1.797 -1.3065  1.7510 -1.1204
 3846TIP3    H232954   2.998   3.845   1.843 -0.8219 -1.7550  0.8972
 3847TIP3   OH232955   1.858   4.257  11.567 -0.3353  0.9032  0.2168
 3847TIP3    H132956   1.813   4.245  11.483 -0.0196 -1.2071  0.3038
 3847TIP3    H232957   1.940   4.300  11.545  0.3788 -0.8746 -0.7959
 3848TIP3   OH232958   6.735   0.637  15.651  0.1848 -0.0801  0.0137
 3848TIP3    H132959   6.729   0.717  15.704  0.6298 -0.3818  0.5312
 3848TIP3    H232960   6.722   0.566  15.713  2.1145 -0.5001 -0.0021
 3849TIP3   OH232961   2.153   2.947   3.651 -0.3663  0.5391 -0.2407
 3849TIP3    H132962   2.080   2.973   3.594 -0.4681  0.1107 -0.3122
 3849TIP3    H232963   2.187   2.868   3.610  0.4128  0.9752 -0.4391
 3850TIP3   OH232964   1.611   6.442  14.316  0.0328  0.6483 -0.3318
 3850TIP3    H132965   1.668   6.499  14.265  0.8981  0.2535  0.1666
 3850TIP3    H232966   1.665   6.365  14.336 -0.6269  0.3256  0.2721
 3851TIP3   OH232967   0.294   1.267   5.656  0.0985 -0.1429  0.4595
 3851TIP3    H132968   0.362   1.307   5.603  1.1827 -0.9082  1.2340
 3851TIP3    H232969   0.213   1.284   5.608  0.8291  0.7507 -0.4947
 3852TIP3   OH232970   4.645   4.254   2.447  0.3588  0.2861  0.1608
 3852TIP3    H132971   4.729   4.229   2.408 -0.5003  0.4061 -1.8743
 3852TIP3    H232972   4.636   4.347   2.424 -0.9760 -0.0895 -0.8917
 3853TIP3   OH232973   4.481   6.051   5.496  0.1660 -0.0488  0.2817
 3853TIP3    H132974   4.574   6.073   5.496  0.1107  0.4776  2.9955
 3853TIP3    H232975   4.439   6.120   5.444  1.0071  1.1874  1.2242
 3854TIP3   OH232976   0.683   0.592  12.106 -0.0995 -0.0073  0.3210
 3854TIP3    H132977   0.656   0.672  12.151 -0.8150 -0.3144  0.4524
 3854TIP3    H232978   0.723   0.538  12.175 -0.1276  0.0084  0.3497
 3855TIP3   OH232979   4.484   6.331  14.172  0.2484  0.5639  0.2955
 3855TIP3    H132980   4.492   6.389  14.248 -0.1654  0.8652  0.1127
 3855TIP3    H232981   4.390   6.323  14.157  0.2777 -0.5753  0.6316
 3856TIP3   OH232982   5.067   3.217   6.076  0.2387 -0.0039  0.5614
 3856TIP3    H132983   5.090   3.308   6.095  0.3420 -0.2229  1.5714
 3856TIP3    H232984   5.070   3.173   6.162  0.4421 -1.0115  0.0626
 3857TIP3   OH232985   4.561   0.426  15.213  0.0584  0.1142 -0.0170
 3857TIP3    H132986   4.624   0.429  15.142 -0.4071 -0.8917 -0.5039
 3857TIP3    H232987   4.505   0.502  15.199  0.7033  0.5944 -0.0153
 3858TIP3   OH232988   2.121   5.549  16.204 -0.1539 -0.1080  0.2150
 3858TIP3    H132989   2.113   5.616  16.272  0.9239  1.0706 -0.7685
 3858TIP3    H232990   2.059   5.576  16.136  0.5320  0.1130 -0.3387
 3859TIP3   OH232991   1.165   2.847  15.683 -0.1064 -0.4694 -0.0640
 3859TIP3    H132992   1.229   2.865  15.752 -0.5095 -1.1521  0.5033
 3859TIP3    H232993   1.098   2.794  15.726 -1.5281  0.9876 -0.4028
 3860TIP3   OH232994   5.869   3.836  10.526 -0.3364  0.1503  0.4662
 3860TIP3    H132995   5.959   3.862  10.508 -0.8068  0.0687 -2.4766
 3860TIP3    H232996   5.815   3.897  10.476 -1.9412 -0.0135  1.8932
 3861TIP3   OH232997   6.234   5.133   3.762  0.1280 -0.0045  0.1135
 3861TIP3    H132998   6.231   5.226   3.786 -0.9851  0.2975 -1.1071
 3861TIP3    H232999   6.313   5.100   3.805  0.0437  1.2822  1.3255
 3862TIP3   OH233000   2.028   4.870   5.395 -0.0547  0.0765 -0.0363
 3862TIP3    H133001   1.944   4.906   5.365 -0.4036  0.3722  1.2657
 3862TIP3    H233002   2.004   4.800   5.455  0.6461 -1.1193 -1.1056
 3863TIP3   OH233003   2.081   2.439  15.914 -0.1365  0.0149 -0.0105
 3863TIP3    H133004   2.033   2.510  15.956 -2.2351 -1.8047  0.8263
 3863TIP3    H233005   2.134   2.401  15.985  0.2650  0.1264 -0.2441
 3864TIP3   OH233006   5.284   2.762   2.333  0.3366  0.5339  0.0225
 3864TIP3    H133007   5.247   2.697   2.392 -0.5863  1.7937  0.9010
 3864TIP3    H233008   5.352   2.716   2.285 -0.4268 -1.1067  0.4647
 3865TIP3   OH233009   5.503   4.880   0.260 -0.2694  0.3680  0.4087
 3865TIP3    H133010   5.411   4.853   0.256  0.0906 -0.8052 -1.3238
 3865TIP3    H233011   5.501   4.975   0.259 -1.4655  0.3884 -1.9492
 3866TIP3   OH233012   6.455   4.623   0.586 -0.0746  0.4375  0.3535
 3866TIP3    H133013   6.471   4.531   0.567  0.5254  0.3976  1.0180
 3866TIP3    H233014   6.534   4.653   0.631  0.3250  1.6327 -1.0583
 3867TIP3   OH233015   4.693   4.140   0.601  0.0433  0.1875 -0.5870
 3867TIP3    H133016   4.670   4.049   0.583  2.7707 -0.7551  0.2215
 3867TIP3    H233017   4.758   4.162   0.534  0.0973  1.2115 -0.2168
 3868TIP3   OH233018   6.674   2.325  17.154  0.1132 -0.4524 -0.2055
 3868TIP3    H133019   6.579   2.315  17.158 -0.1572  1.5823 -0.6069
 3868TIP3    H233020   6.708   2.256  17.211 -1.5234 -1.9648 -0.9627
 3869TIP3   OH233021   4.861   2.518  16.620  0.0732 -0.8438  0.3580
 3869TIP3    H133022   4.811   2.523  16.701 -0.8639 -0.3037 -0.2247
 3869TIP3    H233023   4.806   2.562  16.555  0.2754 -2.2540 -0.8305
 3870TIP3   OH233024   6.230   3.494  16.676  0.3300  0.2061 -0.3482
 3870TIP3    H133025   6.216   3.448  16.759  0.9083 -0.9751 -0.8869
 3870TIP3    H233026   6.149   3.481  16.627  0.7161 -0.8109 -0.7474
 3871TIP3   OH233027   2.651   2.145   3.927  0.1950 -0.0813  0.0871
 3871TIP3    H133028   2.700   2.090   3.866  2.3302  1.1096  0.6233
 3871TIP3    H233029   2.714   2.167   3.996 -1.4198  0.6722  1.4058
 3872TIP3   OH233030   6.395   4.590   3.442  0.5891 -0.2035 -0.0478
 3872TIP3    H133031   6.468   4.645   3.415 -0.8669  2.1567  0.5357
 3872TIP3    H233032   6.361   4.553   3.361 -0.4730  2.5465 -0.9623
 3873TIP3   OH233033   3.310   1.978   3.294 -0.3238  0.2871 -0.0145
 3873TIP3    H133034   3.335   1.930   3.215  0.2940 -0.1866  0.4696
 3873TIP3    H233035   3.356   2.062   3.287 -0.9486  0.6001 -0.5704
 3874TIP3   OH233036   6.557   4.282   1.418  0.2330 -0.6433  0.1861
 3874TIP3    H133037   6.477   4.327   1.445  0.1348 -0.5093 -0.3191
 3874TIP3    H233038   6.527   4.204   1.373  0.3623 -0.2536 -0.6028
 3875TIP3   OH233039   1.409   1.987  12.433  0.7127  0.5779 -0.1237
 3875TIP3    H133040   1.371   2.073  12.452  1.1077  0.2595  2.4241
 3875TIP3    H233041   1.335   1.927  12.441  0.8821  0.4430  0.5215
 3876TIP3   OH233042   6.622   1.399   4.468  0.2672  0.5589 -0.0016
 3876TIP3    H133043   6.709   1.392   4.429 -0.7783  0.1950 -2.4544
 3876TIP3    H233044   6.585   1.312   4.460  0.1999  0.2856  2.5343
 3877TIP3   OH233045   3.205   3.403  13.291  0.4952  0.7001  0.8326
 3877TIP3    H133046   3.237   3.480  13.338 -1.8602  1.7262  0.8596
 3877TIP3    H233047   3.280   3.344  13.289  2.0114  2.4818  1.8825
 3878TIP3   OH233048   1.588   3.060   0.766 -0.7022 -0.1263 -0.0005
 3878TIP3    H133049   1.500   3.027   0.787 -1.3397  1.1286 -0.5756
 3878TIP3    H233050   1.587   3.150   0.797  0.6863 -0.3531  0.7329
 3879TIP3   OH233051   4.722   5.322   4.497  0.6042 -0.5328  0.1790
 3879TIP3    H133052   4.751   5.283   4.415  1.8564  0.0571  0.3212
 3879TIP3    H233053   4.738   5.416   4.486 -0.0398 -0.3417  0.7674
 3880TIP3   OH233054   3.221   5.502   0.168  0.5591  0.1473 -0.2499
 3880TIP3    H133055   3.247   5.550   0.247  1.3231  1.5276 -1.3217
 3880TIP3    H233056   3.160   5.435   0.201  0.0781  1.3178  1.3863
 3881TIP3   OH233057   0.833   2.351  16.942  0.1882 -0.0476 -0.1715
 3881TIP3    H133058   0.927   2.332  16.941 -0.0344 -1.2930 -1.8852
 3881TIP3    H233059   0.791   2.268  16.918 -1.2535  0.9184 -1.1713
 3882TIP3   OH233060   6.412   1.722  11.866  0.4712 -0.1905 -0.2765
 3882TIP3    H133061   6.470   1.797  11.852 -0.3605  0.3128 -1.1123
 3882TIP3    H233062   6.465   1.646  11.843  1.3524  0.1117  0.6541
 3883TIP3   OH233063   1.860   5.962  16.743 -0.2200 -0.3566 -0.5471
 3883TIP3    H133064   1.925   5.905  16.785 -0.6573 -0.5811 -0.1697
 3883TIP3    H233065   1.783   5.957  16.799  0.3837  2.2194  0.6388
 3884TIP3   OH233066   4.078   6.729  16.954 -0.0531 -0.3186  0.0492
 3884TIP3    H133067   4.011   6.681  17.002 -0.1617 -0.1007  0.1152
 3884TIP3    H233068   4.057   6.822  16.968  0.4246 -0.2419  0.3031
 3885TIP3   OH233069   3.280   6.163  17.181  0.1004  0.2953 -0.4363
 3885TIP3    H133070   3.251   6.084  17.227  1.3664  0.8572  1.4187
 3885TIP3    H233071   3.356   6.134  17.130 -0.8922 -0.1698 -1.7339
 3886TIP3   OH233072   4.312   1.738   0.227  0.2022  0.0737  0.5177
 3886TIP3    H133073   4.330   1.664   0.169  2.4921 -1.6617  3.1701
 3886TIP3    H233074   4.363   1.811   0.191  1.4879 -0.9407  0.2260
 3887TIP3   OH233075   5.472   4.592  12.666  0.6063 -0.2608 -0.0806
 3887TIP3    H133076   5.456   4.684  12.645  1.9698  0.2583  1.0390
 3887TIP3    H233077   5.533   4.563  12.598 -0.6085 -0.6565 -1.0371
 3888TIP3   OH233078   3.874   1.890  16.616  0.4494 -0.2427  0.5596
 3888TIP3    H133079   3.871   1.986  16.606 -1.5945 -0.2213  0.9496
 3888TIP3    H233080   3.802   1.871  16.677 -1.5037 -2.3212 -2.1562
 3889TIP3   OH233081   4.656   4.844   2.873 -0.1439 -0.0038 -0.1448
 3889TIP3    H133082   4.740   4.849   2.919  1.5037  0.5348 -2.9935
 3889TIP3    H233083   4.662   4.764   2.820 -1.7322 -0.3210  0.1028
 3890TIP3   OH233084   0.914   1.639   5.267 -0.4236  0.1158 -0.1377
 3890TIP3    H133085   0.954   1.706   5.322 -0.4742  0.4159 -0.4640
 3890TIP3    H233086   0.869   1.581   5.328 -0.9195  0.7393  0.1009
 3891TIP3   OH233087   1.950   5.632  16.711  0.4976  0.5207  0.5314
 3891TIP3    H133088   1.979   5.689  16.782  0.3090 -0.5121  1.4551
 3891TIP3    H233089   1.946   5.545  16.750  1.0910 -0.1910 -0.9417
 3892TIP3   OH233090   6.759   3.571  10.800  0.3368  0.5028 -0.0577
 3892TIP3    H133091   6.727   3.492  10.756 -0.3279 -0.1918  1.5789
 3892TIP3    H233092   6.683   3.605  10.847  0.2883  2.8601 -1.6886
 3893TIP3   OH233093   5.044   6.485  12.375 -0.0460  0.0858  0.7448
 3893TIP3    H133094   4.949   6.495  12.384 -0.0844 -0.9867  1.9024
 3893TIP3    H233095   5.080   6.567  12.409 -0.5512  0.2445  0.9090
 3894TIP3   OH233096   5.458   6.305  11.954 -0.0617 -0.4845  0.2775
 3894TIP3    H133097   5.435   6.338  11.867 -0.2886 -1.2677  0.0277
 3894TIP3    H233098   5.377   6.313  12.004 -0.7082 -2.4770 -0.3628
 3895TIP3   OH233099   3.749   5.642   1.834 -0.4395 -0.5120 -0.2628
 3895TIP3    H133100   3.711   5.643   1.746  0.0834  0.6857 -0.4970
 3895TIP3    H233101   3.835   5.681   1.823 -1.0475  1.3358  1.0622
 3896TIP3   OH233102   2.351   1.062  15.969  0.2330  0.4260 -0.2145
 3896TIP3    H133103   2.296   1.032  16.042  1.3376 -0.0380  0.4455
 3896TIP3    H233104   2.316   1.148  15.947  0.4201  0.9731  1.4591
 3897TIP3   OH233105   5.992   2.218   5.316  0.8702 -0.3608  0.1474
 3897TIP3    H133106   6.037   2.286   5.265  0.8168  1.8580  2.8402
 3897TIP3    H233107   5.912   2.261   5.348  0.8070 -1.6915  1.9143
 3898TIP3   OH233108   1.761   4.173  12.249  0.5303  0.0832 -0.0968
 3898TIP3    H133109   1.740   4.195  12.340  0.3972 -0.9227  0.1237
 3898TIP3    H233110   1.676   4.164  12.207  0.5866  1.5252 -0.5902
 3899TIP3   OH233111   4.446   5.262  16.140  0.3253  0.2046  0.0621
 3899TIP3    H133112   4.472   5.196  16.075  0.9810 -1.1766  1.6412
 3899TIP3    H233113   4.356   5.237  16.164  0.7885 -0.5321  1.1053
 3900TIP3   OH233114   3.975   2.187  13.073 -0.5311 -0.2759 -0.1468
 3900TIP3    H133115   3.969   2.196  12.978  2.8797 -2.0318 -0.6930
 3900TIP3    H233116   3.942   2.099  13.091  0.1292 -0.4812  0.0799
 3901TIP3   OH233117   1.917   1.611   0.999  0.3104  0.1151 -0.0947
 3901TIP3    H133118   1.941   1.643   0.912 -0.0484  0.9455  0.1040
 3901TIP3    H233119   2.000   1.582   1.037  0.5075 -0.0188 -0.6208
 3902TIP3   OH233120   0.089   3.397   6.095 -0.5181 -0.5020  0.1056
 3902TIP3    H133121   0.131   3.479   6.120  0.8037 -0.5091 -1.8553
 3902TIP3    H233122   0.010   3.423   6.049 -0.3989 -0.3393 -0.0097
 3903TIP3   OH233123   1.175   0.574   1.752  0.3523  0.2632 -0.0840
 3903TIP3    H133124   1.143   0.488   1.726  0.4522  0.0037  0.6305
 3903TIP3    H233125   1.263   0.580   1.715  0.0918  0.3381 -0.7086
 3904TIP3   OH233126   6.103   2.917  14.769 -0.7607  0.7398  0.5019
 3904TIP3    H133127   6.027   2.862  14.750 -0.8398  1.2087 -0.6109
 3904TIP3    H233128   6.172   2.886  14.710 -0.3468  0.8697  0.9113
 3905TIP3   OH233129   0.420   4.502  13.768 -0.7467  0.7212 -0.1215
 3905TIP3    H133130   0.413   4.579  13.710 -0.2294  2.9551  2.5788
 3905TIP3    H233131   0.512   4.478  13.766 -1.0169 -0.3568 -1.4875
 3906TIP3   OH233132   6.391   4.878   5.523  0.5298  0.5800  0.4357
 3906TIP3    H133133   6.351   4.820   5.588  0.4903  0.1885  0.0689
 3906TIP3    H233134   6.393   4.964   5.565 -0.1818  0.4860  0.6630
 3907TIP3   OH233135   5.411   4.576  15.917 -0.5994 -0.1527 -0.0736
 3907TIP3    H133136   5.482   4.551  15.977  1.1115  2.0788 -1.0497
 3907TIP3    H233137   5.389   4.665  15.942 -0.6688  0.3992 -1.9775
 3908TIP3   OH233138   5.900   5.243   1.062 -0.2132 -0.0044  0.0147
 3908TIP3    H133139   5.975   5.287   1.104  0.6287 -0.6638 -0.7585
 3908TIP3    H233140   5.824   5.293   1.091  0.5129  0.6142  0.9180
 3909TIP3   OH233141   5.845   2.043  14.428 -0.4355 -0.2791  0.3760
 3909TIP3    H133142   5.847   2.132  14.391  2.7943 -0.3921 -0.0039
 3909TIP3    H233143   5.925   2.037  14.481  0.0728 -3.3465 -0.5573
 3910TIP3   OH233144   5.689   1.598   5.667 -0.1640 -0.4541  0.2163
 3910TIP3    H133145   5.595   1.592   5.684  0.0306  0.1782  1.6634
 3910TIP3    H233146   5.702   1.551   5.585 -1.4586 -2.3776  1.0309
 3911TIP3   OH233147   1.229   4.595   0.198 -0.5376 -0.0627  0.0568
 3911TIP3    H133148   1.164   4.630   0.136 -0.6491  2.0558  1.2817
 3911TIP3    H233149   1.312   4.603   0.151 -0.6714  1.1243 -0.0143
 3912TIP3   OH233150   2.366   0.467  12.813  0.4031 -0.1091 -0.4023
 3912TIP3    H133151   2.392   0.559  12.805 -1.2313  0.2499 -2.6754
 3912TIP3    H233152   2.442   0.418  12.782  1.4746  0.3858  1.3047
 3913TIP3   OH233153   1.476   0.818   5.247 -0.1240 -0.0206  0.0903
 3913TIP3    H133154   1.479   0.724   5.229  1.3085  0.1337 -0.6014
 3913TIP3    H233155   1.546   0.855   5.194 -0.1342  1.3389  0.9748
 3914TIP3   OH233156   5.725   2.260   0.756  0.2000 -0.4308 -0.0846
 3914TIP3    H133157   5.701   2.286   0.668  0.7172  0.9939  0.1796
 3914TIP3    H233158   5.788   2.325   0.785  0.5163 -1.2257  1.1147
 3915TIP3   OH233159   5.151   3.856   3.582 -0.2569 -0.0921 -0.1387
 3915TIP3    H133160   5.211   3.857   3.656 -0.3646 -2.3087  0.0431
 3915TIP3    H233161   5.091   3.928   3.598 -0.1424 -0.3830  1.8322
 3916TIP3   OH233162   0.508   4.553  11.506  0.7654  0.1750  0.2390
 3916TIP3    H133163   0.532   4.633  11.459 -0.1601  1.0737  1.2338
 3916TIP3    H233164   0.579   4.492  11.487  1.1306  0.9728 -1.1417
 3917TIP3   OH233165   3.620   6.629   2.340 -0.2388 -0.0247 -0.0898
 3917TIP3    H133166   3.669   6.684   2.278  0.1656 -0.9909 -0.6502
 3917TIP3    H233167   3.532   6.624   2.302 -0.1386 -0.1727 -0.3058
 3918TIP3   OH233168   1.461   5.066  14.110 -0.1676  0.4463  0.5169
 3918TIP3    H133169   1.525   5.002  14.077 -0.2576  1.4206 -1.7147
 3918TIP3    H233170   1.439   5.034  14.197  2.6288 -0.4639  1.0004
 3919TIP3   OH233171   5.627   5.072   2.108 -0.0902 -0.4257  0.4412
 3919TIP3    H133172   5.681   5.022   2.170  0.7673  0.5514  0.5079
 3919TIP3    H233173   5.689   5.131   2.064 -1.0218  0.3671  0.1523
 3920TIP3   OH233174   2.695   2.428  15.403 -0.4885  0.0158 -0.1940
 3920TIP3    H133175   2.678   2.451  15.311  2.6315 -3.2293 -1.8528
 3920TIP3    H233176   2.790   2.441  15.413 -0.6297 -0.4488  2.3757
 3921TIP3   OH233177   0.827   6.083  12.888 -0.4143 -0.4523 -0.4774
 3921TIP3    H133178   0.788   5.998  12.871  1.5936 -1.5078 -0.0437
 3921TIP3    H233179   0.917   6.064  12.913  0.3664  1.8684 -1.2843
 3922TIP3   OH233180   4.302   4.452   0.957 -0.0599 -0.0420  0.2740
 3922TIP3    H133181   4.368   4.518   0.978  0.5115 -0.8818  1.2005
 3922TIP3    H233182   4.270   4.477   0.870  1.9755 -0.0192 -0.5231
 3923TIP3   OH233183   0.660   6.771   4.327 -0.6906  0.1986  0.7083
 3923TIP3    H133184   0.604   6.834   4.371 -2.1255 -0.8325  0.4239
 3923TIP3    H233185   0.659   6.694   4.385 -1.4789 -0.6692 -0.4253
 3924TIP3   OH233186   1.667   1.573  16.443  0.2590 -0.1451  0.2109
 3924TIP3    H133187   1.579   1.539  16.459 -0.4863  0.8983 -1.4569
 3924TIP3    H233188   1.692   1.614  16.526 -0.7715 -0.5382  0.7376
 3925TIP3   OH233189   4.301   5.346   5.779 -0.6277  0.5332 -0.2895
 3925TIP3    H133190   4.381   5.340   5.727 -1.1182 -1.7890 -0.8992
 3925TIP3    H233191   4.331   5.334   5.870 -0.2283 -0.0939 -0.4931
 3926TIP3   OH233192   5.297   4.723  13.759 -0.4738 -0.1410 -0.6129
 3926TIP3    H133193   5.237   4.798  13.750 -1.3475 -0.9098 -1.4600
 3926TIP3    H233194   5.265   4.660  13.695  0.4324 -1.1273 -0.1135
 3927TIP3   OH233195   5.102   2.346  11.572 -0.0266 -0.3989  0.0674
 3927TIP3    H133196   5.103   2.373  11.664  0.5274 -1.2387  0.3184
 3927TIP3    H233197   5.095   2.428  11.523 -2.9112 -0.0288  0.8905
 3928TIP3   OH233198   2.623   1.161  16.337 -0.1605 -0.0037  0.4133
 3928TIP3    H133199   2.600   1.250  16.309 -1.1458  0.3079  2.0360
 3928TIP3    H233200   2.626   1.167  16.433  0.4924 -1.5596  0.5137
 3929TIP3   OH233201   1.250   0.103   0.131 -0.1717 -0.2094  0.0424
 3929TIP3    H133202   1.306   0.025   0.125  1.0240  0.4746  1.5315
 3929TIP3    H233203   1.305   0.174   0.099 -0.6014  0.2880  0.3945
 3930TIP3   OH233204   3.700   4.631   5.409  0.0173 -0.0204  0.0110
 3930TIP3    H133205   3.705   4.555   5.350  2.0498 -0.4388  0.6329
 3930TIP3    H233206   3.644   4.602   5.481 -1.0989 -0.0919 -0.8548
 3931TIP3   OH233207   3.412   2.053  11.485  0.1165  0.3955  0.0709
 3931TIP3    H133208   3.497   2.035  11.525  0.0582  2.1942  1.1570
 3931TIP3    H233209   3.362   2.095  11.555 -1.3054  0.3145 -0.8591
 3932TIP3   OH233210   0.318   4.290  13.977  0.0233 -0.3212  0.2437
 3932TIP3    H133211   0.393   4.255  14.024  0.9545  2.5043  1.0535
 3932TIP3    H233212   0.346   4.293  13.886  1.1413  1.1014  0.5921
 3933TIP3   OH233213   4.207   5.835  11.340 -0.2637  0.4087 -0.2501
 3933TIP3    H133214   4.239   5.787  11.263  2.1062  0.5793  0.5463
 3933TIP3    H233215   4.256   5.797  11.413 -1.9454  0.7397  1.1004
 3934TIP3   OH233216   0.263   0.015   1.468  0.2887  0.0425  0.6524
 3934TIP3    H133217   0.322   0.083   1.500 -0.8264  1.7342 -0.6995
 3934TIP3    H233218   0.176   0.054   1.472 -0.4621 -1.4799  0.2652
 3935TIP3   OH233219   5.225   1.561   1.220 -0.5604 -0.4273 -0.2092
 3935TIP3    H133220   5.270   1.547   1.304  0.5357 -1.6583 -0.9497
 3935TIP3    H233221   5.207   1.655   1.217  2.5705  0.2778 -0.1133
 3936TIP3   OH233222   1.841   3.440   2.564 -0.6347 -0.3640  0.0711
 3936TIP3    H133223   1.930   3.413   2.539 -0.8410 -1.8458  0.8115
 3936TIP3    H233224   1.793   3.445   2.482  0.4892  2.0224 -0.5255
 3937TIP3   OH233225   0.059   2.244   2.241 -0.3780 -0.7894 -0.3182
 3937TIP3    H133226   0.041   2.150   2.239  0.3180 -0.9170 -1.2287
 3937TIP3    H233227   0.141   2.252   2.291 -1.4117 -0.4630  1.4234
 3938TIP3   OH233228   3.392   0.919   4.027 -0.0187  0.1204  0.0706
 3938TIP3    H133229   3.416   0.875   4.109 -1.3263 -0.9635 -0.0815
 3938TIP3    H233230   3.474   0.954   3.993  1.1250 -2.2308  0.2148
 3939TIP3   OH233231   4.394   1.585   5.336  0.0072 -0.0186  0.1047
 3939TIP3    H133232   4.388   1.598   5.430  0.6906  1.1247  0.0081
 3939TIP3    H233233   4.304   1.592   5.305 -0.0475  1.1715  0.4931
 3940TIP3   OH233234   5.040   3.096   3.713  0.0232 -0.0458  0.6051
 3940TIP3    H133235   5.086   3.041   3.776  2.4660  0.3884 -0.6900
 3940TIP3    H233236   5.091   3.089   3.632 -1.8302  1.0402 -0.7472
 3941TIP3   OH233237   5.171   3.127  11.924  0.5327  0.0403  0.0724
 3941TIP3    H133238   5.122   3.170  11.853  0.7069 -0.7532 -0.5352
 3941TIP3    H233239   5.107   3.069  11.965  1.0625 -1.4069 -1.0653
 3942TIP3   OH233240   4.149   2.537  13.121 -0.2401 -1.0599 -0.1758
 3942TIP3    H133241   4.165   2.489  13.202  0.1673 -2.4367 -1.0353
 3942TIP3    H233242   4.189   2.483  13.053 -0.5561  0.0698 -1.3005
 3943TIP3   OH233243   5.618   6.777  10.719 -0.3605 -0.0202 -0.3815
 3943TIP3    H133244   5.594   6.685  10.718 -1.5219  0.2751 -0.9811
 3943TIP3    H233245   5.538   6.824  10.694  0.9385  0.9817 -3.1162
 3944TIP3   OH233246   5.189   6.369  16.265 -0.2004 -0.3843  0.6001
 3944TIP3    H133247   5.158   6.279  16.255 -1.2824 -0.1108  1.3598
 3944TIP3    H233248   5.211   6.377  16.358 -1.8022  0.6299  0.9323
 3945TIP3   OH233249   5.190   3.842  10.566 -0.1132  0.0036 -1.1960
 3945TIP3    H133250   5.232   3.928  10.565  2.0160 -0.9525 -0.3157
 3945TIP3    H233251   5.141   3.840  10.648  0.4741  0.1154 -0.8353
 3946TIP3   OH233252   0.287   2.676   2.187  0.1608 -0.0245  0.0935
 3946TIP3    H133253   0.203   2.641   2.217 -0.2514 -1.2494 -2.2301
 3946TIP3    H233254   0.316   2.734   2.257 -3.3352  1.6130  0.3894
 3947TIP3   OH233255   2.382   4.171   0.919  0.1372  0.2086  0.3684
 3947TIP3    H133256   2.336   4.093   0.889  0.6216  0.3197 -0.6932
 3947TIP3    H233257   2.315   4.220   0.968 -0.3282 -0.5692  0.5413
 3948TIP3   OH233258   3.401   5.353   6.113  0.0425 -0.0793 -0.1087
 3948TIP3    H133259   3.335   5.291   6.143  1.1998 -1.6332 -0.6448
 3948TIP3    H233260   3.409   5.416   6.185 -0.7594 -0.8637  0.6960
 3949TIP3   OH233261   5.983   2.155   4.867  0.0102 -0.7090  0.8580
 3949TIP3    H133262   6.072   2.123   4.878  0.1630  0.0943  2.3185
 3949TIP3    H233263   5.993   2.241   4.826  0.0113 -0.1428  2.0033
 3950TIP3   OH233264   5.141   3.139   2.044 -0.1083  0.1164 -0.4193
 3950TIP3    H133265   5.155   3.226   2.083 -0.5534  1.3387 -2.8093
 3950TIP3    H233266   5.223   3.120   1.998 -0.1065 -0.6249 -0.1222
 3951TIP3   OH233267   4.665   4.098   2.907 -0.7976  0.3514 -0.3560
 3951TIP3    H133268   4.574   4.069   2.911 -0.6799  0.1118  1.0668
 3951TIP3    H233269   4.661   4.192   2.925 -0.7659  0.3574 -0.3785
 3952TIP3   OH233270   2.614   5.322  16.276  0.2948  0.0181  0.0787
 3952TIP3    H133271   2.537   5.353  16.229  0.2846  0.3753  0.3315
 3952TIP3    H233272   2.683   5.319  16.209  0.1853  0.1673 -0.0405
 3953TIP3   OH233273   0.590   3.133  11.432 -0.2813  0.1725  0.2093
 3953TIP3    H133274   0.589   3.071  11.359  2.3546 -2.2617  1.9617
 3953TIP3    H233275   0.641   3.207  11.400 -0.6917 -0.0292 -0.9532
 3954TIP3   OH233276   4.096   4.644  14.504 -0.4897 -0.3609  0.4811
 3954TIP3    H133277   4.076   4.552  14.525 -0.9264  0.2708  3.2417
 3954TIP3    H233278   4.155   4.672  14.574  0.7654  1.1088 -1.1012
 3955TIP3   OH233279   2.674   5.946  16.500  0.1689 -0.3952 -0.3507
 3955TIP3    H133280   2.636   5.860  16.515  1.7658 -1.3492 -1.4801
 3955TIP3    H233281   2.716   5.969  16.584  0.0982 -0.9106 -0.1746
 3956TIP3   OH233282   1.463   5.155   1.506  0.0716 -0.1973 -0.5326
 3956TIP3    H133283   1.427   5.215   1.440  0.6656  1.3132  0.4486
 3956TIP3    H233284   1.469   5.208   1.586 -0.1521 -1.8316  0.6141
 3957TIP3   OH233285   5.785   3.623   4.707 -0.1009  0.4680 -0.2271
 3957TIP3    H133286   5.837   3.603   4.629 -0.8149 -0.8879 -0.3856
 3957TIP3    H233287   5.789   3.543   4.759 -2.6588 -0.0153 -0.6292
 3958TIP3   OH233288   2.039   3.505   2.348 -0.1552 -0.2720 -0.2041
 3958TIP3    H133289   2.048   3.600   2.355  1.6085 -0.4082 -0.1728
 3958TIP3    H233290   2.108   3.470   2.404 -1.1559 -1.5920  0.2525
 3959TIP3   OH233291   0.367   0.062  15.582 -0.1277 -0.2832 -0.5458
 3959TIP3    H133292   0.384   0.128  15.515 -3.0091  0.9673 -0.1649
 3959TIP3    H233293   0.282   0.024  15.558 -1.8836  1.0138  2.8832
 3960TIP3   OH233294   6.629   4.963   0.437  0.2004 -0.1775  0.9917
 3960TIP3    H133295   6.664   4.880   0.469 -1.6230 -1.3895 -0.0214
 3960TIP3    H233296   6.707   5.017   0.421  1.4115 -1.5850  1.8836
 3961TIP3   OH233297   6.200   2.229  16.786  0.4333 -0.2640  0.1831
 3961TIP3    H133298   6.254   2.151  16.797  1.9082  0.8175  0.9334
 3961TIP3    H233299   6.160   2.244  16.871  1.6503  0.8248  0.5999
 3962TIP3   OH233300   3.921   6.153  11.545 -0.5050  0.1207 -0.6280
 3962TIP3    H133301   3.866   6.158  11.466 -0.7323  1.0243 -0.4304
 3962TIP3    H233302   3.969   6.236  11.545 -1.6476  0.8316  0.9832
 3963TIP3   OH233303   5.462   0.532  10.942  0.0667 -0.2291  0.0448
 3963TIP3    H133304   5.416   0.610  10.911  0.9377  1.0652  1.8119
 3963TIP3    H233305   5.477   0.480  10.864 -3.1197 -0.0743 -0.8105
 3964TIP3   OH233306   1.998   4.025  16.604  0.4737  0.4887 -0.2498
 3964TIP3    H133307   2.041   4.107  16.630 -0.2201  0.4007  1.3042
 3964TIP3    H233308   1.976   3.982  16.687 -0.7241 -0.4551 -1.0195
 3965TIP3   OH233309   3.206   6.318   1.132  0.4145 -0.3483 -0.8890
 3965TIP3    H133310   3.268   6.385   1.103  0.5044 -0.9232 -2.0727
 3965TIP3    H233311   3.256   6.236   1.130 -0.3870 -0.8356 -1.9748
 3966TIP3   OH233312   6.247   5.738   0.384 -0.3338  0.3379 -0.2737
 3966TIP3    H133313   6.196   5.670   0.427 -0.2445  0.5356  0.1437
 3966TIP3    H233314   6.192   5.816   0.387 -0.5907  0.2009 -1.0806
 3967TIP3   OH233315   4.552   1.237  11.505 -0.2578 -0.6833 -0.1745
 3967TIP3    H133316   4.495   1.232  11.429 -1.4500 -2.3805  0.7534
 3967TIP3    H233317   4.641   1.237  11.469 -0.7566 -2.7688 -1.5511
 3968TIP3   OH233318   0.868   3.272  12.323 -0.7617  0.0870 -0.2034
 3968TIP3    H133319   0.858   3.245  12.415 -1.7716 -1.6053 -0.7761
 3968TIP3    H233320   0.921   3.352  12.328  0.4610 -0.7620  1.7494
 3969TIP3   OH233321   1.088   6.222  12.905  0.4635 -0.5183  0.2936
 3969TIP3    H133322   1.022   6.284  12.874  0.6535 -0.9758 -1.1080
 3969TIP3    H233323   1.106   6.248  12.995 -0.0276  0.9663 -0.0211
 3970TIP3   OH233324   6.523   5.613  14.735 -0.8135 -0.1467  0.0087
 3970TIP3    H133325   6.549   5.584  14.823 -2.9992 -1.2835  0.3496
 3970TIP3    H233326   6.573   5.693  14.721  1.3256 -1.1414  1.3214
 3971TIP3   OH233327   1.063   0.844  10.389 -0.4017  0.3035 -0.1243
 3971TIP3    H133328   1.131   0.909  10.407 -1.2849  1.1792  0.1971
 3971TIP3    H233329   1.058   0.792  10.469 -1.1908  1.2673  0.4752
 3972TIP3   OH233330   6.718   5.738   0.434 -0.1628  0.0789  0.7105
 3972TIP3    H133331   6.652   5.797   0.471 -1.1717 -0.4878 -0.1321
 3972TIP3    H233332   6.671   5.656   0.419  0.6665 -0.2598 -0.1324
 3973TIP3   OH233333   5.905   6.566  15.811 -0.2872  0.4283  0.2743
 3973TIP3    H133334   5.919   6.643  15.866 -3.3017  1.9428 -0.8559
 3973TIP3    H233335   5.816   6.537  15.832 -0.3918 -0.8003 -1.6125
 3974TIP3   OH233336   6.312   0.190  15.742 -0.1385  0.4546 -0.3372
 3974TIP3    H133337   6.315   0.264  15.803  1.2933  0.8108 -0.8028
 3974TIP3    H233338   6.402   0.158  15.739 -0.0737  0.7380 -2.6193
 3975TIP3   OH233339   1.263   3.786   5.535  0.3850  0.4100 -0.1368
 3975TIP3    H133340   1.328   3.733   5.581 -0.2303  0.3125  0.6493
 3975TIP3    H233341   1.226   3.842   5.603 -0.1341  0.6735 -0.6332
 3976TIP3   OH233342   4.242   5.753   0.838 -0.2438  0.5014  0.4488
 3976TIP3    H133343   4.280   5.665   0.843  0.7011  0.8767  0.1131
 3976TIP3    H233344   4.313   5.807   0.803 -0.9356  1.3284  0.3084
 3977TIP3   OH233345   1.345   1.848   0.343  0.2149  0.4927  0.4608
 3977TIP3    H133346   1.312   1.833   0.254  0.5652 -0.0925  0.4273
 3977TIP3    H233347   1.266   1.867   0.394 -0.0776  0.0796  0.1758
 3978TIP3   OH233348   5.611   2.858   2.715  0.1512  0.7432  0.6148
 3978TIP3    H133349   5.608   2.783   2.655  3.0502  1.9871 -1.3350
 3978TIP3    H233350   5.573   2.826   2.796 -0.1160 -2.3541 -0.6048
 3979TIP3   OH233351   6.397   5.486  13.347  0.8018 -0.4544 -0.2334
 3979TIP3    H133352   6.385   5.572  13.389  0.6282 -0.5161 -0.1567
 3979TIP3    H233353   6.421   5.428  13.419  1.5709 -0.3331 -0.3825
 3980TIP3   OH233354   1.136   0.976   2.023 -0.1781 -0.3794  0.5194
 3980TIP3    H133355   1.072   0.922   1.977 -1.0418  0.9409  0.1240
 3980TIP3    H233356   1.103   0.981   2.113 -0.3522 -0.1429  0.4444
 3981TIP3   OH233357   6.745   6.210   1.565  0.3526 -0.0010  0.2803
 3981TIP3    H133358   6.658   6.178   1.545  0.2594  0.2327  0.3108
 3981TIP3    H233359   6.731   6.292   1.612  0.5902  0.8495 -1.0643
 3982TIP3   OH233360   2.265   4.358   6.532 -0.0603  0.3578  0.2708
 3982TIP3    H133361   2.185   4.390   6.572 -0.2364  0.6546 -0.3027
 3982TIP3    H233362   2.236   4.290   6.471 -0.1026  1.7528 -1.3442
 3983TIP3   OH233363   2.968   3.343   0.258  0.1856 -0.1678  0.0843
 3983TIP3    H133364   2.881   3.364   0.293 -0.3983 -1.5438 -0.4609
 3983TIP3    H233365   2.955   3.262   0.208  1.8211 -0.5007  0.1331
 3984TIP3   OH233366   0.307   2.981   4.438  0.1461 -0.1810  0.7673
 3984TIP3    H133367   0.369   2.909   4.447  0.4206  0.1371  1.4934
 3984TIP3    H233368   0.361   3.059   4.427 -0.0252  0.3455  3.1285
 3985TIP3   OH233369   0.414   2.297   0.176 -0.2376  0.4579  0.0502
 3985TIP3    H133370   0.467   2.225   0.211  0.1726  0.3394 -0.7759
 3985TIP3    H233371   0.357   2.322   0.248  0.2269 -0.1107  0.6319
 3986TIP3   OH233372   0.875   4.281   3.573  0.1539  0.3501 -0.7444
 3986TIP3    H133373   0.840   4.198   3.605  0.5316  0.7865  0.9228
 3986TIP3    H233374   0.820   4.347   3.614 -0.0219  0.9486 -1.9079
 3987TIP3   OH233375   5.304   5.640  14.768  0.0624  0.0665  0.6415
 3987TIP3    H133376   5.259   5.686  14.697 -0.8612  1.3593  2.0103
 3987TIP3    H233377   5.397   5.649  14.747 -0.1742 -1.4419 -1.4983
 3988TIP3   OH233378   1.225   4.302  16.988 -0.3151  0.0841  0.2787
 3988TIP3    H133379   1.172   4.290  16.909  0.2040 -0.4176  0.0007
 3988TIP3    H233380   1.185   4.243  17.053 -1.0364  0.8474  0.5545
 3989TIP3   OH233381   1.772   3.507   4.748 -0.5613  0.6481  0.2617
 3989TIP3    H133382   1.764   3.418   4.714 -1.0876  1.2358 -1.2466
 3989TIP3    H233383   1.687   3.547   4.729 -0.2941  1.5069  0.8216
 3990TIP3   OH233384   4.438   2.693   0.687 -0.2104 -0.3312  0.2290
 3990TIP3    H133385   4.367   2.741   0.729 -0.5000 -0.2851 -0.3064
 3990TIP3    H233386   4.506   2.758   0.671  0.6186 -0.6584  2.1492
 3991TIP3   OH233387   5.701   4.046  13.523  0.1927 -0.4689 -0.1276
 3991TIP3    H133388   5.614   4.013  13.546 -0.5272  0.1182 -1.8392
 3991TIP3    H233389   5.687   4.138  13.501  1.6192  0.1912  1.4562
 3992TIP3   OH233390   0.231   3.607   5.033  0.2006 -0.2418 -0.0699
 3992TIP3    H133391   0.208   3.606   4.940  0.6337 -1.0863 -0.1763
 3992TIP3    H233392   0.167   3.549   5.075  0.4464 -0.4321  0.0469
 3993TIP3   OH233393   2.865   2.505  14.061 -0.4081  0.1158 -0.2514
 3993TIP3    H133394   2.881   2.431  14.119  2.1749  1.2804  0.6829
 3993TIP3    H233395   2.934   2.498  13.994 -1.6536  0.3345 -1.6045
 3994TIP3   OH233396   2.508   2.639  15.962  0.2984  0.4265 -0.8569
 3994TIP3    H133397   2.601   2.655  15.980  0.0069 -0.1274  1.4504
 3994TIP3    H233398   2.466   2.723  15.982 -0.2185 -0.5858  3.0880
 3995TIP3   OH233399   4.637   0.138   5.060 -0.0136  0.0063 -0.1405
 3995TIP3    H133400   4.655   0.191   5.138  0.5737  1.6661 -1.3498
 3995TIP3    H233401   4.721   0.136   5.013 -0.4145 -0.7920 -0.8396
 3996TIP3   OH233402   3.456   4.293  15.082  0.0475 -0.1494  0.4276
 3996TIP3    H133403   3.541   4.271  15.043 -1.0598 -0.8578 -1.7629
 3996TIP3    H233404   3.393   4.277  15.012 -1.7767  1.6983  1.5382
 3997TIP3   OH233405   4.144   3.045  13.123  0.2502  0.3007  0.3308
 3997TIP3    H133406   4.119   3.022  13.034  2.2954  1.0119 -0.4846
 3997TIP3    H233407   4.234   3.079  13.115  0.2749  0.9277  2.5712
 3998TIP3   OH233408   2.191   2.445  14.047  0.6063  0.0837 -0.4772
 3998TIP3    H133409   2.182   2.352  14.069 -0.0164  0.2897  0.1966
 3998TIP3    H233410   2.267   2.449  13.989  0.8061 -0.8095 -0.2932
 3999TIP3   OH233411   1.313   4.744   3.569  0.4616 -0.1274  0.3306
 3999TIP3    H133412   1.273   4.741   3.482 -0.5265  1.8505  0.6738
 3999TIP3    H233413   1.239   4.739   3.630  0.9177  1.0876  1.0094
 4000TIP3   OH233414   0.913   5.112   2.921 -0.2113 -0.4770 -0.0541
 4000TIP3    H133415   0.949   5.069   2.843  0.3673  0.6125 -0.4050
 4000TIP3    H233416   0.990   5.136   2.973 -0.5346  0.0120  0.2025
 4001TIP3   OH233417   6.029   4.080   3.493  0.4130  0.1199  0.0237
 4001TIP3    H133418   6.022   4.034   3.409  0.3175 -1.8509  1.0402
 4001TIP3    H233419   6.034   4.172   3.470  2.0103 -0.4501 -2.2341
 4002TIP3   OH233420   1.138   4.955  11.684  0.2289 -0.0371 -0.0583
 4002TIP3    H133421   1.156   5.015  11.611 -2.6659  1.6108  0.4332
 4002TIP3    H233422   1.210   4.968  11.745  2.1816 -0.7057 -2.1052
 4003TIP3   OH233423   2.591   3.833  14.431 -0.6151  0.1538 -0.1478
 4003TIP3    H133424   2.605   3.738  14.430  1.8246  0.4628 -0.5900
 4003TIP3    H233425   2.596   3.857  14.523  0.5676  0.0546 -0.1734
 4004TIP3   OH233426   5.947   3.443  16.819 -0.3872 -0.0096  0.1734
 4004TIP3    H133427   5.871   3.491  16.850 -0.2016  0.6682 -0.3825
 4004TIP3    H233428   6.013   3.457  16.887 -0.0122  1.3868 -0.4289
 4005TIP3   OH233429   1.410   5.133   1.067 -0.1250 -0.3618  0.4132
 4005TIP3    H133430   1.355   5.210   1.057 -0.1401 -0.3977  0.2237
 4005TIP3    H233431   1.458   5.126   0.985  2.8520  1.7512  1.7848
 4006TIP3   OH233432   0.000   3.987  17.225  0.0340 -1.1555 -0.4627
 4006TIP3    H133433  -0.036   3.974  17.138  0.9050 -0.4530 -0.9398
 4006TIP3    H233434   0.095   3.976  17.215  0.1818 -0.7387  0.3197
 4007TIP3   OH233435   2.367   4.013   6.518  0.0404 -0.3984 -0.7110
 4007TIP3    H133436   2.332   4.071   6.450  1.2137 -0.5918 -1.5302
 4007TIP3    H233437   2.434   3.962   6.472  3.0786  1.5600  1.1712
 4008TIP3   OH233438   0.154   6.000   4.803  0.4812  0.3844 -0.5677
 4008TIP3    H133439   0.150   6.002   4.899 -0.5536  0.4918 -0.6005
 4008TIP3    H233440   0.199   6.081   4.780  0.2483  0.6232 -0.1928
 4009TIP3   OH233441   3.706   5.870   5.429 -0.3833 -0.4147  0.7119
 4009TIP3    H133442   3.769   5.939   5.451  1.8095 -2.5515  1.7451
 4009TIP3    H233443   3.639   5.876   5.497 -0.9914  1.4562  0.0170
 4010TIP3   OH233444   4.176   0.601   4.998 -0.0074  0.2733  0.4432
 4010TIP3    H133445   4.087   0.566   4.989  0.4918 -0.9252 -0.1352
 4010TIP3    H233446   4.184   0.623   5.091 -0.3234 -1.3052  0.8709
 4011TIP3   OH233447   4.288   4.638  16.477 -0.7205  0.1022  0.0348
 4011TIP3    H133448   4.371   4.616  16.433 -0.3360  0.4121  0.5901
 4011TIP3    H233449   4.233   4.561  16.465 -0.0434 -0.4481  0.3891
 4012TIP3   OH233450   5.040   3.624  14.177 -0.5900 -0.0386 -0.1918
 4012TIP3    H133451   5.013   3.646  14.266 -0.0550  0.8957 -0.2546
 4012TIP3    H233452   5.101   3.551  14.188 -1.3676 -0.6598  0.1127
 4013TIP3   OH233453   4.778   6.331   5.098  0.7562  0.1468  0.5172
 4013TIP3    H133454   4.765   6.254   5.041  0.6246 -0.3455  1.2033
 4013TIP3    H233455   4.692   6.346   5.138  0.8876  0.3993  0.7064
 4014TIP3   OH233456   1.471   1.672   0.518  0.6581 -0.2905 -0.5725
 4014TIP3    H133457   1.432   1.737   0.460  1.2937 -0.2962 -1.0179
 4014TIP3    H233458   1.443   1.697   0.605 -2.0128 -1.4284 -0.9952
 4015TIP3   OH233459   2.092   5.761  16.400  0.2643  0.0749  0.3534
 4015TIP3    H133460   2.001   5.787  16.412  0.5048  1.0068  0.2382
 4015TIP3    H233461   2.133   5.775  16.486 -0.0716 -2.0221  0.9145
 4016TIP3   OH233462   3.256   3.446  10.707 -0.1562  0.2943 -0.1844
 4016TIP3    H133463   3.190   3.434  10.639 -1.2383 -2.1082  1.1539
 4016TIP3    H233464   3.337   3.413  10.669 -0.5864 -0.3414 -0.5623
 4017TIP3   OH233465   3.491   6.218   1.211  0.2038 -0.4096 -0.1332
 4017TIP3    H133466   3.536   6.302   1.224 -1.9189  0.9142 -0.9333
 4017TIP3    H233467   3.499   6.174   1.296  0.9607  0.7788  0.4443
 4018TIP3   OH233468   5.298   6.644  11.475  0.2722  0.2401 -0.2194
 4018TIP3    H133469   5.321   6.566  11.525 -0.9801  0.2382  0.4112
 4018TIP3    H233470   5.272   6.708  11.541 -0.1466  0.6813 -0.8004
 4019TIP3   OH233471   4.223   1.977  12.547  0.0617  0.4357  0.1167
 4019TIP3    H133472   4.231   1.896  12.495 -1.2983  0.6665 -0.5056
 4019TIP3    H233473   4.193   1.947  12.633 -1.0905  0.3140 -0.3161
 4020TIP3   OH233474   3.951   6.436   1.081 -0.3279 -0.5170 -0.3782
 4020TIP3    H133475   3.991   6.432   0.994  0.5452 -0.6577  0.0206
 4020TIP3    H233476   3.922   6.347   1.098 -1.0510 -0.3627 -0.7727
 4021TIP3   OH233477   2.759   3.652   6.483 -0.2951 -0.1082 -0.0337
 4021TIP3    H133478   2.801   3.684   6.403 -1.1876  0.7650 -0.1714
 4021TIP3    H233479   2.750   3.557   6.469 -1.7861  0.2061 -1.6454
 4022TIP3   OH233480   6.756   3.898  15.788  0.1452  0.3910  0.1511
 4022TIP3    H133481   6.731   3.988  15.809 -0.1795 -0.0582  1.8066
 4022TIP3    H233482   6.675   3.856  15.759  0.4201  0.7751 -1.2412
 4023TIP3   OH233483   0.494   5.186   5.637  0.2904 -0.6590 -0.0405
 4023TIP3    H133484   0.472   5.278   5.627 -1.1773 -0.8523  1.1189
 4023TIP3    H233485   0.412   5.143   5.659  0.9962 -2.2152 -0.2786
 4024TIP3   OH233486   3.265   6.057  14.646 -0.1990 -0.2327 -0.3398
 4024TIP3    H133487   3.219   6.019  14.720 -1.3227  1.9127  0.1364
 4024TIP3    H233488   3.213   6.134  14.622  1.5409  0.5923 -1.6939
 4025TIP3   OH233489   1.358   6.525  14.740 -0.0744 -0.0975  0.2368
 4025TIP3    H133490   1.412   6.603  14.755  0.0443 -0.4840  2.1462
 4025TIP3    H233491   1.418   6.461  14.702  0.3400  0.0955  0.5538
 4026TIP3   OH233492   5.257   3.008  15.269  0.0345  0.2230  0.1389
 4026TIP3    H133493   5.268   2.913  15.268  2.4583  0.4369 -0.6535
 4026TIP3    H233494   5.283   3.037  15.181  1.2342  1.7605  0.9460
 4027TIP3   OH233495   3.507   2.976  16.147 -0.2710 -0.2714  0.8996
 4027TIP3    H133496   3.423   3.010  16.178  0.4472  2.7329 -0.1136
 4027TIP3    H233497   3.562   2.974  16.226 -0.6587 -0.0857  1.1776
 4028TIP3   OH233498   3.024   1.767   3.436  0.5001 -0.6615 -0.0728
 4028TIP3    H133499   2.986   1.752   3.523 -0.6212  0.4065 -0.3653
 4028TIP3    H233500   3.118   1.780   3.454 -0.1116  2.7042  1.4331
 4029TIP3   OH233501   5.541   6.418  17.226 -0.3974 -0.8892 -0.0743
 4029TIP3    H133502   5.475   6.377  17.281  0.4368 -2.0688  0.0843
 4029TIP3    H233503   5.625   6.392  17.264  0.2040  1.3203  0.2720
 4030TIP3   OH233504   4.383   1.581  17.052 -0.4790  0.1082  0.0699
 4030TIP3    H133505   4.378   1.562  17.146 -0.4688 -1.1789 -0.1701
 4030TIP3    H233506   4.324   1.655  17.039 -2.1368 -1.0535  0.7562
 4031TIP3   OH233507   0.704   1.623  11.889 -0.5252  0.3810  0.0768
 4031TIP3    H133508   0.790   1.660  11.909  0.0022  0.0846 -1.5555
 4031TIP3    H233509   0.644   1.696  11.900  0.2614  1.2665 -1.1877
 4032TIP3   OH233510   1.150   5.387   6.182  0.0457  0.1024  0.1796
 4032TIP3    H133511   1.079   5.432   6.228 -0.7838 -0.9949  0.0347
 4032TIP3    H233512   1.185   5.325   6.246 -1.2904 -1.6237 -0.6636
 4033TIP3   OH233513   3.680   6.000  14.628 -0.1078 -0.1678  0.2690
 4033TIP3    H133514   3.608   6.034  14.680  0.0315  1.3022 -0.4642
 4033TIP3    H233515   3.657   5.908  14.613 -1.0282 -0.1378  1.3603
 4034TIP3   OH233516   3.787   5.137  13.749  0.1083 -0.2054  0.5763
 4034TIP3    H133517   3.871   5.170  13.715  0.3569 -0.1276  1.2646
 4034TIP3    H233518   3.811   5.061  13.802  0.0432  1.3336  2.9330
 4035TIP3   OH233519   4.163   2.732   6.342  0.1259  0.4890  0.1318
 4035TIP3    H133520   4.229   2.779   6.290  0.5412 -0.7633 -0.5040
 4035TIP3    H233521   4.079   2.769   6.313  0.3066 -0.5668 -1.8849
 4036TIP3   OH233522   6.001   5.745   3.097  0.1875 -0.1418  0.5842
 4036TIP3    H133523   6.023   5.698   3.017  0.0002 -0.7038  0.8558
 4036TIP3    H233524   5.932   5.692   3.137  1.7843 -1.1006  2.2331
 4037TIP3   OH233525   5.695   0.395   1.182 -0.8609  0.6707 -0.4508
 4037TIP3    H133526   5.700   0.486   1.153 -0.8763  0.8378  0.0693
 4037TIP3    H233527   5.781   0.378   1.221 -0.7336  0.3507 -0.8606
 4038TIP3   OH233528   3.066   3.890  10.708 -0.0580 -0.0314  0.8993
 4038TIP3    H133529   3.152   3.919  10.677  0.0599 -2.3495 -1.2482
 4038TIP3    H233530   3.006   3.958  10.676  0.8446  1.1884  1.7074
 4039TIP3   OH233531   0.306   3.844   1.428  0.2696  0.4361 -0.1639
 4039TIP3    H133532   0.363   3.921   1.435 -0.1087  0.7519 -0.5313
 4039TIP3    H233533   0.323   3.810   1.340  1.8649 -1.0420  0.6564
 4040TIP3   OH233534   5.670   3.365   2.258  0.2583  0.3831 -0.8874
 4040TIP3    H133535   5.685   3.278   2.295  1.9224  0.3247 -1.6324
 4040TIP3    H233536   5.751   3.414   2.276 -0.0074  1.2486 -1.9248
 4041TIP3   OH233537   5.024   1.847   3.902  0.0807  0.0215 -0.0377
 4041TIP3    H133538   4.966   1.922   3.918  0.0102 -0.0045 -0.1716
 4041TIP3    H233539   5.067   1.867   3.820  0.6529  0.2832  0.3216
 4042TIP3   OH233540   5.665   4.304  13.136  0.1479  0.7054 -0.0139
 4042TIP3    H133541   5.703   4.383  13.098  0.9341  0.5867  0.5069
 4042TIP3    H233542   5.599   4.275  13.072  0.9442  0.9116 -0.9392
 4043TIP3   OH233543   3.513   3.938  12.146 -0.3034  0.0489 -0.1114
 4043TIP3    H133544   3.470   3.965  12.227 -3.4972 -1.1928 -1.2703
 4043TIP3    H233545   3.607   3.940  12.167 -0.9566  0.8147  3.2264
 4044TIP3   OH233546   2.233   2.574   3.124 -0.5696  0.4765  0.1384
 4044TIP3    H133547   2.154   2.620   3.151 -0.8011  0.0395  0.2201
 4044TIP3    H233548   2.272   2.630   3.057 -0.6567  0.9599  0.4864
 4045TIP3   OH233549   0.538   3.241  16.969  0.3473  0.0730  0.3024
 4045TIP3    H133550   0.470   3.294  17.010  1.8355  0.7674  2.0497
 4045TIP3    H233551   0.510   3.151  16.983  0.0784  0.3338  1.6088
 4046TIP3   OH233552   1.672   6.563   0.622 -0.0683  0.0945 -0.2357
 4046TIP3    H133553   1.698   6.481   0.582 -0.4377 -0.4825  0.6612
 4046TIP3    H233554   1.739   6.626   0.596  0.6646 -0.6846 -0.2627
 4047TIP3   OH233555   4.301   3.566  10.730  0.1223  0.9028  0.3521
 4047TIP3    H133556   4.378   3.543  10.679 -0.9393  0.1953 -1.0110
 4047TIP3    H233557   4.320   3.653  10.765  1.2260  1.0518 -0.5652
 4048TIP3   OH233558   0.603   4.364  11.276 -0.0357  0.1166 -0.2771
 4048TIP3    H133559   0.527   4.371  11.218  0.3890 -0.8443 -0.9957
 4048TIP3    H233560   0.669   4.319  11.222  0.4157 -0.7049  0.9205
 4049TIP3   OH233561   2.664   3.190   5.325  0.9492  0.3055 -0.7537
 4049TIP3    H133562   2.577   3.175   5.361  1.3892  1.0277  0.6754
 4049TIP3    H233563   2.653   3.260   5.261  0.7856  1.9464  0.9784
 4050TIP3   OH233564   2.869   2.113   1.332 -0.2871  0.9640  0.0311
 4050TIP3    H133565   2.955   2.073   1.323 -0.7477 -0.1930  0.6942
 4050TIP3    H233566   2.856   2.122   1.426 -2.2711 -2.0348  0.1762
 4051TIP3   OH233567   6.582   1.543   3.716  0.4936 -0.3313 -0.3970
 4051TIP3    H133568   6.515   1.595   3.671 -0.9141  0.6719  2.6086
 4051TIP3    H233569   6.624   1.605   3.776  2.5615 -1.5059 -0.5333
 4052TIP3   OH233570   2.005   2.810  13.678 -0.0805 -0.1195  0.4840
 4052TIP3    H133571   1.928   2.761  13.707  0.1627  0.4159  2.1352
 4052TIP3    H233572   1.982   2.841  13.590 -0.6772 -2.2060 -0.1514
 4053TIP3   OH233573   6.698   0.497   1.286 -0.0720  0.2943 -0.0192
 4053TIP3    H133574   6.611   0.497   1.247  0.2917  1.1646 -0.8673
 4053TIP3    H233575   6.682   0.510   1.380 -0.8717  0.0081 -0.1109
 4054TIP3   OH233576   4.651   0.445  16.690 -0.4008  0.2261 -0.2493
 4054TIP3    H133577   4.736   0.484  16.710 -0.5351 -0.2828  1.4332
 4054TIP3    H233578   4.671   0.370  16.634  0.3438 -0.3346  0.7473
 4055TIP3   OH233579   2.053   1.573   0.171  0.0393 -0.6160 -0.4797
 4055TIP3    H133580   2.057   1.570   0.267  0.4112  0.0221 -0.4649
 4055TIP3    H233581   1.965   1.543   0.150 -1.2664  2.3137  0.2715
 4056TIP3   OH233582   0.531   2.714  16.645  0.1358 -0.4023 -0.0576
 4056TIP3    H133583   0.558   2.713  16.553 -0.9560 -0.1135 -0.3982
 4056TIP3    H233584   0.511   2.623  16.665 -0.9901 -0.2842 -0.5489
 4057TIP3   OH233585   1.294   1.317   0.721 -0.0047 -0.3756  0.4361
 4057TIP3    H133586   1.332   1.336   0.635  0.7589  0.6956  0.9736
 4057TIP3    H233587   1.263   1.227   0.715  0.5495 -0.5032 -0.7811
 4058TIP3   OH233588   6.561   5.081  14.772  0.3046 -0.2982  0.1593
 4058TIP3    H133589   6.577   5.035  14.690 -1.1929 -1.3981  0.4441
 4058TIP3    H233590   6.585   5.018  14.840 -1.2576 -0.4872  0.5546
 4059TIP3   OH233591   5.214   4.047   5.289  0.9488  0.7095 -0.1087
 4059TIP3    H133592   5.171   4.006   5.214  0.0138  1.7870 -0.1920
 4059TIP3    H233593   5.224   3.976   5.353  0.6807  0.0428 -0.7925
 4060TIP3   OH233594   5.030   1.811  16.701  0.0987  0.5290  0.1806
 4060TIP3    H133595   4.937   1.827  16.718 -0.2005  1.2483 -1.8355
 4060TIP3    H233596   5.036   1.717  16.687 -0.1840  0.3749  1.0333
 4061TIP3   OH233597   6.339   6.533  11.778 -0.3614 -0.1669 -0.3706
 4061TIP3    H133598   6.305   6.601  11.836  3.4908  2.1811 -0.5509
 4061TIP3    H233599   6.353   6.458  11.835  0.8798  1.2261  1.2670
 4062TIP3   OH233600   3.046   0.477   5.888 -0.3824 -0.0022 -0.4493
 4062TIP3    H133601   2.995   0.399   5.866 -0.8210 -0.6428  2.5215
 4062TIP3    H233602   2.996   0.550   5.851 -0.6798 -0.9597 -2.0454
 4063TIP3   OH233603   5.854   1.883  15.321 -0.3803 -0.5516 -0.6208
 4063TIP3    H133604   5.861   1.923  15.408 -1.1101 -0.5061 -0.5740
 4063TIP3    H233605   5.904   1.941  15.264  0.0711 -0.5590 -0.2378
 4064TIP3   OH233606   1.910   5.411   5.986 -0.0120 -0.1440  0.4610
 4064TIP3    H133607   1.965   5.333   5.984 -2.5670 -2.0509 -0.6821
 4064TIP3    H233608   1.951   5.471   5.922  2.5094 -0.0367  2.0268
 4065TIP3   OH233609   5.069   3.192  12.273 -0.1304  0.1725 -0.1388
 4065TIP3    H133610   5.031   3.230  12.352 -0.5811  0.4813 -0.4994
 4065TIP3    H233611   5.049   3.099  12.279 -4.5684  0.7474 -2.2116
 4066TIP3   OH233612   1.644   3.344  14.351 -0.4427  0.1087 -0.1828
 4066TIP3    H133613   1.737   3.329  14.364 -0.6063 -0.6576  0.1742
 4066TIP3    H233614   1.634   3.354  14.256  0.0754  0.7770 -0.1726
 4067TIP3   OH233615   4.621   0.288   6.094 -0.9041 -0.2164  0.1102
 4067TIP3    H133616   4.550   0.334   6.049 -0.8245  0.3788  0.5878
 4067TIP3    H233617   4.660   0.232   6.026 -1.5100 -0.1751 -0.2735
 4068TIP3   OH233618   5.448   4.479  15.665  0.3674 -0.2747  0.3592
 4068TIP3    H133619   5.434   4.506  15.756  0.7461  0.0688  0.3195
 4068TIP3    H233620   5.471   4.386  15.671 -1.5831 -0.7975  0.4476
 4069TIP3   OH233621   3.063   0.575   4.762  0.2799  0.0757  0.3733
 4069TIP3    H133622   3.085   0.659   4.802  4.4345 -0.8386  0.4902
 4069TIP3    H233623   3.070   0.512   4.834 -0.4530 -0.6515 -0.1783
 4070TIP3   OH233624   6.653   0.502  13.205 -0.2009 -0.1616 -0.0394
 4070TIP3    H133625   6.730   0.548  13.171 -0.9342  0.9632 -0.2385
 4070TIP3    H233626   6.612   0.564  13.265 -0.5429 -1.0351  0.6614
 4071TIP3   OH233627   0.974   1.256  16.218 -0.1467  0.0515  0.4505
 4071TIP3    H133628   1.029   1.329  16.188  0.0697 -0.6356 -0.9172
 4071TIP3    H233629   1.035   1.197  16.263 -0.6569  1.6263  3.4695
 4072TIP3   OH233630   5.365   1.021   3.471 -0.1847 -0.2169 -0.2802
 4072TIP3    H133631   5.369   0.962   3.546 -1.8955  0.6158  0.5257
 4072TIP3    H233632   5.444   1.075   3.478  1.7096 -2.6304 -1.3303
 4073TIP3   OH233633   4.311   6.134   5.777  0.2934  0.0102 -0.4039
 4073TIP3    H133634   4.279   6.182   5.702  0.3074 -0.4670 -0.7217
 4073TIP3    H233635   4.307   6.196   5.850  0.1678  0.4351 -0.7727
 4074TIP3   OH233636   1.322   5.441  17.162 -0.2958 -0.3635  0.7357
 4074TIP3    H133637   1.408   5.414  17.130  0.1210  0.6505  0.9627
 4074TIP3    H233638   1.328   5.536  17.168 -1.3362 -0.3094  1.0556
 4075TIP3   OH233639   3.286   2.327   4.105  0.1699  1.0595 -0.3055
 4075TIP3    H133640   3.234   2.326   4.025  0.8263 -1.0360 -0.7466
 4075TIP3    H233641   3.374   2.303   4.077  0.4886  0.6281  0.9909
 4076TIP3   OH233642   2.627   0.402   5.362  0.0558 -0.0654  0.0637
 4076TIP3    H133643   2.557   0.393   5.427  0.8874 -0.5857  0.9120
 4076TIP3    H233644   2.612   0.488   5.322 -0.5381  0.2134  0.8587
 4077TIP3   OH233645   2.037   3.378   4.397  0.0667 -0.7640 -0.8934
 4077TIP3    H133646   2.068   3.337   4.478  0.8783  0.5414 -0.5128
 4077TIP3    H233647   2.047   3.311   4.330 -0.1921 -1.7189 -0.0055
 4078TIP3   OH233648   0.152   1.403   3.333 -0.1912 -0.6224  0.0055
 4078TIP3    H133649   0.191   1.459   3.400 -0.7200  1.0064 -0.9680
 4078TIP3    H233650   0.225   1.379   3.276 -0.0372 -0.4861  0.1443
 4079TIP3   OH233651   4.751   5.711  14.705 -0.1086  0.1967  0.2239
 4079TIP3    H133652   4.845   5.717  14.724 -0.2677  1.5331  0.6756
 4079TIP3    H233653   4.746   5.647  14.634  1.4078  1.8164 -1.4527
 4080TIP3   OH233654   4.732   3.147   4.585  0.3738 -0.0030 -1.1480
 4080TIP3    H133655   4.806   3.092   4.609  1.6929  1.9555 -0.4851
 4080TIP3    H233656   4.673   3.088   4.538  0.8189 -2.4292  1.0566
 4081TIP3   OH233657   0.204   0.085   4.330 -0.0149 -0.4168  0.2144
 4081TIP3    H133658   0.165   0.171   4.312  1.4619  0.2424  0.0207
 4081TIP3    H233659   0.140   0.041   4.386 -0.3161  1.2488  1.2646
 4082TIP3   OH233660   1.003   4.797  17.246  0.3889 -0.2376  0.5199
 4082TIP3    H133661   1.007   4.702  17.243 -0.6177 -0.3108  1.1783
 4082TIP3    H233662   1.036   4.825  17.160 -2.0366 -1.2812 -0.8445
 4083TIP3   OH233663   1.589   3.085  12.664  0.0064 -0.9170 -0.3535
 4083TIP3    H133664   1.558   3.167  12.701  0.3664 -0.4418 -1.0849
 4083TIP3    H233665   1.566   3.090  12.571 -0.0807 -1.6976 -0.3838
 4084TIP3   OH233666   6.781   6.668  10.619  0.4053 -0.1377  0.0363
 4084TIP3    H133667   6.760   6.589  10.571  1.4663  0.0283 -0.7457
 4084TIP3    H233668   6.846   6.713  10.564 -0.5487  1.5271  0.2070
 4085TIP3   OH233669   0.157   2.262  10.523  0.1701  0.4955 -0.4366
 4085TIP3    H133670   0.186   2.189  10.579  0.4840  0.8825 -0.0906
 4085TIP3    H233671   0.237   2.310  10.503  0.1249  0.1533 -1.5411
 4086TIP3   OH233672   0.333   3.396  14.726 -0.3161  0.2533  0.2592
 4086TIP3    H133673   0.332   3.302  14.711  1.6420  0.2579 -0.1875
 4086TIP3    H233674   0.424   3.422  14.710 -0.5397  2.0264  1.5560
 4087TIP3   OH233675   0.172   0.643   5.896 -0.2443  0.0064 -0.4663
 4087TIP3    H133676   0.154   0.615   5.986  0.7162  1.1906  0.1367
 4087TIP3    H233677   0.171   0.562   5.845  1.5151 -1.0444  1.0218
 4088TIP3   OH233678   6.651   0.343  11.899 -0.4054  0.3308 -0.3495
 4088TIP3    H133679   6.690   0.306  11.820  0.0347 -0.0576  0.0472
 4088TIP3    H233680   6.601   0.271  11.937  0.5881  0.0746  0.5152
 4089TIP3   OH233681   0.328   5.941   0.745 -0.1305  0.3546  0.6712
 4089TIP3    H133682   0.246   5.894   0.728  0.7848 -1.3315  0.6679
 4089TIP3    H233683   0.390   5.873   0.771  1.7651  1.3031 -1.0154
 4090TIP3   OH233684   6.542   6.740   1.093  0.1604  0.2367  0.0333
 4090TIP3    H133685   6.610   6.724   1.159 -0.4868 -0.4559  0.5485
 4090TIP3    H233686   6.460   6.740   1.143 -0.2092  1.2849 -0.5502
 4091TIP3   OH233687   2.221   0.009  11.284 -0.5070  0.0755 -0.0858
 4091TIP3    H133688   2.126   0.006  11.299 -0.3016  0.6443  1.4522
 4091TIP3    H233689   2.243   0.102  11.286 -0.1549  0.0825 -2.2647
 4092TIP3   OH233690   5.329   2.853   5.585 -0.6047 -0.6003  0.0169
 4092TIP3    H133691   5.419   2.849   5.615 -0.7579  1.1502  0.8165
 4092TIP3    H233692   5.335   2.871   5.491 -0.1205 -0.5980  0.0486
 4093TIP3   OH233693   4.987   0.993  13.877  0.1323  0.3081  0.0559
 4093TIP3    H133694   4.944   1.053  13.939  0.0478  0.3661 -0.0598
 4093TIP3    H233695   5.017   0.920  13.932 -0.1655  0.2385  0.1271
 4094TIP3   OH233696   5.140   6.260  12.511  0.1396 -0.0162 -0.0452
 4094TIP3    H133697   5.113   6.346  12.478 -1.4551 -0.5521 -0.2198
 4094TIP3    H233698   5.126   6.201  12.437  2.3111 -0.2962 -0.3080
 4095TIP3   OH233699   6.362   5.017   5.038 -0.4911 -0.2153  0.4951
 4095TIP3    H133700   6.408   4.947   4.992 -1.2933 -1.2737  1.2471
 4095TIP3    H233701   6.367   4.992   5.131 -2.7459 -0.5074  0.5841
 4096TIP3   OH233702   6.122   6.175  14.693  0.0953 -0.1685  0.1841
 4096TIP3    H133703   6.129   6.188  14.788 -1.7881 -1.1568  0.5179
 4096TIP3    H233704   6.027   6.171  14.677  0.3830  0.2485 -1.7904
 4097TIP3   OH233705   0.738   5.290  14.862  0.0005  0.0791 -0.6712
 4097TIP3    H133706   0.793   5.365  14.840  0.3282  0.2472  0.6284
 4097TIP3    H233707   0.675   5.325  14.925 -0.5164 -0.5005 -0.8582
 4098TIP3   OH233708   1.028   0.723   1.947 -0.1164  0.3564 -0.1884
 4098TIP3    H133709   1.091   0.690   1.882  0.2353 -0.5554  0.5853
 4098TIP3    H233710   1.058   0.685   2.030 -0.2202  1.9465  0.6072
 4099TIP3   OH233711   4.460   3.324   4.982  0.8857  0.2720 -0.7367
 4099TIP3    H133712   4.542   3.277   4.965  1.2860  1.1058 -1.1728
 4099TIP3    H233713   4.392   3.257   4.975  1.7398 -1.3061  3.3365
 4100TIP3   OH233714   5.617   0.884  13.940 -0.0758 -0.0282  0.4632
 4100TIP3    H133715   5.648   0.959  13.991  1.3933 -0.5317  0.3520
 4100TIP3    H233716   5.650   0.807  13.987 -2.8750 -0.7540  1.4719
 4101TIP3   OH233717   0.379   6.452   5.049 -0.5200  0.0784  0.0752
 4101TIP3    H133718   0.438   6.456   4.974  1.2375 -1.5345  1.2854
 4101TIP3    H233719   0.383   6.540   5.087 -0.2245  0.4614 -0.8067
 4102TIP3   OH233720   2.177   1.712   3.331 -0.0889 -0.2923 -0.2091
 4102TIP3    H133721   2.243   1.764   3.285  1.0423  0.0254  1.6629
 4102TIP3    H233722   2.188   1.623   3.297  1.1834 -0.2036 -0.0765
 4103TIP3   OH233723   3.297   2.526  17.184 -0.1161  0.1465 -0.2623
 4103TIP3    H133724   3.232   2.551  17.119 -0.4315 -1.6743 -0.6889
 4103TIP3    H233725   3.376   2.507  17.133  0.0071 -0.0779  0.0084
 4104TIP3   OH233726   0.117   4.247  14.676  0.4061  0.4010 -0.3366
 4104TIP3    H133727   0.127   4.225  14.768  1.7522  0.6327 -0.4073
 4104TIP3    H233728   0.064   4.176  14.639  1.0228 -0.4180  0.3283
 4105TIP3   OH233729   6.316   0.345   4.677  0.2839  0.2206  0.1531
 4105TIP3    H133730   6.223   0.354   4.659  0.2678  1.1695  0.6505
 4105TIP3    H233731   6.348   0.286   4.609 -0.6011  0.1993 -0.2595
 4106TIP3   OH233732   4.760   0.815  13.213 -0.1631 -0.4478 -0.0769
 4106TIP3    H133733   4.787   0.894  13.167  0.9524  0.2655  1.6940
 4106TIP3    H233734   4.766   0.746  13.147 -1.0306  0.8890 -1.6218
 4107TIP3   OH233735   1.896   4.099   5.537 -0.1710 -0.1015 -0.1582
 4107TIP3    H133736   1.845   4.036   5.486  0.0965 -0.5102  0.0713
 4107TIP3    H233737   1.947   4.045   5.597  1.1864  0.2511 -0.9717
 4108TIP3   OH233738   5.435   6.157   4.631 -0.0129  0.7897  0.2678
 4108TIP3    H133739   5.458   6.250   4.643 -1.0903  0.9535  1.2108
 4108TIP3    H233740   5.481   6.132   4.551  0.2682  2.1476 -0.0341
 4109TIP3   OH233741   3.432   3.893   5.635  0.2741 -0.1753 -0.0097
 4109TIP3    H133742   3.407   3.847   5.554 -1.3400  1.0794 -0.2855
 4109TIP3    H233743   3.451   3.823   5.697  0.1505 -1.1861 -1.0734
 4110TIP3   OH233744   3.591   3.378  12.700  0.1107 -0.3372  0.1019
 4110TIP3    H133745   3.587   3.373  12.605  1.9218 -1.3915  0.0385
 4110TIP3    H233746   3.634   3.462  12.718 -0.2114 -0.1485  0.0076
 4111TIP3   OH233747   1.347   3.952  11.648  0.5932  0.1864  0.6068
 4111TIP3    H133748   1.359   3.875  11.592 -1.0201  1.1177 -1.1417
 4111TIP3    H233749   1.296   3.920  11.722 -2.0248 -0.0980 -1.1959
 4112TIP3   OH233750   4.906   1.462  16.330 -0.0122  0.3802  0.4414
 4112TIP3    H133751   4.881   1.370  16.337 -1.0148  0.4659 -1.4728
 4112TIP3    H233752   4.829   1.510  16.363 -0.5701  0.5463 -1.0138
 4113TIP3   OH233753   4.034   3.557   1.644  0.6230 -0.0340 -0.4267
 4113TIP3    H133754   4.116   3.528   1.683  0.4594 -1.6565 -1.1951
 4113TIP3    H233755   3.987   3.476   1.623 -0.7694  0.8381 -0.8590
 4114TIP3   OH233756   5.757   1.423  14.406  0.3924 -0.0894  0.4028
 4114TIP3    H133757   5.705   1.502  14.386  2.2540  1.1829  0.3666
 4114TIP3    H233758   5.701   1.373  14.466 -0.2719  1.9862  1.6302
 4115TIP3   OH233759   1.298   1.645  12.813 -0.2231  0.7155  0.3235
 4115TIP3    H133760   1.341   1.663  12.730  2.2294  1.1195  1.5998
 4115TIP3    H233761   1.236   1.717  12.824 -1.0406  0.3293 -1.3855
 4116TIP3   OH233762   2.522   4.856  14.567  0.2571 -0.2585  0.0565
 4116TIP3    H133763   2.481   4.801  14.500 -1.2085 -0.4750  1.0791
 4116TIP3    H233764   2.609   4.875  14.533 -0.6891  0.2348 -2.2444
 4117TIP3   OH233765   4.369   0.560   4.768  0.0481  0.1594  0.4913
 4117TIP3    H133766   4.438   0.512   4.815  0.3774  0.3197  0.1812
 4117TIP3    H233767   4.309   0.589   4.836  1.0529  1.2695  0.9462
 4118TIP3   OH233768   4.554   6.329   2.139 -0.0335 -0.4705 -0.1036
 4118TIP3    H133769   4.644   6.329   2.108 -0.5077 -1.3929 -1.6088
 4118TIP3    H233770   4.560   6.325   2.234  1.5024 -0.7196 -0.1960
 4119TIP3   OH233771   4.107   3.914   2.425 -0.1987  0.4252 -0.1742
 4119TIP3    H133772   4.043   3.984   2.441  0.8329  1.1300  1.0522
 4119TIP3    H233773   4.125   3.879   2.512 -0.9398 -1.6393 -0.7889
 4120TIP3   OH233774   0.368   1.285  16.840 -0.2765  0.0495 -0.0493
 4120TIP3    H133775   0.390   1.317  16.927 -0.1868 -0.7561  0.2366
 4120TIP3    H233776   0.422   1.337  16.781  0.6278 -0.2661  0.4724
 4121TIP3   OH233777   5.153   0.323   3.068 -0.2529 -0.1294  0.4855
 4121TIP3    H133778   5.145   0.371   3.150  0.1783  1.0694 -0.1473
 4121TIP3    H233779   5.216   0.253   3.087 -0.6188 -0.2371  1.3273
 4122TIP3   OH233780   2.057   6.229   3.924  1.0846  0.1803 -0.4165
 4122TIP3    H133781   2.079   6.255   3.835  3.0827 -0.2303 -0.0751
 4122TIP3    H233782   2.141   6.223   3.970  0.2081 -0.7954  1.1778
 4123TIP3   OH233783   6.778   2.630  10.769  0.1043 -0.0627  1.1030
 4123TIP3    H133784   6.760   2.559  10.831 -0.2154 -0.9687 -0.0071
 4123TIP3    H233785   6.864   2.610  10.733  0.0417  0.1458  0.8314
 4124TIP3   OH233786   3.258   5.133  12.623 -0.3997  0.2689  0.3637
 4124TIP3    H133787   3.226   5.209  12.672  1.2626  1.0363  0.3363
 4124TIP3    H233788   3.309   5.171  12.551 -1.0322 -0.8759 -0.7262
 4125TIP3   OH233789   1.205   1.894   5.796  0.8024 -0.0281 -0.1838
 4125TIP3    H133790   1.220   1.842   5.717 -0.3544  0.2892 -0.6416
 4125TIP3    H233791   1.155   1.970   5.765 -1.5802 -0.9467  1.1156
 4126TIP3   OH233792   6.307   1.329  13.828 -0.3079  0.1387  0.5856
 4126TIP3    H133793   6.216   1.347  13.854 -0.3005 -0.3173  0.9395
 4126TIP3    H233794   6.336   1.410  13.785 -0.6536  0.5540  1.1101
 4127TIP3   OH233795   5.624   2.128  15.140 -0.0938  0.1853 -0.1922
 4127TIP3    H133796   5.714   2.112  15.111 -0.4329 -1.8425 -0.3061
 4127TIP3    H233797   5.591   2.195  15.080  0.3972 -1.2467 -2.1709
 4128TIP3   OH233798   2.656   6.673  15.001  0.2159 -0.1649  0.1882
 4128TIP3    H133799   2.641   6.738  15.070 -1.8302  0.1074 -0.4563
 4128TIP3    H233800   2.693   6.723  14.928 -0.0542  0.0178  0.1770
 4129TIP3   OH233801   4.716   3.436   4.721 -0.0625 -0.0263  0.0785
 4129TIP3    H133802   4.806   3.464   4.705 -0.4062  0.0218 -2.0430
 4129TIP3    H233803   4.712   3.348   4.683 -1.1584  0.3575 -0.7135
 4130TIP3   OH233804   5.460   4.063   0.581  0.2181 -0.4065  0.0237
 4130TIP3    H133805   5.437   4.047   0.489  0.3552 -1.0015  0.0858
 4130TIP3    H233806   5.398   4.129   0.610  1.4924  1.3856 -1.0813
 4131TIP3   OH233807   1.141   6.108   3.567 -0.8397  0.4005  0.2244
 4131TIP3    H133808   1.234   6.128   3.567 -0.1446 -2.3810 -0.1185
 4131TIP3    H233809   1.118   6.097   3.475 -1.1278 -0.3416  0.3744
 4132TIP3   OH233810   4.168   0.029   1.274 -0.1832 -0.3205 -0.0500
 4132TIP3    H133811   4.084   0.002   1.238  0.1196 -2.0136  0.4151
 4132TIP3    H233812   4.225  -0.047   1.262  1.0154  0.4622  0.4896
 4133TIP3   OH233813   5.215   5.249   1.046  0.6451 -0.3023  0.2911
 4133TIP3    H133814   5.302   5.287   1.032  1.1555 -1.8126 -0.8398
 4133TIP3    H233815   5.224   5.196   1.125  0.8597 -0.7364 -0.0209
 4134TIP3   OH233816   3.706   0.845   4.451 -0.2064  0.5989 -0.1496
 4134TIP3    H133817   3.704   0.895   4.533 -0.5047  1.2268 -0.5268
 4134TIP3    H233818   3.753   0.902   4.390 -0.9344  0.6113 -0.7086
 4135TIP3   OH233819   0.195   6.152   1.454  0.2422 -0.1517 -0.0870
 4135TIP3    H133820   0.124   6.182   1.510  1.3035 -1.2285  1.9215
 4135TIP3    H233821   0.156   6.081   1.402 -0.0056 -1.2364  1.5270
 4136TIP3   OH233822   3.834   6.045  16.245 -0.1911 -0.2376  0.4532
 4136TIP3    H133823   3.798   6.097  16.173  0.7523  0.7586  0.6807
 4136TIP3    H233824   3.928   6.040  16.226  0.3144  1.2340  2.3252
 4137TIP3   OH233825   4.093   2.861   0.416  0.0635  0.3683  0.2323
 4137TIP3    H133826   4.024   2.885   0.355  0.5135 -0.2096 -0.5290
 4137TIP3    H233827   4.169   2.842   0.361  0.1847 -1.2193  0.8710
 4138TIP3   OH233828   2.906   6.136  15.610 -0.7197 -0.1392  0.4519
 4138TIP3    H133829   2.903   6.069  15.542 -0.2183 -0.9266  1.1882
 4138TIP3    H233830   2.999   6.158  15.618 -1.0348  2.2663 -1.2998
 4139TIP3   OH233831   5.530   4.920  11.172  0.1320  0.0529 -0.1650
 4139TIP3    H133832   5.546   4.901  11.080  0.3809 -0.5315 -0.0069
 4139TIP3    H233833   5.489   5.007  11.172 -3.1762 -1.3447 -1.1087
 4140TIP3   OH233834   2.145   0.405  16.420 -0.2188  0.1478 -0.3925
 4140TIP3    H133835   2.170   0.342  16.488  0.2804  0.1842 -0.5396
 4140TIP3    H233836   2.110   0.351  16.349  1.7371 -0.1116 -1.2037
 4141TIP3   OH233837   6.135   0.615  11.035  0.2283  0.3689  0.2569
 4141TIP3    H133838   6.093   0.699  11.015  1.3178  0.6950 -0.7973
 4141TIP3    H233839   6.076   0.549  10.998 -0.0407  0.7388  0.0196
 4142TIP3   OH233840   2.921   6.657   5.767  0.3042 -0.7331  0.6129
 4142TIP3    H133841   2.900   6.709   5.845  1.6145  0.7267  0.0512
 4142TIP3    H233842   2.872   6.699   5.696  3.0366  1.3178 -0.2765
 4143TIP3   OH233843   0.360   4.715  12.882 -1.1214 -0.1291  0.3262
 4143TIP3    H133844   0.307   4.743  12.808 -0.7272 -2.0205 -0.7461
 4143TIP3    H233845   0.446   4.754  12.867 -1.7033  1.6369  1.2353
 4144TIP3   OH233846   3.302   6.653  14.958 -0.4097  0.4313  0.1781
 4144TIP3    H133847   3.243   6.620  14.891  1.7461 -0.0171 -1.6093
 4144TIP3    H233848   3.348   6.726  14.916 -0.1065  1.1688  1.7110
 4145TIP3   OH233849   3.066   1.680   3.973  0.4416  0.5335  0.2348
 4145TIP3    H133850   3.111   1.761   3.997 -1.7529  1.3647  1.8506
 4145TIP3    H233851   3.094   1.616   4.038  1.4128  0.2165 -0.4616
 4146TIP3   OH233852   3.752   5.026  14.619 -0.4442  0.1493  0.0085
 4146TIP3    H133853   3.776   5.102  14.565 -0.1137 -1.2790 -1.9583
 4146TIP3    H233854   3.836   4.986  14.642 -0.6592 -0.9321 -0.9929
 4147TIP3   OH233855   0.726   6.098  12.010 -0.3083 -0.0004 -0.2724
 4147TIP3    H133856   0.690   6.166  11.952 -0.9913 -0.3769 -0.2973
 4147TIP3    H233857   0.658   6.083  12.075  0.8283  1.1134  1.2552
 4148TIP3   OH233858   5.411   1.794   0.058 -0.3577  0.0168  0.0309
 4148TIP3    H133859   5.363   1.859   0.006  0.7673  0.3732 -0.6097
 4148TIP3    H233860   5.437   1.727  -0.005 -1.4562 -1.0410  0.6838
 4149TIP3   OH233861   1.149   5.891  17.076 -0.7304  0.0657  0.2326
 4149TIP3    H133862   1.150   5.896  16.980  1.7733 -1.6585  0.0750
 4149TIP3    H233863   1.132   5.980  17.105  1.8874  1.3544 -1.8377
 4150TIP3   OH233864   1.390   2.747  12.622  0.2215  0.6275  0.3282
 4150TIP3    H133865   1.470   2.699  12.646  0.1678  0.3243 -0.0879
 4150TIP3    H233866   1.407   2.781  12.535 -1.1201 -1.8192 -0.9960
 4151TIP3   OH233867   4.124   0.303   3.237  0.1497 -0.0484 -0.7959
 4151TIP3    H133868   4.186   0.230   3.242  0.5246  0.3349  0.4196
 4151TIP3    H233869   4.135   0.350   3.319 -0.5315  1.0312 -1.2947
 4152TIP3   OH233870   2.893   3.022   2.399  0.0780  0.3190 -0.2450
 4152TIP3    H133871   2.968   3.076   2.427  0.6642 -0.8907  0.6085
 4152TIP3    H233872   2.865   2.978   2.479 -0.6689 -0.3058 -0.8404
 4153TIP3   OH233873   3.359   0.623   4.538 -0.4649  0.4787  0.0176
 4153TIP3    H133874   3.292   0.558   4.519  0.5752 -0.3877 -0.8240
 4153TIP3    H233875   3.315   0.688   4.593 -1.0406 -1.8781  2.5249
 4154TIP3   OH233876   4.081   0.401   5.880 -0.2077  0.5720 -0.2172
 4154TIP3    H133877   4.136   0.461   5.932 -1.1802  0.7085  0.6819
 4154TIP3    H233878   4.141   0.331   5.854  0.2845  0.4187  1.2397
 4155TIP3   OH233879   6.471   6.571  12.832 -0.3639  0.1987 -0.5385
 4155TIP3    H133880   6.432   6.559  12.745 -2.2221  3.7454 -0.3669
 4155TIP3    H233881   6.396   6.578  12.891  0.7625  1.1683  0.8303
 4156TIP3   OH233882   6.764   4.503  11.402 -0.1243  0.6337  0.4726
 4156TIP3    H133883   6.683   4.483  11.357  0.0716  0.3272  0.2553
 4156TIP3    H233884   6.826   4.436  11.373  1.0947  2.5533 -1.7219
 4157TIP3   OH233885   1.807   6.073   6.082  0.1105 -0.0513 -0.2487
 4157TIP3    H133886   1.895   6.103   6.057  0.7747 -2.3190 -0.8156
 4157TIP3    H233887   1.805   6.083   6.178  0.4840  1.2114 -0.3509
 4158TIP3   OH233888   0.412   6.467   3.061 -0.6502  0.0824  0.2155
 4158TIP3    H133889   0.380   6.551   3.094  0.0157  0.5530 -0.3168
 4158TIP3    H233890   0.426   6.482   2.967  2.4812  0.3566  0.6257
 4159TIP3   OH233891   4.799   4.585  15.965  0.5919  0.3728 -0.3949
 4159TIP3    H133892   4.802   4.681  15.964  1.5468  0.4593  2.1783
 4159TIP3    H233893   4.851   4.559  15.889 -0.2373  1.8567 -1.5230
 4160TIP3   OH233894   4.777   0.427  14.006 -0.7120 -0.7542  0.1238
 4160TIP3    H133895   4.845   0.409  13.941 -1.9752 -2.6504 -0.7555
 4160TIP3    H233896   4.723   0.495  13.966  0.0083 -0.0226  0.3614
 4161TIP3   OH233897   2.632   4.945  13.380  0.0503  0.3010 -0.5121
 4161TIP3    H133898   2.546   4.949  13.338  0.4442 -1.2245 -1.5393
 4161TIP3    H233899   2.672   5.030  13.360 -1.8786  1.8487  1.6254
 4162TIP3   OH233900   1.787   1.776   1.724  0.2925 -0.3249 -0.1777
 4162TIP3    H133901   1.877   1.744   1.720  0.3631 -0.0204 -0.9936
 4162TIP3    H233902   1.795   1.868   1.749  0.3524  0.3512 -2.5120
 4163TIP3   OH233903   5.806   2.199   1.389 -0.3095 -0.6676 -0.0686
 4163TIP3    H133904   5.875   2.265   1.395  0.8699 -1.8771  0.0566
 4163TIP3    H233905   5.776   2.188   1.479 -1.2355  0.4130 -0.2227
 4164TIP3   OH233906   6.723   1.201   5.929 -0.7240  0.1028  0.1808
 4164TIP3    H133907   6.649   1.238   5.976 -0.7062  0.3765 -0.0057
 4164TIP3    H233908   6.690   1.117   5.896  0.2479 -1.7167  3.4457
 4165TIP3   OH233909   4.047   6.255  12.563 -0.3242 -0.3716  0.0440
 4165TIP3    H133910   3.971   6.232  12.510  0.2384 -0.7783 -0.6069
 4165TIP3    H233911   4.017   6.246  12.653 -1.0004 -0.6755 -0.2032
 4166TIP3   OH233912   0.407   4.643   0.412 -0.1901 -0.6166 -0.0958
 4166TIP3    H133913   0.365   4.697   0.346 -0.2245 -1.3410 -0.6762
 4166TIP3    H233914   0.499   4.641   0.386 -0.3647 -1.6861 -0.6875
 4167TIP3   OH233915   5.198   3.993   2.300  0.5522  0.8619  0.2110
 4167TIP3    H133916   5.117   3.956   2.335  0.2370 -0.8755 -2.0980
 4167TIP3    H233917   5.262   3.923   2.307  1.3225  1.5468  0.1812
 4168TIP3   OH233918   3.691   5.395   1.685  0.0583 -0.2529  0.4119
 4168TIP3    H133919   3.679   5.301   1.671 -0.8817 -0.0573 -0.1950
 4168TIP3    H233920   3.785   5.406   1.695  0.0483 -1.4873  2.2231
 4169TIP3   OH233921   3.383   2.106  16.688  0.3819 -0.2101 -0.1500
 4169TIP3    H133922   3.306   2.077  16.737  1.2163  1.2105  2.1896
 4169TIP3    H233923   3.350   2.171  16.626 -0.4183 -0.2154  0.2611
 4170TIP3   OH233924   4.312   2.316   2.359 -0.0959  0.0050 -0.0767
 4170TIP3    H133925   4.237   2.358   2.402  0.3184  1.0210 -0.3112
 4170TIP3    H233926   4.309   2.350   2.269  0.6165  0.0269 -0.0946
 4171TIP3   OH233927   3.184   1.222  11.783  0.1789 -0.0853 -0.3799
 4171TIP3    H133928   3.097   1.210  11.746 -0.3713  0.7385  0.5920
 4171TIP3    H233929   3.189   1.156  11.852  0.2159  0.0547 -0.2492
 4172TIP3   OH233930   2.443   3.221  11.084  0.5029  0.1269 -0.1952
 4172TIP3    H133931   2.356   3.259  11.096  1.5266  2.5314  0.2185
 4172TIP3    H233932   2.480   3.268  11.009  1.3094 -1.1488 -0.6293
 4173TIP3   OH233933   4.694   0.863   1.413  0.2066  0.1576  0.1578
 4173TIP3    H133934   4.678   0.795   1.348  2.1534  0.3447 -0.5598
 4173TIP3    H233935   4.762   0.828   1.470  1.9968  1.8321 -0.8404
 4174TIP3   OH233936   5.020   6.489  15.130  0.6269  0.5288  0.7687
 4174TIP3    H133937   5.055   6.532  15.208  0.0143  1.2567  0.6599
 4174TIP3    H233938   5.063   6.532  15.057  0.3928  0.6084  0.6749
 4175TIP3   OH233939   1.799   1.767   2.286  0.2736  0.4110  0.9172
 4175TIP3    H133940   1.737   1.749   2.215  1.5127  0.0711 -0.1097
 4175TIP3    H233941   1.883   1.780   2.243  0.8296  1.5110  2.2290
 4176TIP3   OH233942   0.238   0.593   3.816  0.1748 -0.0701  0.4176
 4176TIP3    H133943   0.269   0.650   3.887 -1.9854  0.9919  0.6155
 4176TIP3    H233944   0.223   0.653   3.743 -1.0853 -0.5438  0.2661
 4177TIP3   OH233945   5.402   3.273   2.365  0.1572 -0.2919  0.3283
 4177TIP3    H133946   5.466   3.243   2.301  2.6661 -0.1992  2.5824
 4177TIP3    H233947   5.360   3.194   2.397  0.7972 -0.6094  0.4038
 4178TIP3   OH233948   3.397   3.730  15.246 -0.5568 -0.0249  0.0417
 4178TIP3    H133949   3.424   3.662  15.308  0.3256  1.8703  1.8356
 4178TIP3    H233950   3.419   3.693  15.160 -0.0572 -1.9674  0.9300
 4179TIP3   OH233951   3.417   2.576   5.457 -0.2619  0.0658  0.5390
 4179TIP3    H133952   3.430   2.573   5.362  0.6634  0.4447  0.6491
 4179TIP3    H233953   3.324   2.598   5.468 -1.3491 -3.4534 -0.2689
 4180TIP3   OH233954   3.172   1.492   4.696 -0.0979 -0.4256 -0.3539
 4180TIP3    H133955   3.239   1.559   4.680  0.7845 -1.4539 -1.1242
 4180TIP3    H233956   3.159   1.493   4.791  1.3301 -0.4739 -0.1266
 4181TIP3   OH233957   1.308   2.557  17.242 -0.7061 -0.5721  0.6457
 4181TIP3    H133958   1.347   2.517  17.164 -0.8257  0.5820 -0.0286
 4181TIP3    H233959   1.366   2.630  17.263 -0.8934 -0.6367  1.4192
 4182TIP3   OH233960   1.460   3.954   5.058  0.0655  0.7629  0.2127
 4182TIP3    H133961   1.476   3.882   4.997 -0.4152  0.4884  0.4018
 4182TIP3    H233962   1.381   3.996   5.025  0.1830  1.0297  0.2659
 4183TIP3   OH233963   1.432   3.357  15.560 -0.4319 -0.0694 -0.0165
 4183TIP3    H133964   1.403   3.269  15.534 -1.5227  0.3930 -0.4106
 4183TIP3    H233965   1.429   3.356  15.656  0.0276 -0.6011  0.0018
 4184TIP3   OH233966   1.933   0.109   4.138  0.0122 -0.5437 -0.2779
 4184TIP3    H133967   1.999   0.048   4.169  0.0753 -0.2906  0.1005
 4184TIP3    H233968   1.865   0.107   4.206 -0.5456 -1.0849 -0.8481
 4185TIP3   OH233969   1.429   6.694   3.062 -0.0485  0.1277 -0.5280
 4185TIP3    H133970   1.499   6.678   3.126 -1.0880 -0.2166  0.5533
 4185TIP3    H233971   1.475   6.725   2.984  1.3098 -0.0637  0.1634
 4186TIP3   OH233972   3.227   3.240  11.139 -0.0431 -0.2639  0.7255
 4186TIP3    H133973   3.151   3.190  11.169  0.3339 -1.0246  0.4555
 4186TIP3    H233974   3.233   3.219  11.045  1.4987 -1.6103  1.0752
 4187TIP3   OH233975   2.445   3.416  10.361  0.0865  0.4732  0.7850
 4187TIP3    H133976   2.376   3.403  10.426 -0.2072 -0.4001  0.3164
 4187TIP3    H233977   2.453   3.331  10.317 -0.8304  1.4419 -1.3891
 4188TIP3   OH233978   3.845   1.195  16.447  0.8660  0.0523  0.3500
 4188TIP3    H133979   3.853   1.120  16.389  0.3963  0.5634 -0.3905
 4188TIP3    H233980   3.757   1.188  16.484  0.8154  0.2444  0.2663
 4189TIP3   OH233981   3.014   0.819   3.666 -0.6817 -0.1967  0.1002
 4189TIP3    H133982   3.025   0.869   3.584 -0.6528  0.0471  0.2510
 4189TIP3    H233983   2.963   0.742   3.640  1.2505 -1.3031 -0.5916
 4190TIP3   OH233984   0.212   1.755  11.360  0.4342  0.4142  0.2561
 4190TIP3    H133985   0.136   1.791  11.314  1.4125  0.1520 -1.6791
 4190TIP3    H233986   0.277   1.826  11.358  0.5770  0.3146  1.0564
 4191TIP3   OH233987   2.351   5.796   5.988  0.1457 -0.3567  0.3110
 4191TIP3    H133988   2.409   5.733   5.945 -0.0322 -1.6398  1.8642
 4191TIP3    H233989   2.337   5.760   6.075 -1.9856  0.5926  0.4102
 4192TIP3   OH233990   0.752   3.782   3.612 -0.7849 -0.6798  0.1528
 4192TIP3    H133991   0.695   3.705   3.611 -2.3373  0.4313 -0.3718
 4192TIP3    H233992   0.805   3.774   3.533 -0.3202 -1.6354  0.5508
 4193TIP3   OH233993   4.999   5.912  16.510  0.3833  0.4000  0.3183
 4193TIP3    H133994   4.992   5.971  16.435 -2.0214 -1.6180 -1.2104
 4193TIP3    H233995   5.061   5.955  16.569 -0.2788  3.7947 -1.2159
 4194TIP3   OH233996   0.568   2.194   0.716  0.3149 -0.8078  0.0233
 4194TIP3    H133997   0.582   2.232   0.629  1.3578 -1.8841 -0.2986
 4194TIP3    H233998   0.516   2.115   0.699 -1.0150 -0.1011  0.5917
 4195TIP3   OH233999   3.394   6.604   0.842  0.2309 -0.9849 -0.5728
 4195TIP3    H134000   3.367   6.574   0.755  1.9398 -0.0633 -1.4655
 4195TIP3    H234001   3.480   6.564   0.856  1.3293  1.1941 -0.6329
 4196TIP3   OH234002   2.161   2.641   3.557  0.1643  0.3917  0.2006
 4196TIP3    H134003   2.089   2.621   3.617 -1.2709  1.6139 -1.0337
 4196TIP3    H234004   2.200   2.556   3.536 -0.5968 -0.2388  1.2682
 4197TIP3   OH234005   0.626   5.772  12.299  0.0666  0.0458  0.4400
 4197TIP3    H134006   0.704   5.738  12.255  1.2301  2.1513  0.7610
 4197TIP3    H234007   0.558   5.768  12.231  0.4825 -1.5561  0.0709
 4198TIP3   OH234008   4.642   0.370   0.613 -0.2496 -0.0154  0.0547
 4198TIP3    H134009   4.616   0.408   0.530  1.4764  1.5800  0.1803
 4198TIP3    H234010   4.638   0.442   0.676  1.2792 -0.4442  0.7083
 4199TIP3   OH234011   5.435   5.407   1.823 -0.5173  0.0031  0.1048
 4199TIP3    H134012   5.477   5.345   1.763 -1.2349  0.4863 -0.9344
 4199TIP3    H234013   5.475   5.492   1.802  1.4242 -0.2073  2.4116
 4200TIP3   OH234014   4.810   3.087   4.034  0.1382 -0.0808 -0.0200
 4200TIP3    H134015   4.737   3.065   4.093  0.6356  0.2609  0.7352
 4200TIP3    H234016   4.824   3.181   4.047 -0.7961  0.3859 -1.9005
 4201TIP3   OH234017   6.031   5.626   3.386  0.0684  0.2099  0.0212
 4201TIP3    H134018   6.100   5.643   3.322  0.1612 -0.1773  0.0185
 4201TIP3    H234019   5.961   5.688   3.364 -0.0340 -0.1436 -0.6552
 4202TIP3   OH234020   4.438   5.616  11.570 -0.3044 -0.3389  0.0818
 4202TIP3    H134021   4.431   5.542  11.631  1.1902  1.1178  2.1611
 4202TIP3    H234022   4.408   5.691  11.621 -0.1544  0.7727 -1.4091
 4203TIP3   OH234023   4.740   0.069   0.069 -0.6532  0.0602  0.4928
 4203TIP3    H134024   4.818   0.092   0.119 -0.1778  0.8063 -0.5413
 4203TIP3    H234025   4.712  -0.015   0.105  0.5461 -0.1510  0.9813
 4204TIP3   OH234026   1.783   3.074   1.758  0.1327 -0.0325 -0.0820
 4204TIP3    H134027   1.740   3.020   1.692  0.4912  0.5695 -0.8256
 4204TIP3    H234028   1.757   3.163   1.737  0.7740  0.2286  0.1991
 4205TIP3   OH234029   2.353   6.513  12.777  0.1523  0.6288 -0.4657
 4205TIP3    H134030   2.335   6.459  12.854 -0.9672  0.3309 -0.9160
 4205TIP3    H234031   2.335   6.603  12.806  0.4759  0.5978 -0.1662
 4206TIP3   OH234032   5.209   4.647  10.838  0.6732 -0.4586 -0.3016
 4206TIP3    H134033   5.135   4.652  10.777  2.7329  1.8257 -2.9110
 4206TIP3    H234034   5.234   4.738  10.853  1.3817 -1.0597  2.6431
 4207TIP3   OH234035   3.793   0.119  13.019 -0.0713 -0.2115 -0.0788
 4207TIP3    H134036   3.845   0.046  12.986  1.5061  0.5421  0.6224
 4207TIP3    H234037   3.808   0.119  13.114 -2.2154 -0.5915  0.2980
 4208TIP3   OH234038   4.339   5.354  14.484 -0.0585 -0.3459 -0.6059
 4208TIP3    H134039   4.260   5.328  14.531  0.8931  0.1171  1.3499
 4208TIP3    H234040   4.373   5.427  14.534  1.8187 -0.7740 -1.1945
 4209TIP3   OH234041   5.312   1.917   4.147  0.3525 -0.6011 -0.4909
 4209TIP3    H134042   5.328   1.869   4.065 -0.1636 -0.1864 -0.8389
 4209TIP3    H234043   5.399   1.937   4.180  0.5862 -1.6655 -0.4021
 4210TIP3   OH234044   1.155   0.047   2.987 -0.4422  0.0579 -0.4001
 4210TIP3    H134045   1.083   0.044   3.050  0.6573 -2.4567  0.9142
 4210TIP3    H234046   1.133  -0.022   2.923  0.1149  0.2398 -0.7894
 4211TIP3   OH234047   3.390   5.422   2.147  0.1124  0.0805  0.3772
 4211TIP3    H134048   3.296   5.402   2.145  0.8002 -4.1827  1.0466
 4211TIP3    H234049   3.418   5.416   2.056 -0.3251  2.1625  0.0699
 4212TIP3   OH234050   1.581   4.097  11.709 -0.7128  0.6934  0.0674
 4212TIP3    H134051   1.609   4.032  11.644  1.4281 -0.0938  1.6599
 4212TIP3    H234052   1.500   4.062  11.746  1.5402 -2.4708  2.5402
 4213TIP3   OH234053   3.051   0.292  13.680 -0.4680 -0.1689  0.8264
 4213TIP3    H134054   3.089   0.331  13.758 -1.3187  2.0790  0.1978
 4213TIP3    H234055   3.125   0.286  13.618 -0.0021 -1.0632  1.4481
 4214TIP3   OH234056   1.722   5.834  16.931 -0.0795  0.8210  0.2641
 4214TIP3    H134057   1.640   5.784  16.925  0.3608  0.0843  0.1849
 4214TIP3    H234058   1.789   5.767  16.946  0.5534  1.3760 -0.0457
 4215TIP3   OH234059   4.474   1.913  10.510 -0.0926 -0.1732 -0.0290
 4215TIP3    H134060   4.553   1.884  10.555 -0.5138 -1.1037  0.1395
 4215TIP3    H234061   4.502   1.988  10.458  0.3912  0.9684  1.7975
 4216TIP3   OH234062   0.331   0.285   1.870  0.6383 -0.7558  0.1273
 4216TIP3    H134063   0.287   0.288   1.785 -0.0322 -1.5275  0.4371
 4216TIP3    H234064   0.260   0.274   1.933  0.7370  2.9143  1.1202
 4217TIP3   OH234065   1.570   3.663   1.890 -0.4314  0.0203 -0.0040
 4217TIP3    H134066   1.482   3.700   1.894  0.1711  1.5352 -0.2971
 4217TIP3    H234067   1.606   3.693   1.807  0.8367  0.5460  0.7024
 4218TIP3   OH234068   3.828   4.034  10.844 -0.4729 -0.0375 -0.3862
 4218TIP3    H134069   3.822   4.125  10.873 -0.0833  0.1342 -0.8385
 4218TIP3    H234070   3.832   4.040  10.749 -0.1138 -0.5092 -0.4018
 4219TIP3   OH234071   5.512   5.093   4.252  0.6042  0.6449  0.1386
 4219TIP3    H134072   5.491   5.154   4.182  0.7588 -1.0102 -1.4135
 4219TIP3    H234073   5.607   5.091   4.255  0.6010  0.8722  0.5781
 4220TIP3   OH234074   4.182   5.416  12.702  0.1815  0.7699  0.1200
 4220TIP3    H134075   4.243   5.455  12.764 -1.2127  1.6873  0.9536
 4220TIP3    H234076   4.165   5.328  12.737  0.0649  0.9698  0.5662
 4221TIP3   OH234077   0.443   1.031  11.414 -0.1820 -0.0295 -0.3965
 4221TIP3    H134078   0.498   1.093  11.462  0.2677 -1.7137  1.3846
 4221TIP3    H234079   0.500   0.997  11.345 -0.0277  0.6033 -0.5831
 4222TIP3   OH234080   6.628   1.757  13.661 -0.3214  0.6013 -0.4580
 4222TIP3    H134081   6.685   1.818  13.615  2.3884 -2.3893 -1.4561
 4222TIP3    H234082   6.659   1.757  13.751 -0.3740  0.7547 -0.4410
 4223TIP3   OH234083   6.460   6.052  13.571 -0.3916 -0.2190 -0.0158
 4223TIP3    H134084   6.461   6.147  13.580  1.0890 -0.3248  1.5367
 4223TIP3    H234085   6.537   6.032  13.519  0.1633 -0.6390  0.9445
 4224TIP3   OH234086   1.563   0.190  14.930 -0.4700  0.2516  0.7934
 4224TIP3    H134087   1.495   0.224  14.872  1.3451  0.6384 -1.2792
 4224TIP3    H234088   1.642   0.236  14.902  0.9081 -1.2146  2.1065
 4225TIP3   OH234089   2.695   0.151  15.549  0.5877  0.3576  0.4813
 4225TIP3    H134090   2.742   0.232  15.527 -2.6182  1.7048 -2.4732
 4225TIP3    H234091   2.736   0.084  15.495  2.3639  0.2386  1.8920
 4226TIP3   OH234092   6.656   5.345  11.276  0.1916 -0.2005  0.1819
 4226TIP3    H134093   6.653   5.313  11.366  0.9112  0.5062  0.4737
 4226TIP3    H234094   6.597   5.420  11.275  1.3319  0.7310  0.4798
 4227TIP3   OH234095   2.040   5.634   2.154 -0.0603 -0.2725 -0.4111
 4227TIP3    H134096   2.122   5.598   2.186 -0.3676 -0.1092  0.5937
 4227TIP3    H234097   1.986   5.558   2.135  0.1072 -0.3736 -0.4850
 4228TIP3   OH234098   0.085   4.267  17.137 -0.1465  0.1352  0.2792
 4228TIP3    H134099   0.141   4.196  17.107 -1.1386 -0.8873  0.7720
 4228TIP3    H234100   0.062   4.243  17.227 -0.0596  1.3700  0.6580
 4229TIP3   OH234101   5.464   2.071   3.309 -0.6164 -0.0218  0.2454
 4229TIP3    H134102   5.491   2.142   3.367 -1.6823 -0.5957  1.4964
 4229TIP3    H234103   5.373   2.092   3.287 -0.2473  0.1592 -1.2121
 4230TIP3   OH234104   2.863   6.557  15.329  0.3149 -0.3490 -0.9077
 4230TIP3    H134105   2.806   6.486  15.298  0.9532 -1.1330 -0.3429
 4230TIP3    H234106   2.802   6.623  15.362 -0.3016 -1.6708  0.7758
 4231TIP3   OH234107   5.095   2.462  15.987  0.1779 -0.1286  0.1005
 4231TIP3    H134108   5.092   2.439  15.894 -0.7996  0.7172 -0.0867
 4231TIP3    H234109   5.170   2.413  16.021  1.5929  0.8185 -1.4903
 4232TIP3   OH234110   1.795   4.716   1.950  0.1085  0.1139 -0.0160
 4232TIP3    H134111   1.882   4.754   1.935  0.1898 -0.3543 -0.7825
 4232TIP3    H234112   1.778   4.663   1.871 -2.3894  2.9770 -1.6238
 4233TIP3   OH234113   3.337   2.575   2.344  0.9144 -0.4505 -0.0989
 4233TIP3    H134114   3.302   2.608   2.428  0.5570  1.4754 -0.9417
 4233TIP3    H234115   3.299   2.488   2.335 -2.7631  0.9612 -0.2972
 4234TIP3   OH234116   0.433   3.741  16.967 -0.8525 -0.2596  0.0478
 4234TIP3    H134117   0.353   3.716  16.921  0.2287 -2.1848 -0.9335
 4234TIP3    H234118   0.503   3.724  16.904  0.2862  2.7194  0.3539
 4235TIP3   OH234119   5.491   2.788  15.820 -0.2402  0.3996 -0.0182
 4235TIP3    H134120   5.490   2.821  15.730  2.0914 -1.3274 -0.7813
 4235TIP3    H234121   5.405   2.750  15.832 -0.4841  0.3253 -1.6858
 4236TIP3   OH234122   3.699   1.095   2.589 -0.4693  0.2653  0.1916
 4236TIP3    H134123   3.678   1.020   2.646 -0.4529 -0.1184 -0.2947
 4236TIP3    H234124   3.791   1.114   2.607 -0.5089  0.2465  0.4126
 4237TIP3   OH234125   1.124   1.219  11.673 -0.0751  0.4035  0.4185
 4237TIP3    H134126   1.068   1.162  11.620  0.5789  0.1760 -0.0413
 4237TIP3    H234127   1.110   1.306  11.637  1.8219  0.0126 -1.4897
 4238TIP3   OH234128   6.170   4.415  11.211  0.1629 -0.1667  0.1988
 4238TIP3    H134129   6.236   4.372  11.265 -0.2732 -2.1574 -0.7862
 4238TIP3    H234130   6.217   4.442  11.132  0.6511  2.1447  1.2026
 4239TIP3   OH234131   5.321   3.366   3.492 -0.4032  0.2217  0.1669
 4239TIP3    H134132   5.267   3.436   3.527 -1.4316 -0.3763 -0.1785
 4239TIP3    H234133   5.409   3.384   3.525 -0.7414  1.3993  0.4648
 4240TIP3   OH234134   1.980   2.595  11.398  0.4558  0.1878  0.5648
 4240TIP3    H134135   1.912   2.634  11.343 -0.4619 -1.0959  0.7487
 4240TIP3    H234136   2.038   2.668  11.419 -1.1497  1.4403  0.8533
 4241TIP3   OH234137   3.241   4.511   4.610  0.1151 -0.0342 -0.4411
 4241TIP3    H134138   3.214   4.492   4.700 -1.2533 -0.6436 -0.9561
 4241TIP3    H234139   3.311   4.449   4.592  1.5295  1.1458  0.7088
 4242TIP3   OH234140   3.774   2.064   1.792  0.3087 -0.5357 -0.0230
 4242TIP3    H134141   3.713   2.132   1.763 -0.5732 -1.5977 -0.7469
 4242TIP3    H234142   3.745   2.041   1.880  0.6500  0.0492  0.2504
 4243TIP3   OH234143   3.143   0.295  11.921  0.1424  0.2649  0.3197
 4243TIP3    H134144   3.187   0.283  12.004 -1.4026 -1.6574  0.9652
 4243TIP3    H234145   3.198   0.248  11.858 -0.6239 -1.7057  1.0262
 4244TIP3   OH234146   1.893   2.896   4.411  0.9928 -0.3693 -0.4307
 4244TIP3    H134147   1.945   2.948   4.350  1.7882  0.6272  1.0268
 4244TIP3    H234148   1.956   2.867   4.477 -0.0579 -0.2289  0.6763
 4245TIP3   OH234149   5.205   4.945  13.478 -0.2042 -0.4642 -0.2165
 4245TIP3    H134150   5.297   4.965  13.463  0.5868 -3.2435  0.4286
 4245TIP3    H234151   5.160   5.029  13.466  2.0629  0.4993 -3.0480
 4246TIP3   OH234152   4.519   1.221  13.464 -0.0150 -0.4046  0.1494
 4246TIP3    H134153   4.457   1.238  13.393  0.8074 -1.5444 -0.8843
 4246TIP3    H234154   4.602   1.255  13.431  0.6886 -2.2347 -0.0872
 4247TIP3   OH234155   6.612   2.879  10.894 -0.2135 -0.2453 -0.0908
 4247TIP3    H134156   6.677   2.939  10.930 -0.3589  0.7738 -1.4489
 4247TIP3    H234157   6.530   2.929  10.898 -0.9076 -1.4215  1.3790
 4248TIP3   OH234158   4.222   5.526   0.015  0.6623  0.1518  0.1239
 4248TIP3    H134159   4.214   5.484  -0.071  1.3779  0.3064 -0.0224
 4248TIP3    H234160   4.251   5.455   0.073 -0.8427 -0.2126  0.4831
 4249TIP3   OH234161   6.160   4.551   2.628  0.4684 -0.3067 -1.1417
 4249TIP3    H134162   6.165   4.628   2.685 -0.6342 -1.4818  0.6341
 4249TIP3    H234163   6.251   4.522   2.620  0.6196 -0.2591  0.2322
 4250TIP3   OH234164   4.762   1.746   4.695  0.4364  0.0424  0.5931
 4250TIP3    H134165   4.798   1.678   4.639  1.4662  0.2697  0.9552
 4250TIP3    H234166   4.788   1.721   4.784 -3.1886 -1.6150  1.3718
 4251TIP3   OH234167   1.905   6.377   0.827  0.3500 -0.0511 -0.0933
 4251TIP3    H134168   1.959   6.376   0.748 -0.6841 -0.5278 -0.8117
 4251TIP3    H234169   1.823   6.335   0.801 -0.4390  0.7999  0.9271
 4252TIP3   OH234170   3.128   2.534   1.851 -0.6772 -0.6574 -0.1023
 4252TIP3    H134171   3.077   2.527   1.770 -0.9174  0.8481 -0.1211
 4252TIP3    H234172   3.094   2.464   1.907 -0.5646 -1.6730 -1.2578
 4253TIP3   OH234173   0.181   5.759   2.680 -0.2289  0.0057 -0.1229
 4253TIP3    H134174   0.231   5.833   2.646 -3.3476  1.3945 -2.1470
 4253TIP3    H234175   0.194   5.690   2.615  1.3125 -0.6968  0.8837
 4254TIP3   OH234176   5.046   4.176   1.794  0.0779  0.1857 -0.7800
 4254TIP3    H134177   4.975   4.131   1.749  0.2230 -0.7802 -0.0740
 4254TIP3    H234178   5.099   4.106   1.832 -0.9818  0.9220  2.3606
 4255TIP3   OH234179   5.614   2.390   2.782 -0.0230 -0.2622  0.3912
 4255TIP3    H134180   5.646   2.410   2.870 -1.4813  1.3569  0.6145
 4255TIP3    H234181   5.690   2.402   2.725  0.2249  2.0180  1.0748
 4256TIP3   OH234182   0.536   4.915  13.681 -0.0881 -0.4420  0.0111
 4256TIP3    H134183   0.578   4.987  13.634 -0.6159  0.1467  0.4237
 4256TIP3    H234184   0.602   4.886  13.744  0.4182 -0.8608 -0.7009
 4257TIP3   OH234185   5.660   1.052  16.015  0.0116  0.0436  0.1963
 4257TIP3    H134186   5.642   1.145  15.996  2.3346  0.5441  0.1553
 4257TIP3    H234187   5.695   1.052  16.104  0.0584 -0.7785  0.1788
 4258TIP3   OH234188   3.896   3.993  13.964 -0.0411 -0.6380  0.1763
 4258TIP3    H134189   3.855   4.025  14.045 -1.2035 -2.9381  0.5759
 4258TIP3    H234190   3.984   3.966  13.990  0.5640  1.0848  0.0535
 4259TIP3   OH234191   6.418   5.422  11.639  0.2536  0.1070  0.2848
 4259TIP3    H134192   6.353   5.410  11.570  1.2001  2.6840 -1.2154
 4259TIP3    H234193   6.373   5.474  11.706  0.0472 -0.2788  0.4464
 4260TIP3   OH234194   3.985   3.167  11.024  0.3467  0.2421 -0.1271
 4260TIP3    H134195   4.022   3.148  10.938  0.7491  3.3309 -0.7717
 4260TIP3    H234196   4.029   3.248  11.051 -2.9979  1.9158  0.8703
 4261TIP3   OH234197   4.231   0.598   5.990 -0.3036 -0.0265  0.0844
 4261TIP3    H134198   4.286   0.658   6.040  0.8851  1.0182 -2.3083
 4261TIP3    H234199   4.151   0.648   5.973 -0.9419 -0.5803  1.3086
 4262TIP3   OH234200   4.428   1.424   2.547  0.1364 -0.1540  0.0946
 4262TIP3    H134201   4.459   1.400   2.460  0.0309  0.2700 -0.0575
 4262TIP3    H234202   4.473   1.362   2.606 -0.9763 -1.4809 -0.3873
 4263TIP3   OH234203   6.638   0.858   1.875 -0.1394  0.0535 -0.2848
 4263TIP3    H134204   6.733   0.858   1.888 -0.2422 -0.0267  0.5251
 4263TIP3    H234205   6.609   0.775   1.914 -0.6275  0.4526  0.2200
 4264TIP3   OH234206   3.804   2.736   0.090  0.3406  0.3731 -0.1142
 4264TIP3    H134207   3.865   2.810   0.090  0.0254  0.6478 -0.8494
 4264TIP3    H234208   3.779   2.725   0.181  2.7866 -0.8578  0.5074
 4265TIP3   OH234209   0.383   0.416  11.727  0.0441  0.2663  0.3159
 4265TIP3    H134210   0.424   0.430  11.812 -0.6944 -0.9421  0.8934
 4265TIP3    H234211   0.446   0.364  11.678  0.2778  0.5878  0.2662
 4266TIP3   OH234212   5.073   3.189   2.336 -0.2438  0.5630 -0.1608
 4266TIP3    H134213   5.043   3.122   2.398 -0.4363  0.2073 -0.6313
 4266TIP3    H234214   5.167   3.175   2.329 -0.3172  0.1810 -0.4379
 4267TIP3   OH234215   6.226   2.019  13.201  0.0050 -0.3102  0.1589
 4267TIP3    H134216   6.133   1.997  13.186  0.2290 -0.0406 -1.9452
 4267TIP3    H234217   6.269   1.934  13.205 -0.2777 -0.4310  0.9065
 4268TIP3   OH234218   4.666   3.282   2.823 -0.0293 -0.4878  0.8038
 4268TIP3    H134219   4.647   3.320   2.909  0.9076  0.3542  0.6679
 4268TIP3    H234220   4.700   3.356   2.772 -0.1685 -1.0724 -0.1561
 4269TIP3   OH234221   1.488   0.234   1.461  0.0910  0.1958  0.0958
 4269TIP3    H134222   1.583   0.225   1.467  0.0463 -0.4269 -0.1072
 4269TIP3    H234223   1.454   0.149   1.488 -0.4251  0.5386  0.5405
 4270TIP3   OH234224   1.088   6.419   6.275 -0.0245  0.3124 -0.0251
 4270TIP3    H134225   1.105   6.388   6.364  1.1813  0.8449 -0.0513
 4270TIP3    H234226   1.044   6.346   6.231 -0.9588  0.1730  1.1028
 4271TIP3   OH234227   6.227   5.491  10.928  0.3472  0.1440  0.0727
 4271TIP3    H134228   6.231   5.494  11.023  0.3927 -0.6481  0.1035
 4271TIP3    H234229   6.163   5.558  10.904  0.9655  0.9479  0.6029
 4272TIP3   OH234230   1.087   6.186   5.417 -0.2115  0.0293 -0.1855
 4272TIP3    H134231   1.158   6.250   5.425 -0.7316  0.5423  0.5398
 4272TIP3    H234232   1.058   6.172   5.507 -2.1840  1.1882 -0.5835
 4273TIP3   OH234233   5.603   2.696  14.369  0.2670 -0.0780  0.0762
 4273TIP3    H134234   5.693   2.723  14.355  0.5069 -1.4130 -1.2081
 4273TIP3    H234235   5.563   2.697  14.282 -0.7453 -0.2029  0.5148
 4274TIP3   OH234236   4.928   1.766  12.651  0.1656  0.7697  0.0477
 4274TIP3    H134237   4.914   1.843  12.596  3.1261 -0.5719 -2.9422
 4274TIP3    H234238   4.875   1.698  12.611  0.5668  0.3236  0.2664
 4275TIP3   OH234239   3.048   5.352   4.731 -0.5428  0.0819 -1.0213
 4275TIP3    H134240   3.100   5.401   4.668  1.2660 -1.2761 -0.6844
 4275TIP3    H234241   3.060   5.399   4.814 -2.5333  1.5943 -1.5362
 4276TIP3   OH234242   1.164   5.361  14.978  0.2171  0.0739  0.0893
 4276TIP3    H134243   1.139   5.289  15.036 -1.6850 -0.3268 -1.1222
 4276TIP3    H234244   1.187   5.432  15.037  1.0962 -1.1739  1.3205
 4277TIP3   OH234245   4.822   6.253  15.490 -0.0490 -0.2403 -0.0752
 4277TIP3    H134246   4.843   6.315  15.420  0.3137 -2.3012 -1.9080
 4277TIP3    H234247   4.843   6.300  15.571 -0.1767  2.1276 -1.3331
 4278TIP3   OH234248   1.031   2.379  11.903 -1.0493  0.3371 -0.3002
 4278TIP3    H134249   1.065   2.381  11.814 -0.8819  0.3809 -0.2366
 4278TIP3    H234250   1.107   2.357  11.957 -1.1570  0.2722 -0.1718
 4279TIP3   OH234251   6.281   0.194  11.604  0.0944  0.8189 -0.1257
 4279TIP3    H134252   6.287   0.288  11.620  0.3269  0.8032 -0.1154
 4279TIP3    H234253   6.187   0.174  11.609 -0.2602  1.4818 -2.5874
 4280TIP3   OH234254   0.962   4.536   0.558  0.2268 -0.1209  0.0333
 4280TIP3    H134255   0.920   4.571   0.479  0.2263  0.9445  0.4816
 4280TIP3    H234256   1.055   4.539   0.539  0.2786  0.9896  0.3861
 4281TIP3   OH234257   0.280   6.106  13.216 -0.2909  0.1780  0.4185
 4281TIP3    H134258   0.213   6.173  13.232  0.4277  1.3860 -1.2929
 4281TIP3    H234259   0.241   6.025  13.248 -1.6690  1.2147  1.4916
 4282TIP3   OH234260   3.500   6.283  14.455 -0.1717 -0.5336  0.3852
 4282TIP3    H134261   3.593   6.262  14.452  0.0744  0.4310  0.7109
 4282TIP3    H234262   3.486   6.318  14.542 -0.4736  0.8618 -0.1916
 4283TIP3   OH234263   6.660   0.975   6.183  0.1857 -0.6141  0.2519
 4283TIP3    H134264   6.703   0.982   6.268  0.5960  3.1263 -0.0773
 4283TIP3    H234265   6.730   0.992   6.119 -0.6294 -0.6316 -0.6711
 4284TIP3   OH234266   3.663   2.116   3.028 -0.2260 -0.1119  0.2769
 4284TIP3    H134267   3.690   2.182   3.092 -1.5656  0.0080  0.7303
 4284TIP3    H234268   3.740   2.059   3.019  0.6483  0.9912  0.5174
 4285TIP3   OH234269   1.132   4.830   1.185  0.0541 -1.0808 -0.2718
 4285TIP3    H134270   1.168   4.907   1.230 -0.2562  0.1724 -2.0541
 4285TIP3    H234271   1.191   4.758   1.208  0.5047 -0.2726  1.2391
 4286TIP3   OH234272   1.412   1.019  14.460 -0.4020  0.0190 -0.6450
 4286TIP3    H134273   1.332   0.969  14.478 -0.7225  0.6696 -0.2436
 4286TIP3    H234274   1.466   0.959  14.409  0.0116 -1.4523  1.3938
 4287TIP3   OH234275   4.799   1.229   1.918 -0.2160  0.4036  0.1008
 4287TIP3    H134276   4.785   1.142   1.882 -0.2066  1.6383 -3.3066
 4287TIP3    H234277   4.894   1.234   1.933 -0.0842  0.1188 -0.5970
 4288TIP3   OH234278   6.500   6.515   3.261 -0.4954 -0.2369  0.6177
 4288TIP3    H134279   6.568   6.578   3.285 -1.0717  0.7826 -0.3213
 4288TIP3    H234280   6.543   6.430   3.267  0.5642  0.3095  1.0617
 4289TIP3   OH234281   2.553   5.441   5.514 -0.2160  0.1408 -0.0545
 4289TIP3    H134282   2.590   5.529   5.523  0.6368 -0.3698  2.0455
 4289TIP3    H234283   2.460   5.451   5.537  0.1096  0.3614  1.2787
 4290TIP3   OH234284   3.466   2.398  15.226  0.1264 -0.2364 -0.1624
 4290TIP3    H134285   3.384   2.417  15.181 -1.2532 -0.9166  1.9316
 4290TIP3    H234286   3.480   2.474  15.283 -0.3573 -1.1720  1.2400
 4291TIP3   OH234287   1.415   1.872  17.053  0.0664 -0.0254 -0.0537
 4291TIP3    H134288   1.422   1.791  17.103  1.7839 -0.1209 -0.3936
 4291TIP3    H234289   1.470   1.935  17.101  0.7528  0.2204 -1.1387
 4292TIP3   OH234290   3.173   5.768   3.101 -0.1751  0.1258  0.3136
 4292TIP3    H134291   3.240   5.720   3.052  0.4918  0.9486  0.3783
 4292TIP3    H234292   3.151   5.843   3.045 -1.5052 -0.4590  0.0243
 4293TIP3   OH234293   2.428   1.724   0.805  0.3237  0.0660 -0.4077
 4293TIP3    H134294   2.478   1.681   0.875 -1.7034  0.2110  1.2221
 4293TIP3    H234295   2.427   1.816   0.830 -0.1032  0.1789 -0.8447
 4294TIP3   OH234296   4.208   2.077  16.368 -0.1018 -0.4182  0.4348
 4294TIP3    H134297   4.283   2.119  16.410 -0.3398  1.5718 -1.0479
 4294TIP3    H234298   4.206   1.989  16.407  0.2977  0.9052  3.8222
 4295TIP3   OH234299   1.549   4.570   0.230  0.1409 -0.0437 -0.0922
 4295TIP3    H134300   1.496   4.648   0.216 -1.1659 -1.1194 -1.5075
 4295TIP3    H234301   1.600   4.589   0.309 -2.7326  0.8586  1.6810
 4296TIP3   OH234302   5.741   3.499  16.349 -0.3095 -0.1614 -0.4381
 4296TIP3    H134303   5.688   3.559  16.297  0.7211  2.6341  1.5454
 4296TIP3    H234304   5.827   3.501  16.307 -0.6798 -1.7133 -1.3754
 4297TIP3   OH234305   5.480   4.001   1.214  0.4424 -0.3179  0.2858
 4297TIP3    H134306   5.417   3.932   1.235  1.2207 -0.8512  0.9392
 4297TIP3    H234307   5.496   3.991   1.120 -0.8409  0.1670  0.0087
 4298TIP3   OH234308   5.935   4.441   3.800  0.0314  0.5917  0.1776
 4298TIP3    H134309   5.922   4.471   3.890 -0.2211  0.9031  0.0386
 4298TIP3    H234310   6.004   4.497   3.765  0.5392  0.0941  0.3546
 4299TIP3   OH234311   3.656   2.930  16.369 -0.3409  0.4723 -0.0475
 4299TIP3    H134312   3.716   2.874  16.419 -0.1115 -0.2459 -1.1150
 4299TIP3    H234313   3.578   2.937  16.424 -0.3081 -0.7547  0.1826
 4300TIP3   OH234314   0.421   5.751   6.406  0.4261  0.6042  0.5092
 4300TIP3    H134315   0.399   5.660   6.389  0.2058  0.2789  2.3977
 4300TIP3    H234316   0.481   5.749   6.481  3.1961  1.8042 -1.4881
 4301TIP3   OH234317   5.674   2.622   4.556  0.4683  0.2833 -0.2446
 4301TIP3    H134318   5.742   2.643   4.619  1.9857 -1.4864 -1.1828
 4301TIP3    H234319   5.703   2.663   4.474  0.8115 -1.0094 -0.8077
 4302TIP3   OH234320   4.319   5.794  14.530  0.1428  0.0696  0.1843
 4302TIP3    H134321   4.349   5.773  14.441  0.6053 -0.6266  0.4936
 4302TIP3    H234322   4.236   5.747  14.538 -0.3741  0.8931 -0.1958
 4303TIP3   OH234323   1.928   3.314   3.186  0.7883  0.2188 -0.5580
 4303TIP3    H134324   2.003   3.297   3.128  2.7050 -0.3316  1.9432
 4303TIP3    H234325   1.937   3.407   3.209  0.2206  0.3493 -0.8388
 4304TIP3   OH234326   5.192   3.322   5.401  0.6323 -0.1659 -0.3213
 4304TIP3    H134327   5.122   3.333   5.466 -0.2120 -1.7439 -0.8803
 4304TIP3    H234328   5.149   3.338   5.317  0.7544 -1.7335 -0.7152
 4305TIP3   OH234329   6.144   3.120  11.641 -0.5483  0.3727  0.1592
 4305TIP3    H134330   6.190   3.187  11.592  0.4919 -0.5025 -0.1154
 4305TIP3    H234331   6.210   3.051  11.654 -2.0880 -1.5070 -1.3304
 4306TIP3   OH234332   5.539   4.218  15.629 -0.0066  0.2312 -0.1173
 4306TIP3    H134333   5.579   4.169  15.557 -0.9499 -1.8787  0.7112
 4306TIP3    H234334   5.447   4.192  15.628 -0.7341  2.5172  0.0217
 4307TIP3   OH234335   2.015   4.550  11.297 -0.0736 -0.8625  0.4363
 4307TIP3    H134336   2.061   4.533  11.215 -0.5362  0.7444 -0.1856
 4307TIP3    H234337   2.046   4.636  11.325 -0.2271 -1.2089  1.7489
 4308TIP3   OH234338   0.656   5.766  16.881 -0.0385 -0.2725  0.4019
 4308TIP3    H134339   0.708   5.736  16.956 -0.1601  0.2701  0.7068
 4308TIP3    H234340   0.683   5.856  16.867  1.6945 -1.0198 -1.6997
 4309TIP3   OH234341   5.006   5.733  11.574 -0.5511 -0.0243  0.2579
 4309TIP3    H134342   5.081   5.786  11.547 -0.3997  0.0130  0.7383
 4309TIP3    H234343   4.991   5.758  11.666 -1.4154  0.2791  0.0449
 4310TIP3   OH234344   5.485   3.432   5.487  0.0198 -0.0671 -0.0074
 4310TIP3    H134345   5.464   3.480   5.567  1.5719  1.3817 -0.4164
 4310TIP3    H234346   5.404   3.388   5.464 -0.1895 -1.5880  3.0323
 4311TIP3   OH234347   5.368   6.162   0.463  0.8322  0.7380 -0.6350
 4311TIP3    H134348   5.328   6.185   0.547 -0.0906  1.6417 -1.2994
 4311TIP3    H234349   5.448   6.215   0.460  1.4570 -0.1349  0.1499
 4312TIP3   OH234350   4.097   4.427   0.340  0.5860 -0.0271  0.0922
 4312TIP3    H134351   4.061   4.371   0.271  1.4889 -0.9011  0.2965
 4312TIP3    H234352   4.176   4.465   0.301 -0.5692  1.9822 -0.4072
 4313TIP3   OH234353   4.440   1.902  13.797 -0.0718  0.0964 -0.1548
 4313TIP3    H134354   4.377   1.886  13.727 -1.0085  0.5103  0.5820
 4313TIP3    H234355   4.397   1.965  13.855  1.0026  0.3558  0.3861
 4314TIP3   OH234356   1.445   2.564  13.677  0.5593  0.0314  0.0756
 4314TIP3    H134357   1.465   2.471  13.666  1.4055  0.2843 -0.5991
 4314TIP3    H234358   1.423   2.595  13.589 -1.4574  0.1030  0.5499
 4315TIP3   OH234359   2.980   6.389  17.070  0.3773  0.2723  0.7114
 4315TIP3    H134360   3.023   6.307  17.044  0.6543  0.1043  1.6581
 4315TIP3    H234361   2.986   6.445  16.993  1.5915 -0.0407  0.5548
 4316TIP3   OH234362   3.334   0.395  11.244 -0.5240  0.5151 -0.6137
 4316TIP3    H134363   3.341   0.454  11.169  1.8832 -0.9946 -1.6976
 4316TIP3    H234364   3.387   0.437  11.312  1.4232 -0.4426 -1.4775
 4317TIP3   OH234365   1.020   3.391   0.193 -0.0367 -0.6288  0.0187
 4317TIP3    H134366   0.963   3.384   0.116 -0.1532 -1.9748  0.1985
 4317TIP3    H234367   1.105   3.361   0.162  0.2366  0.0503  0.1027
 4318TIP3   OH234368   1.733   2.907   0.610 -0.8935 -1.0457  0.3686
 4318TIP3    H134369   1.684   2.962   0.671 -2.9989 -3.1494  0.6958
 4318TIP3    H234370   1.697   2.927   0.524  3.1902  3.1669 -0.7911
 4319TIP3   OH234371   0.052   6.658   3.557  0.1163  0.3040  0.1557
 4319TIP3    H134372   0.147   6.664   3.552  0.2593 -1.0454  0.7571
 4319TIP3    H234373   0.032   6.670   3.649  0.0397 -2.6020  0.6198
 4320TIP3   OH234374   4.433   4.669  14.469 -0.0451 -0.1244  0.2527
 4320TIP3    H134375   4.499   4.719  14.422 -0.1295  0.2821  0.5639
 4320TIP3    H234376   4.480   4.595  14.506  0.1776 -0.0047  0.2081
 4321TIP3   OH234377   0.250   5.930  11.962  0.0371 -0.2559  0.4568
 4321TIP3    H134378   0.178   5.971  11.914  0.1472 -1.0431 -0.4087
 4321TIP3    H234379   0.234   5.953  12.053 -0.2773  1.1353  0.0756
 4322TIP3   OH234380   1.939   4.627   5.911 -0.2046 -0.6268  0.1860
 4322TIP3    H134381   1.861   4.669   5.948 -0.4436 -0.8692 -0.0410
 4322TIP3    H234382   1.985   4.593   5.988 -0.5207 -0.8207  0.2934
 4323TIP3   OH234383   4.084   1.790   3.626 -0.1221 -0.2053 -0.7686
 4323TIP3    H134384   3.994   1.756   3.622 -0.1189 -0.1885 -0.9897
 4323TIP3    H234385   4.088   1.837   3.709 -0.4519  0.1732 -0.9658
 4324TIP3   OH234386   3.589   3.963   5.347  0.4614 -0.1752 -0.4431
 4324TIP3    H134387   3.677   3.999   5.342  0.1730  0.5109 -0.5790
 4324TIP3    H234388   3.532   4.029   5.308 -0.3573  0.2140  1.3017
 4325TIP3   OH234389   2.183   5.988  12.785 -0.1302  0.6879  0.4437
 4325TIP3    H134390   2.145   5.963  12.869 -0.1857  0.2418  0.2904
 4325TIP3    H234391   2.133   6.065  12.759 -1.4320 -0.2797 -0.0758
 4326TIP3   OH234392   6.667   2.113   5.390 -0.5296  0.5730  0.1026
 4326TIP3    H134393   6.643   2.037   5.337 -2.2792  0.4750  0.9692
 4326TIP3    H234394   6.737   2.081   5.448 -0.5647 -0.0866 -0.2139
 4327TIP3   OH234395   1.791   4.438  14.415 -0.4217  0.4118 -0.0893
 4327TIP3    H134396   1.716   4.453  14.472 -0.1272 -1.2247  0.8038
 4327TIP3    H234397   1.868   4.459  14.469 -0.1673 -0.3909 -0.1223
 4328TIP3   OH234398   6.399   6.365   3.681 -0.1347 -0.1687 -0.6859
 4328TIP3    H134399   6.464   6.405   3.624 -0.0801  0.2814 -0.3186
 4328TIP3    H234400   6.393   6.274   3.652  0.2751 -0.0771 -1.0584
 4329TIP3   OH234401   6.042   5.960  12.269  0.3155 -0.0397 -0.1743
 4329TIP3    H134402   6.099   5.916  12.206  0.5529  1.7605 -1.2830
 4329TIP3    H234403   6.073   5.930  12.354  0.1855 -2.2973 -0.8605
 4330TIP3   OH234404   2.634   0.055  14.062 -0.1655  0.2333 -0.0379
 4330TIP3    H134405   2.659   0.113  13.989 -1.2015  1.0242  0.2011
 4330TIP3    H234406   2.691   0.080  14.134  0.6233 -0.3058 -0.4666
 4331TIP3   OH234407   4.871   4.815   0.195 -0.0816  0.0708  0.5012
 4331TIP3    H134408   4.802   4.761   0.236 -2.7885  1.6736 -1.6005
 4331TIP3    H234409   4.876   4.893   0.250 -1.5198  0.8639 -0.4288
 4332TIP3   OH234410   5.733   2.693  15.644  0.2214  0.3832  0.2712
 4332TIP3    H134411   5.649   2.647  15.637 -0.8768  2.2108  0.8138
 4332TIP3    H234412   5.709   2.781  15.672  2.0338  2.0053 -2.7844
 4333TIP3   OH234413   4.795   6.055  16.884 -0.4451 -0.1459  0.0661
 4333TIP3    H134414   4.727   6.067  16.951 -1.3475  1.1760 -1.0189
 4333TIP3    H234415   4.872   6.025  16.932 -2.1530 -3.1423  1.1902
 4334TIP3   OH234416   1.965   1.942  14.818 -1.0194 -0.5785  0.2986
 4334TIP3    H134417   1.921   2.026  14.805 -0.4196 -0.6031 -2.5082
 4334TIP3    H234418   1.946   1.893  14.738  1.5603 -1.7599  0.3354
 4335TIP3   OH234419   0.415   0.106   3.760 -0.4856 -0.0425 -0.1728
 4335TIP3    H134420   0.457   0.116   3.845 -0.0658 -0.9332 -0.2532
 4335TIP3    H234421   0.337   0.161   3.764 -1.9184 -2.0442  1.7616
 4336TIP3   OH234422   5.441   0.360   2.220  0.9751  0.0637  0.0173
 4336TIP3    H134423   5.429   0.379   2.312 -1.2468  1.4776 -0.4891
 4336TIP3    H234424   5.489   0.277   2.218  0.9849 -0.0342  2.4086
 4337TIP3   OH234425   3.448   0.797  12.667 -0.6407  0.1537 -0.3197
 4337TIP3    H134426   3.537   0.788  12.633 -0.0504 -0.0082  1.1779
 4337TIP3    H234427   3.393   0.751  12.604  0.5101 -0.8952 -0.6021
 4338TIP3   OH234428   0.547   4.383   2.216  0.1005 -0.0696  0.1066
 4338TIP3    H134429   0.517   4.292   2.217 -2.4540  0.6930 -0.9039
 4338TIP3    H234430   0.547   4.407   2.123  2.3330  0.5536  0.1967
 4339TIP3   OH234431   3.984   4.770  14.292  0.6735  0.0961  0.4087
 4339TIP3    H134432   3.892   4.757  14.316  0.3051 -1.6706 -1.6252
 4339TIP3    H234433   4.032   4.718  14.357  0.4348  2.2031  2.3971
 4340TIP3   OH234434   3.515   4.633  16.197  0.0807  0.0464 -0.0311
 4340TIP3    H134435   3.499   4.540  16.184 -0.2372 -0.1272  1.5215
 4340TIP3    H234436   3.502   4.648  16.290  0.9240  1.4939 -0.1066
 4341TIP3   OH234437   4.970   6.135   0.357  0.6216  0.5248 -1.0085
 4341TIP3    H134438   5.008   6.211   0.401 -0.6650  0.6485 -0.0792
 4341TIP3    H234439   5.024   6.124   0.279  2.3780  0.8702  0.1020
 4342TIP3   OH234440   6.284   5.444  11.203 -0.0705 -0.1116 -0.2263
 4342TIP3    H134441   6.268   5.395  11.284 -0.1619  1.0448  0.4892
 4342TIP3    H234442   6.351   5.508  11.227  1.2201 -0.8990 -1.5639
 4343TIP3   OH234443   2.806   3.044  11.967 -0.6621 -0.1111 -0.7527
 4343TIP3    H134444   2.878   2.981  11.967  0.0496  0.6883 -0.5655
 4343TIP3    H234445   2.824   3.101  12.042 -1.3060  0.3047 -0.9094
 4344TIP3   OH234446   3.811   4.522   2.826  0.0637 -0.1691 -0.1232
 4344TIP3    H134447   3.898   4.484   2.834  0.3314  0.1372 -1.3824
 4344TIP3    H234448   3.825   4.616   2.840 -0.0420 -0.1025 -0.4682
 4345TIP3   OH234449   3.698   1.232   4.426  0.6793  0.1839  0.2396
 4345TIP3    H134450   3.772   1.182   4.460  0.6631  0.7310  1.1073
 4345TIP3    H234451   3.641   1.247   4.501 -0.0174  0.3017 -0.2899
 4346TIP3   OH234452   2.274   4.709   3.186  0.3770  0.5684  0.5712
 4346TIP3    H134453   2.220   4.641   3.145  0.8462 -0.5638  1.7638
 4346TIP3    H234454   2.215   4.784   3.195 -0.7195 -0.3127  0.9660
 4347TIP3   OH234455   3.971   2.442  14.304  0.4640 -0.0976  0.2339
 4347TIP3    H134456   3.930   2.513  14.354  0.2690  0.1594 -0.2809
 4347TIP3    H234457   3.931   2.448  14.217  0.2774 -0.9826  0.2434
 4348TIP3   OH234458   4.512   1.661  13.225  0.0930 -0.5567 -0.2010
 4348TIP3    H134459   4.519   1.625  13.137  2.9677  1.5097 -0.9505
 4348TIP3    H234460   4.485   1.752  13.212  0.9627 -0.0963  0.9952
 4349TIP3   OH234461   6.569   4.382   2.893 -0.3117 -0.0963  0.0691
 4349TIP3    H134462   6.597   4.355   2.980  3.7222  0.5647 -0.8009
 4349TIP3    H234463   6.586   4.476   2.890 -3.1841  0.5006 -0.6061
 4350TIP3   OH234464   4.704   5.383  15.158  0.1297  0.0747 -0.5172
 4350TIP3    H134465   4.634   5.347  15.214 -0.5531  1.8617 -0.1644
 4350TIP3    H234466   4.726   5.311  15.099 -0.8821 -1.0546  0.4171
 4351TIP3   OH234467   4.766   1.423   4.005 -0.1758  0.1237  0.1206
 4351TIP3    H134468   4.690   1.441   3.949  0.0158 -0.3277 -0.2908
 4351TIP3    H234469   4.801   1.510   4.026 -0.1349  0.2885 -0.6173
 4352TIP3   OH234470   0.318   3.804   0.230 -0.4033  0.2073  0.3445
 4352TIP3    H134471   0.331   3.818   0.136  1.9966  1.4858  0.7864
 4352TIP3    H234472   0.257   3.730   0.235 -1.6382  0.9371 -2.1847
 4353TIP3   OH234473   3.675   4.130   5.778 -0.5008 -0.1908 -0.2814
 4353TIP3    H134474   3.666   4.049   5.827  0.5672 -0.8821 -1.1967
 4353TIP3    H234475   3.638   4.110   5.692 -1.3714  0.6855 -0.1327
 4354TIP3   OH234476   5.584   1.254   6.668  0.0759 -0.1557 -0.2019
 4354TIP3    H134477   5.662   1.245   6.613  1.8153 -1.1406  2.2421
 4354TIP3    H234478   5.564   1.164   6.695  0.5200  0.4296  2.2936
 4355TIP3   OH234479   1.956   0.817   5.682 -0.7723 -0.1259 -0.8903
 4355TIP3    H134480   1.985   0.908   5.695 -0.9383 -0.1444 -0.3863
 4355TIP3    H234481   2.013   0.784   5.613 -0.1036  0.0841 -0.4523
 4356TIP3   OH234482   0.916   1.199   3.278  0.1392  0.4084 -0.2998
 4356TIP3    H134483   0.821   1.191   3.264 -0.0653  0.9891  0.6739
 4356TIP3    H234484   0.933   1.143   3.354  0.8141 -0.7468 -1.2671
 4357TIP3   OH234485   0.437   0.854   3.826  0.8412  0.0798  0.0412
 4357TIP3    H134486   0.378   0.929   3.836  1.9091  0.8897  0.5458
 4357TIP3    H234487   0.409   0.811   3.746 -1.5782 -0.6362  1.1713
 4358TIP3   OH234488   1.850   1.451  13.467 -0.7291 -0.2704  0.4491
 4358TIP3    H134489   1.924   1.413  13.420 -0.8936 -1.5716  1.1700
 4358TIP3    H234490   1.775   1.399  13.439 -1.4760  1.2925 -0.5813
 4359TIP3   OH234491   2.824   6.734  13.204 -0.2044  0.6739 -0.5929
 4359TIP3    H134492   2.747   6.788  13.188  0.0578  0.9020 -1.1086
 4359TIP3    H234493   2.869   6.777  13.277  0.5806  1.8101 -1.6860
 4360TIP3   OH234494   6.260   5.305  12.173 -0.5251  0.3808  0.0567
 4360TIP3    H134495   6.294   5.254  12.247 -0.5118  2.1168  1.2956
 4360TIP3    H234496   6.234   5.239  12.109 -0.0919 -1.1648  1.4087
 4361TIP3   OH234497   5.108   0.935   3.333 -0.0742  0.8323 -0.1342
 4361TIP3    H134498   5.057   0.950   3.412 -1.2932  1.6408 -1.0366
 4361TIP3    H234499   5.198   0.924   3.365 -0.5275  1.1435  1.3515
 4362TIP3   OH234500   5.002   1.348   3.767 -0.4583 -0.0003  0.3440
 4362TIP3    H134501   4.966   1.342   3.678 -1.7090  0.6207  0.7840
 4362TIP3    H234502   4.930   1.321   3.824  0.3902 -0.5759  1.1728
 4363TIP3   OH234503   6.061   1.716  10.464 -0.2532 -1.0786 -0.3342
 4363TIP3    H134504   6.041   1.755  10.549  1.7432 -0.1264 -0.2300
 4363TIP3    H234505   5.979   1.719  10.416 -0.8666  0.5403  0.7445
 4364TIP3   OH234506   3.035   1.877   5.200  0.1400 -0.8585 -0.0738
 4364TIP3    H134507   3.084   1.955   5.226 -1.1808  0.0695 -0.2860
 4364TIP3    H234508   3.022   1.888   5.106 -2.4678  0.1622  0.2958
 4365TIP3   OH234509   4.896   0.355  16.335  0.1197 -0.0868  0.2241
 4365TIP3    H134510   4.895   0.262  16.313  1.0561 -0.4299  1.5475
 4365TIP3    H234511   4.834   0.395  16.273 -0.2056 -1.5560 -0.4331
 4366TIP3   OH234512   5.063   4.587  15.164  0.3757 -0.0851 -0.2034
 4366TIP3    H134513   5.149   4.548  15.150 -0.7263 -2.8930  0.1091
 4366TIP3    H234514   5.037   4.621  15.079  1.1024 -0.7735 -0.7115
 4367TIP3   OH234515   5.773   3.897  13.300 -0.0811  0.2041  0.0078
 4367TIP3    H134516   5.750   3.919  13.390  0.3818  0.0734  0.1637
 4367TIP3    H234517   5.721   3.820  13.280  1.4517 -1.1469  0.9576
 4368TIP3   OH234518   4.502   2.982  12.593 -0.0656  0.2974 -0.2816
 4368TIP3    H134519   4.508   2.954  12.502 -1.6140  0.6452 -0.5335
 4368TIP3    H234520   4.478   3.075  12.588  0.4571  0.4867  0.4896
 4369TIP3   OH234521   0.214   4.193   1.287  0.0033 -0.0320 -0.1608
 4369TIP3    H134522   0.121   4.216   1.289 -0.0149 -0.1097 -0.0997
 4369TIP3    H234523   0.225   4.148   1.204  0.4257  1.8020 -1.1637
 4370TIP3   OH234524   1.802   5.677  13.699  0.0424 -0.6841 -0.0758
 4370TIP3    H134525   1.844   5.677  13.613  0.1400  0.1772 -0.0423
 4370TIP3    H234526   1.751   5.596  13.701  2.1289 -2.0740  0.1125
 4371TIP3   OH234527   0.325   5.950  14.452 -0.5727 -0.1749 -0.0265
 4371TIP3    H134528   0.372   5.890  14.394  2.6054 -0.3509  2.4574
 4371TIP3    H234529   0.378   6.029  14.453 -1.5258  0.4752  1.2558
 4372TIP3   OH234530   2.606   3.564  14.438  0.1237 -0.0599 -0.0795
 4372TIP3    H134531   2.548   3.520  14.500  1.6401  0.1842  1.6002
 4372TIP3    H234532   2.690   3.569  14.483  1.0773  0.8986 -1.8469
 4373TIP3   OH234533   2.231   4.781  11.944 -0.2311 -0.5570  0.5811
 4373TIP3    H134534   2.264   4.790  11.855  0.8438  1.2421  1.1089
 4373TIP3    H234535   2.167   4.852  11.953 -1.9718 -2.0690  0.5847
 4374TIP3   OH234536   1.586   3.406   1.208  0.2195  0.3355  0.2744
 4374TIP3    H134537   1.577   3.484   1.152  1.3731  1.5428  1.6708
 4374TIP3    H234538   1.634   3.344   1.154 -0.5406  0.6470 -0.8048
 4375TIP3   OH234539   6.364   3.232   1.464  0.2084  0.0725  0.2549
 4375TIP3    H134540   6.272   3.205   1.463  0.3040 -0.3005  0.9482
 4375TIP3    H234541   6.383   3.256   1.373 -0.2256 -1.0405 -0.1507
 4376TIP3   OH234542   1.801   2.388  13.976  0.5270  1.0944 -0.1591
 4376TIP3    H134543   1.848   2.471  13.988  1.4103  0.7814 -1.3182
 4376TIP3    H234544   1.822   2.360  13.887 -1.8587  0.9126 -0.7441
 4377TIP3   OH234545   5.046   6.091  12.317 -0.2437 -0.3893  0.0876
 4377TIP3    H134546   5.024   5.997  12.318 -0.9972 -0.2584 -1.3748
 4377TIP3    H234547   4.964   6.134  12.294  0.5573  0.4670 -1.2881
 4378TIP3   OH234548   6.733   3.175  12.926  0.2827  0.2343  0.7917
 4378TIP3    H134549   6.701   3.095  12.968  1.4549 -0.4212  0.4721
 4378TIP3    H234550   6.706   3.246  12.985 -2.2126 -0.1947  0.2812
 4379TIP3   OH234551   4.554   6.081  12.941  0.2366  0.4325 -0.5674
 4379TIP3    H134552   4.541   6.140  12.867 -0.0576  1.1087  0.0159
 4379TIP3    H234553   4.623   6.021  12.912  1.1290  1.5689 -0.8681
 4380TIP3   OH234554   5.874   5.430   4.413 -0.9094 -0.1705  0.2859
 4380TIP3    H134555   5.804   5.443   4.477 -0.6312 -0.5784  0.6789
 4380TIP3    H234556   5.940   5.380   4.460 -0.0085  0.8691  0.1420
 4381TIP3   OH234557   1.851   2.186   2.065  0.2976 -0.9530  0.3317
 4381TIP3    H134558   1.787   2.250   2.035  2.4049  0.8584 -0.6064
 4381TIP3    H234559   1.819   2.158   2.151 -1.5828  0.0379  0.0080
 4382TIP3   OH234560   4.031   6.057   0.887 -0.3712  0.6029 -0.3591
 4382TIP3    H134561   4.126   6.065   0.877 -0.2951  0.5526  0.2513
 4382TIP3    H234562   4.009   5.974   0.844 -0.2545  0.9895 -1.1753
 4383TIP3   OH234563   0.245   6.207  12.787  0.9605 -0.0408  0.1415
 4383TIP3    H134564   0.195   6.133  12.822  0.3552 -0.3216 -1.2734
 4383TIP3    H234565   0.336   6.186  12.808  0.6920 -0.6015  0.7936
 4384TIP3   OH234566   0.077   0.651  16.511  0.2863  0.6515  0.3499
 4384TIP3    H134567   0.103   0.660  16.603  2.2551 -1.2224  0.0418
 4384TIP3    H234568   0.128   0.719  16.466  0.6066  0.4585  0.4222
 4385TIP3   OH234569   6.196   2.205   1.259  0.0925 -0.1614  0.3125
 4385TIP3    H134570   6.143   2.272   1.303 -0.0564  1.5603 -2.2457
 4385TIP3    H234571   6.135   2.135   1.239 -0.4388  0.2662  0.4148
 4386TIP3   OH234572   0.205   1.879   3.119 -0.4198 -0.4925 -0.2675
 4386TIP3    H134573   0.137   1.946   3.131 -1.0051 -1.5011  3.5013
 4386TIP3    H234574   0.212   1.837   3.205  3.7724 -1.6448 -0.9459
 4387TIP3   OH234575   2.218   3.397  11.051 -0.6073  0.1412  0.2253
 4387TIP3    H134576   2.249   3.428  10.966  0.0021  0.5075  0.5747
 4387TIP3    H234577   2.123   3.393  11.042 -0.5087 -0.5090 -0.6995
 4388TIP3   OH234578   6.286   5.494   5.592 -0.0085  0.2632  0.6782
 4388TIP3    H134579   6.228   5.423   5.617 -1.8210  1.4817  0.1362
 4388TIP3    H234580   6.229   5.558   5.550  1.7251  1.5778  0.2077
 4389TIP3   OH234581   6.541   5.119   0.650  0.0853  0.4420 -0.0852
 4389TIP3    H134582   6.532   5.055   0.720 -2.5582  1.1946  0.3750
 4389TIP3    H234583   6.607   5.082   0.592 -0.3503 -2.0059  0.8686
 4390TIP3   OH234584   1.184   2.476   4.940 -0.0355  0.2058  0.0060
 4390TIP3    H134585   1.238   2.455   5.016 -1.8015 -0.6522  1.0802
 4390TIP3    H234586   1.151   2.392   4.910  1.9554  0.2932 -2.8461
 4391TIP3   OH234587   4.646   1.077   4.134  0.2153  0.1367  0.3520
 4391TIP3    H134588   4.652   1.005   4.196  1.1402  0.4274  0.6095
 4391TIP3    H234589   4.735   1.112   4.128 -0.2364  1.3214  0.3035
 4392TIP3   OH234590   1.323   3.368   0.147 -0.1427 -0.4421  0.5580
 4392TIP3    H134591   1.310   3.277   0.173  1.0244 -0.1896  2.2060
 4392TIP3    H234592   1.340   3.365   0.053  0.3960 -1.9863  0.6873
 4393TIP3   OH234593   5.540   0.570   3.983 -0.9004 -0.2950 -0.5436
 4393TIP3    H134594   5.513   0.512   3.911  0.1265 -1.3285 -0.1335
 4393TIP3    H234595   5.562   0.510   4.055  1.2690  0.5051 -0.4664
 4394TIP3   OH234596   0.588   4.469  14.758 -0.2576 -0.0108 -0.5426
 4394TIP3    H134597   0.633   4.406  14.702  0.4080  1.8559 -2.2194
 4394TIP3    H234598   0.568   4.420  14.838 -0.3952 -2.5051 -2.0092
 4395TIP3   OH234599   0.219   3.264  16.106 -0.2470 -0.2316  0.5891
 4395TIP3    H134600   0.218   3.359  16.101 -0.1745 -0.2090  0.9626
 4395TIP3    H234601   0.252   3.235  16.021  0.1401  0.0865  0.6309
 4396TIP3   OH234602   2.128   2.791  16.482  0.0585  0.4483 -0.5817
 4396TIP3    H134603   2.217   2.808  16.514  0.1957 -1.3782  0.1231
 4396TIP3    H234604   2.073   2.854  16.529  0.7928  0.5916  0.1074
 4397TIP3   OH234605   0.657   3.955  12.474  0.1805 -0.7219 -0.4065
 4397TIP3    H134606   0.659   3.860  12.483  0.4174 -0.9722 -2.5640
 4397TIP3    H234607   0.736   3.984  12.520  0.3799 -1.6112 -0.1587
 4398TIP3   OH234608   4.953   3.409  13.978 -0.1031 -0.3842 -0.0160
 4398TIP3    H134609   4.861   3.412  14.002 -0.4174  0.1342 -1.2251
 4398TIP3    H234610   4.988   3.495  14.002 -0.8681  0.8797 -2.9511
 4399TIP3   OH234611   5.500   1.628   4.214  0.6227  0.1349 -0.7711
 4399TIP3    H134612   5.433   1.584   4.267  0.6405  0.5115 -0.4323
 4399TIP3    H234613   5.543   1.557   4.167  0.7121 -0.2285 -0.1514
 4400TIP3   OH234614   4.996   0.305  14.866 -0.4364 -0.1023 -0.3477
 4400TIP3    H134615   5.004   0.219  14.825  0.2672 -0.1935 -0.0418
 4400TIP3    H234616   4.907   0.307  14.901  0.1444 -1.5140  1.4063
 4401TIP3   OH234617   3.121   3.014  11.439 -0.0417 -0.0146  0.1389
 4401TIP3    H134618   3.131   3.038  11.531 -0.5022  1.7601 -0.2259
 4401TIP3    H234619   3.191   2.952  11.422  1.3913  1.2528  1.1587
 4402TIP3   OH234620   4.409   3.955   4.565  0.3443  0.3131  0.2171
 4402TIP3    H134621   4.401   3.955   4.469 -1.6760  1.1916  0.3363
 4402TIP3    H234622   4.389   3.865   4.590  1.0598  0.0319 -0.1714
 4403TIP3   OH234623   0.108   1.842   1.548 -0.0985 -0.0468 -0.3202
 4403TIP3    H134624   0.060   1.924   1.539 -1.0882 -0.6442 -0.6690
 4403TIP3    H234625   0.041   1.774   1.536  0.5444 -0.9042  0.7850
 4404TIP3   OH234626   5.882   4.529  12.995  0.4017 -0.3232 -0.0377
 4404TIP3    H134627   5.899   4.489  12.909 -0.9533 -1.6050  0.2394
 4404TIP3    H234628   5.960   4.510  13.046  0.6838 -0.7054 -0.6027
 4405TIP3   OH234629   6.381   6.229   2.235  0.6728 -0.0366 -0.0687
 4405TIP3    H134630   6.374   6.214   2.329  0.7356 -0.7687 -0.1730
 4405TIP3    H234631   6.403   6.322   2.227  2.0163 -0.2612  0.7013
 4406TIP3   OH234632   5.550   5.413   4.360  0.9855  0.5116  0.9391
 4406TIP3    H134633   5.589   5.421   4.273 -0.0228  0.8279  0.5056
 4406TIP3    H234634   5.458   5.394   4.344  0.5946  1.4697  1.9156
 4407TIP3   OH234635   4.319   0.443   0.321  0.2604  0.1963 -0.1089
 4407TIP3    H134636   4.406   0.463   0.357 -0.2163  0.4555  0.9392
 4407TIP3    H234637   4.278   0.387   0.387 -0.4324  0.2090 -0.5184
 4408TIP3   OH234638   0.898   5.071  15.294  0.2482  0.0147  0.1067
 4408TIP3    H134639   0.847   4.990  15.290  0.2972 -0.0296  0.3862
 4408TIP3    H234640   0.871   5.113  15.375  1.9564 -0.8853  1.2093
 4409TIP3   OH234641   0.312   5.628  16.962 -0.2776 -0.4324 -0.0630
 4409TIP3    H134642   0.225   5.588  16.963  0.1953 -1.5631 -1.0383
 4409TIP3    H234643   0.336   5.636  17.054 -1.0417 -0.9672  0.1969
 4410TIP3   OH234644   6.088   5.785   1.492  0.5556  0.1785 -0.2508
 4410TIP3    H134645   6.115   5.861   1.441 -1.1923  0.6805 -0.5057
 4410TIP3    H234646   6.081   5.818   1.582 -2.4667  1.0604 -0.6834
 4411TIP3   OH234647   6.026   1.353   2.515  0.7140  0.0956  0.0629
 4411TIP3    H134648   6.018   1.273   2.568  4.2771 -1.6222 -1.6399
 4411TIP3    H234649   5.961   1.343   2.446 -1.1998  0.4058  1.7389
 4412TIP3   OH234650   6.776   0.424   1.774 -0.2867 -0.6604  0.4879
 4412TIP3    H134651   6.860   0.440   1.731 -0.1823 -1.8240  0.2291
 4412TIP3    H234652   6.780   0.333   1.802 -0.6531 -0.1442  2.3329
 4413TIP3   OH234653   1.812   5.464   2.256  0.2522  0.1182 -0.4886
 4413TIP3    H134654   1.747   5.496   2.194  0.1022 -0.4724 -0.6454
 4413TIP3    H234655   1.798   5.517   2.335 -0.9024 -0.4626 -0.2737
 4414TIP3   OH234656   1.544   0.467   6.050 -0.0877 -0.4982  0.4751
 4414TIP3    H134657   1.533   0.522   6.128 -0.9945 -0.1494  0.1140
 4414TIP3    H234658   1.608   0.401   6.077 -0.0013 -0.0811  1.3529
 4415TIP3   OH234659   6.144   3.812  17.044 -0.1897  0.0453  0.3110
 4415TIP3    H134660   6.105   3.885  17.091 -1.4545  0.0695 -0.7123
 4415TIP3    H234661   6.225   3.793  17.091 -0.1975  1.6327  1.0162
 4416TIP3   OH234662   5.439   4.388   3.514 -0.1753 -0.4586 -0.0924
 4416TIP3    H134663   5.385   4.468   3.516  0.4347  0.0478 -1.9077
 4416TIP3    H234664   5.512   4.408   3.572  0.0013  0.3529 -0.5707
 4417TIP3   OH234665   4.500   3.144   2.442  0.3773  0.2787 -0.0779
 4417TIP3    H134666   4.465   3.069   2.395 -0.5948 -0.7064  2.0717
 4417TIP3    H234667   4.589   3.118   2.467  0.5045  0.3813 -0.4081
 4418TIP3   OH234668   6.573   0.531  14.901 -0.2000  0.4848  0.3156
 4418TIP3    H134669   6.563   0.617  14.859 -1.6173 -0.6627 -1.8785
 4418TIP3    H234670   6.664   0.508  14.886 -0.6129  0.1811 -2.1770
 4419TIP3   OH234671   0.696   1.487   3.136  0.1106 -0.0687 -0.3415
 4419TIP3    H134672   0.644   1.564   3.113  2.7596  1.5297 -1.4372
 4419TIP3    H234673   0.665   1.419   3.077 -1.0241  0.6687 -0.6317
 4420TIP3   OH234674   1.443   4.514  14.298 -0.0906  0.3637 -0.4576
 4420TIP3    H134675   1.453   4.428  14.338 -2.5706  0.4937  0.6107
 4420TIP3    H234676   1.382   4.500  14.225 -0.8981  1.2529  0.0220
 4421TIP3   OH234677   6.106   5.188   3.519 -0.3224  0.2274 -1.1662
 4421TIP3    H134678   6.082   5.280   3.524 -0.1146  0.2661 -0.8497
 4421TIP3    H234679   6.175   5.177   3.585 -0.1094 -0.0781 -1.4366
 4422TIP3   OH234680   3.140   4.241   0.486 -0.0368 -0.4766  0.0984
 4422TIP3    H134681   3.076   4.255   0.556 -0.9723  0.3924 -0.8975
 4422TIP3    H234682   3.157   4.328   0.452 -2.1091 -1.0901 -2.9021
 4423TIP3   OH234683   5.399   0.344  17.235  0.0784 -0.2328  0.2108
 4423TIP3    H134684   5.494   0.347  17.248  0.0897  1.1120 -0.1102
 4423TIP3    H234685   5.373   0.435  17.223 -0.7635 -0.7997 -3.2716
 4424TIP3   OH234686   6.637   5.188   1.463  0.1144 -0.0779 -0.3807
 4424TIP3    H134687   6.661   5.095   1.468  0.4448  0.0463  0.6621
 4424TIP3    H234688   6.691   5.224   1.394  2.3853  0.0038  1.3309
 4425TIP3   OH234689   1.499   3.463   4.691  0.6263  0.2450 -0.2741
 4425TIP3    H134690   1.548   3.383   4.679  3.0943  1.5042  0.7577
 4425TIP3    H234691   1.432   3.461   4.623  0.8265 -2.4868 -0.4667
 4426TIP3   OH234692   5.734   1.224   5.532 -0.0902  0.2667 -0.3047
 4426TIP3    H134693   5.783   1.241   5.452 -2.4534 -0.2754 -1.9519
 4426TIP3    H234694   5.662   1.167   5.505 -0.9687  0.0584  2.2143
 4427TIP3   OH234695   5.359   1.712   5.842 -0.4911 -0.3143 -0.5543
 4427TIP3    H134696   5.270   1.680   5.829 -0.8398  0.2852  0.1980
 4427TIP3    H234697   5.360   1.741   5.934  0.3408  0.0977 -0.6849
 4428TIP3   OH234698   0.719   5.588   3.104  0.2667 -0.5526 -0.1836
 4428TIP3    H134699   0.776   5.517   3.076  1.1380 -0.3663  1.0565
 4428TIP3    H234700   0.746   5.608   3.193 -0.5228  0.7755 -0.2045
 4429TIP3   OH234701   4.773   4.449  13.764 -0.4665  0.1328  0.1641
 4429TIP3    H134702   4.715   4.445  13.688  1.0210 -1.1122 -0.9677
 4429TIP3    H234703   4.850   4.398  13.738  1.4141  2.1989  1.3625
 4430TIP3   OH234704   1.223   1.039   1.238  0.3107 -0.2754 -0.3037
 4430TIP3    H134705   1.221   1.073   1.328 -1.0107  0.0093 -0.4161
 4430TIP3    H234706   1.189   0.950   1.246  0.7246 -0.4430 -0.4429
 4431TIP3   OH234707   5.194   2.526   3.761  0.0459 -0.0572  0.6233
 4431TIP3    H134708   5.174   2.620   3.768  0.9080  0.3503 -1.5413
 4431TIP3    H234709   5.113   2.487   3.728  0.6041  0.5092 -1.6066
 4432TIP3   OH234710   4.501   3.302  15.160 -0.5529 -0.0479 -0.2672
 4432TIP3    H134711   4.474   3.368  15.097  1.1782 -0.4435 -1.4651
 4432TIP3    H234712   4.528   3.352  15.237 -0.2155  0.5767 -0.7850
 4433TIP3   OH234713   6.500   2.854  16.074 -0.1895  0.4251 -0.1848
 4433TIP3    H134714   6.423   2.874  16.020  0.8726  0.3825 -1.7781
 4433TIP3    H234715   6.490   2.910  16.151 -1.6315  0.6865 -0.5283
 4434TIP3   OH234716   2.268   3.546  11.272 -0.2099  0.1217  0.8307
 4434TIP3    H134717   2.270   3.467  11.218 -1.2772 -0.1411  1.1648
 4434TIP3    H234718   2.185   3.542  11.319  0.8675  0.0889  2.8681
 4435TIP3   OH234719   3.048   4.820   5.954  0.2476  0.6550  0.4009
 4435TIP3    H134720   2.971   4.853   5.906  0.6054  1.2591  0.2345
 4435TIP3    H234721   3.082   4.897   5.999  0.5464  0.3079  0.7646
 4436TIP3   OH234722   1.745   4.588  14.058  0.4648 -0.0215  0.5206
 4436TIP3    H134723   1.812   4.578  13.991  2.4693 -0.0439  2.4346
 4436TIP3    H234724   1.791   4.626  14.133 -1.7697  0.4025  1.7714
 4437TIP3   OH234725   0.277   3.808  17.238  0.0289 -0.0685  0.1805
 4437TIP3    H134726   0.199   3.799  17.184 -0.8126  0.5680  1.2719
 4437TIP3    H234727   0.311   3.719  17.248 -1.9941 -0.7203  1.7965
 4438TIP3   OH234728   1.318   6.347  16.213  0.3453  0.3834 -0.4431
 4438TIP3    H134729   1.246   6.346  16.276  0.7851  0.2549  0.0638
 4438TIP3    H234730   1.307   6.429  16.165  1.1257  1.4885  1.1376
 4439TIP3   OH234731   1.607   1.903   1.027 -0.2183  0.0485 -0.5234
 4439TIP3    H134732   1.678   1.885   1.090 -1.3647  1.5412  1.3241
 4439TIP3    H234733   1.543   1.834   1.042  0.2975 -0.6353 -1.3768
 4440TIP3   OH234734   4.871   4.126  17.222  0.0319 -0.3076 -0.2852
 4440TIP3    H134735   4.794   4.167  17.183  0.1543 -0.2177 -0.4331
 4440TIP3    H234736   4.874   4.161  17.311  0.1347  0.0040 -0.4106
 4441TIP3   OH234737   3.906   4.160  14.212  0.3663 -0.3743  0.2621
 4441TIP3    H134738   3.929   4.189  14.300 -0.1427  0.4245  0.1410
 4441TIP3    H234739   3.894   4.240  14.162  0.7005 -0.8229 -0.5584
 4442TIP3   OH234740   6.107   0.820   1.096  0.3482  0.6170  0.9630
 4442TIP3    H134741   6.074   0.908   1.118 -1.5281  0.8225 -2.0532
 4442TIP3    H234742   6.039   0.761   1.129 -0.3259  0.6351 -0.3221
 4443TIP3   OH234743   6.471   0.120  11.959 -0.1059  0.2229 -0.0807
 4443TIP3    H134744   6.482   0.047  11.898  1.0883 -0.4551  0.8934
 4443TIP3    H234745   6.388   0.161  11.933 -0.6806 -1.3191 -0.8045
 4444TIP3   OH234746   2.339   2.530  12.814 -0.3900  0.4104 -0.0940
 4444TIP3    H134747   2.363   2.548  12.723 -1.3238  2.0992 -0.0525
 4444TIP3    H234748   2.423   2.520  12.859  0.1290  1.2806 -0.8344
 4445TIP3   OH234749   0.633   0.067   0.775 -0.4613  0.2295 -0.2066
 4445TIP3    H134750   0.603   0.142   0.723  0.3611 -1.2300 -2.9692
 4445TIP3    H234751   0.570  -0.002   0.756  0.5760 -0.7096 -0.2938
 4446TIP3   OH234752   2.182   6.057  15.756  0.9911 -0.3308 -0.2614
 4446TIP3    H134753   2.140   5.974  15.731  1.5159 -0.1884 -1.7028
 4446TIP3    H234754   2.123   6.094  15.821 -1.1440 -0.1927 -2.1421
 4447TIP3   OH234755   5.539   4.353  16.514 -0.8325  0.5100 -0.4897
 4447TIP3    H134756   5.489   4.434  16.511 -1.0269  0.3983 -0.3162
 4447TIP3    H234757   5.628   4.378  16.492 -0.2122  1.2966  2.5754
 4448TIP3   OH234758   0.590   5.934   0.969 -0.0141  0.6305  0.7110
 4448TIP3    H134759   0.499   5.934   0.939 -0.6768 -0.2397  2.5259
 4448TIP3    H234760   0.615   5.841   0.969  0.0072  0.5947  2.5039
 4449TIP3   OH234761   5.850   2.834  12.088 -0.2403 -0.0130 -0.2323
 4449TIP3    H134762   5.932   2.845  12.134 -0.4043 -1.2221  0.3862
 4449TIP3    H234763   5.792   2.901  12.123  0.4736  0.8501 -0.6836
 4450TIP3   OH234764   3.127   2.321   4.333  0.0524  0.4706  0.3363
 4450TIP3    H134765   3.099   2.410   4.352 -1.7107 -0.1894  0.9800
 4450TIP3    H234766   3.189   2.331   4.260  2.2985  2.4727  2.3085
 4451TIP3   OH234767   0.669   2.774   1.864  0.1337  0.7678  0.0883
 4451TIP3    H134768   0.598   2.836   1.848 -0.5507 -0.2047 -0.7690
 4451TIP3    H234769   0.625   2.692   1.888  0.7602 -0.6670 -3.1342
 4452TIP3   OH234770   5.991   5.210  12.852  0.2345 -0.1668  0.4437
 4452TIP3    H134771   6.005   5.116  12.845 -1.6407 -0.3928 -0.7626
 4452TIP3    H234772   5.942   5.234  12.774 -0.0962  1.6661  1.1473
 4453TIP3   OH234773   2.691   6.162  13.205  0.3538 -0.0204  0.3444
 4453TIP3    H134774   2.705   6.214  13.126  1.1779  0.2336  0.6433
 4453TIP3    H234775   2.695   6.071  13.175 -2.6600  0.0025 -0.4508
 4454TIP3   OH234776   0.151   6.066   5.078 -0.0756  0.4584 -0.6045
 4454TIP3    H134777   0.191   6.068   5.165 -2.2639  0.9055  0.4611
 4454TIP3    H234778   0.145   6.158   5.053 -2.2253  0.5790  0.1813
 4455TIP3   OH234779   5.739   4.256   5.261  0.3262  0.0278 -0.1994
 4455TIP3    H134780   5.689   4.222   5.335 -0.2253  0.3627 -0.4038
 4455TIP3    H234781   5.673   4.271   5.193  0.4564  1.8675  0.0148
 4456TIP3   OH234782   1.971   5.331  14.026 -0.3384 -0.0228 -0.8842
 4456TIP3    H134783   1.959   5.425  14.008 -1.3224 -0.2843 -1.6904
 4456TIP3    H234784   1.889   5.304  14.068  0.2415 -0.3739  0.0597
 4457TIP3   OH234785   0.088   1.732  12.283  0.0779 -0.0140  0.0042
 4457TIP3    H134786   0.002   1.720  12.321 -0.2526  0.1473 -0.6738
 4457TIP3    H234787   0.147   1.743  12.358 -0.8005  2.0267  0.4366
 4458TIP3   OH234788   1.562   6.093   3.450 -0.0785 -0.4629 -0.5496
 4458TIP3    H134789   1.491   6.108   3.513  0.6668 -1.7298  0.6268
 4458TIP3    H234790   1.640   6.079   3.504  0.6909 -1.0635 -1.7758
 4459TIP3   OH234791   5.989   6.765   0.867  0.1143 -0.1332 -0.1268
 4459TIP3    H134792   5.901   6.801   0.870 -0.7668 -2.0100 -1.5931
 4459TIP3    H234793   5.978   6.673   0.892  1.9533 -0.0065  1.4115
 4460TIP3   OH234794   0.118   1.306  15.055  0.9985  0.6719 -0.4087
 4460TIP3    H134795   0.152   1.258  15.130  2.3704  0.2630 -1.2527
 4460TIP3    H234796   0.047   1.252  15.022 -0.1275  1.2230  1.0028
 4461TIP3   OH234797   3.204   5.601   3.479  0.3986  0.1305 -0.0668
 4461TIP3    H134798   3.165   5.669   3.534  2.6395  2.2266 -0.8793
 4461TIP3    H234799   3.144   5.591   3.406 -1.9159 -1.6870  1.9111
 4462TIP3   OH234800   6.457   1.158   5.738  0.2407 -0.6732  0.3889
 4462TIP3    H134801   6.471   1.093   5.806 -2.6382  1.0561  2.8898
 4462TIP3    H234802   6.371   1.138   5.701 -0.2857  1.0778  0.5494
 4463TIP3   OH234803   2.564   1.799   1.106 -0.1053 -0.7828 -0.2297
 4463TIP3    H134804   2.512   1.871   1.070  0.2407 -0.9450 -1.0709
 4463TIP3    H234805   2.555   1.808   1.201 -2.3037 -1.2466 -0.3315
 4464TIP3   OH234806   3.296   0.489   2.551  0.3204  0.1559 -0.1954
 4464TIP3    H134807   3.322   0.490   2.643 -1.7294 -0.6828  0.4447
 4464TIP3    H234808   3.303   0.581   2.524 -2.0228  1.0309  1.7650
 4465TIP3   OH234809   4.788   5.165   3.429  0.1708 -0.1850  0.5373
 4465TIP3    H134810   4.731   5.095   3.397 -0.1449  0.2897  0.0380
 4465TIP3    H234811   4.846   5.184   3.356  0.5523 -0.2310  0.8270
 4466TIP3   OH234812   0.178   3.302   0.394 -1.0446  0.3709 -0.2606
 4466TIP3    H134813   0.200   3.347   0.476 -2.3780  0.4398  0.0912
 4466TIP3    H234814   0.224   3.218   0.399 -0.2935  0.7936  0.0811
 4467TIP3   OH234815   1.839   4.552  11.590  0.3723  0.3682 -0.8061
 4467TIP3    H134816   1.830   4.458  11.603 -0.2431  0.4765 -0.4191
 4467TIP3    H234817   1.907   4.579  11.652 -0.8485  0.4940  0.5188
 4468TIP3   OH234818   5.425   4.988   4.764 -0.9091  0.4599 -0.3327
 4468TIP3    H134819   5.421   4.968   4.670 -2.1624  1.3864 -0.5006
 4468TIP3    H234820   5.511   5.029   4.776  0.5065 -2.2005 -0.5011
 4469TIP3   OH234821   2.394   6.532  16.668 -0.5522 -0.6961  0.4273
 4469TIP3    H134822   2.429   6.502  16.751 -1.3743 -1.1778  0.6137
 4469TIP3    H234823   2.471   6.548  16.613 -0.0181 -0.6942  1.1610
 4470TIP3   OH234824   1.637   1.174  14.569  0.3547 -1.1094 -0.1370
 4470TIP3    H134825   1.613   1.258  14.531 -0.1579 -1.7637 -1.3088
 4470TIP3    H234826   1.579   1.111  14.527  0.3962 -1.9975  1.0714
 4471TIP3   OH234827   6.590   5.031   5.310 -0.0064  0.9033 -0.1214
 4471TIP3    H134828   6.533   5.104   5.283  0.4142  1.1915 -0.2515
 4471TIP3    H234829   6.626   5.059   5.394 -1.0857  0.1350  0.6207
 4472TIP3   OH234830   2.699   0.704   5.221 -0.9782  0.9193 -0.0851
 4472TIP3    H134831   2.746   0.787   5.231  0.2962  0.2622 -0.4198
 4472TIP3    H234832   2.621   0.726   5.170  0.3865  1.5808 -1.9809
 4473TIP3   OH234833   5.577   5.666  12.266 -0.5527 -0.0680 -0.3646
 4473TIP3    H134834   5.565   5.690  12.358  0.0293 -0.6285 -0.1315
 4473TIP3    H234835   5.641   5.729  12.233 -0.6610  0.0504 -0.3480
 4474TIP3   OH234836   5.418   4.192   1.472  0.0698 -0.2617  0.1568
 4474TIP3    H134837   5.448   4.208   1.561  1.4862  1.5416 -0.5660
 4474TIP3    H234838   5.477   4.124   1.439  0.8239  0.4441  0.0125
 4475TIP3   OH234839   3.800   2.697  17.020  0.1155 -0.1404  0.2953
 4475TIP3    H134840   3.778   2.678  17.111 -1.8544  2.5371  0.5154
 4475TIP3    H234841   3.825   2.790  17.020  4.0908 -1.0382 -1.3561
 4476TIP3   OH234842   4.485   3.497  15.372  0.6309  0.3031 -0.6940
 4476TIP3    H134843   4.396   3.463  15.385  0.8968  0.1312  0.8691
 4476TIP3    H234844   4.473   3.574  15.316 -0.7212  1.1612  0.6920
 4477TIP3   OH234845   5.177   1.620   4.089  0.0429 -0.3982 -0.5855
 4477TIP3    H134846   5.215   1.692   4.038  0.1810  1.8860  2.4691
 4477TIP3    H234847   5.177   1.651   4.179 -3.1934 -2.8581  0.4868
 4478TIP3   OH234848   0.112   3.504  10.497 -0.6556 -0.2081 -0.3016
 4478TIP3    H134849   0.047   3.445  10.535  0.5346 -2.2044 -1.1694
 4478TIP3    H234850   0.194   3.454  10.501  0.2990  1.1745 -1.6050
 4479TIP3   OH234851   3.734   6.770   6.489 -0.6026 -0.1316 -0.2718
 4479TIP3    H134852   3.763   6.753   6.400 -0.1052 -0.5029 -0.0415
 4479TIP3    H234853   3.722   6.865   6.493 -0.2149 -0.0688 -0.6071
 4480TIP3   OH234854   0.654   2.627   4.828  0.3726  0.6450 -0.3852
 4480TIP3    H134855   0.578   2.671   4.867 -0.3420 -0.2129 -0.7610
 4480TIP3    H234856   0.651   2.652   4.736 -0.3708 -0.6019 -0.7203
 4481TIP3   OH234857   0.630   5.693  11.900 -0.7574 -0.0732  0.1671
 4481TIP3    H134858   0.594   5.689  11.988 -2.5222 -0.9596 -0.5479
 4481TIP3    H234859   0.556   5.672  11.843  0.5776 -0.5164 -1.4709
 4482TIP3   OH234860   1.900   5.140   5.117 -0.1200 -0.0310 -0.0187
 4482TIP3    H134861   1.848   5.060   5.113 -1.4299  0.7359  0.7279
 4482TIP3    H234862   1.849   5.199   5.173  0.2712  1.6919 -1.3628
 4483TIP3   OH234863   4.747   3.616  14.570 -0.4157  0.1362  0.2449
 4483TIP3    H134864   4.803   3.605  14.646 -0.4370 -2.6872 -0.0563
 4483TIP3    H234865   4.790   3.685  14.519  0.5138  0.8845  1.9522
 4484TIP3   OH234866   4.524   6.051  16.414  0.2273  0.2632  0.3304
 4484TIP3    H134867   4.595   6.039  16.477 -0.5041  0.5766  1.2478
 4484TIP3    H234868   4.566   6.047  16.328  1.4924  1.4032  0.8629
 4485TIP3   OH234869   6.593   0.997   3.181 -0.4641  0.4492 -1.4028
 4485TIP3    H134870   6.624   1.072   3.231 -0.2859  0.1154 -1.0007
 4485TIP3    H234871   6.629   1.009   3.094 -3.8190  3.0210 -2.6290
 4486TIP3   OH234872   5.347   1.472  16.418  0.4686  0.1665 -0.0324
 4486TIP3    H134873   5.365   1.388  16.459  1.4331  0.2102 -0.3266
 4486TIP3    H234874   5.275   1.455  16.357 -0.8960  0.0767  1.5571
 4487TIP3   OH234875   0.098   3.779  15.431  0.1434 -0.3560  0.5309
 4487TIP3    H134876   0.162   3.716  15.397  3.4344  2.6062  0.7479
 4487TIP3    H234877   0.034   3.788  15.360  2.5335 -0.0940 -1.7532
 4488TIP3   OH234878   6.485   3.882   3.229 -0.0077  0.2122  0.4444
 4488TIP3    H134879   6.472   3.813   3.165 -0.5930  0.5891  0.1491
 4488TIP3    H234880   6.479   3.838   3.314 -0.5323 -0.0685  0.2632
 4489TIP3   OH234881   2.277   3.621  13.990  0.4193  0.6831 -0.0608
 4489TIP3    H134882   2.264   3.714  14.008 -0.5020  0.1008  2.7203
 4489TIP3    H234883   2.368   3.605  14.015 -0.3470  0.2513  2.7671
 4490TIP3   OH234884   2.071   0.704   0.345 -0.3022  0.3958 -0.0315
 4490TIP3    H134885   2.133   0.751   0.290  0.9845  0.8204  1.6983
 4490TIP3    H234886   1.999   0.681   0.286  1.2914  0.2308 -2.0121
 4491TIP3   OH234887   3.277   5.438  11.343 -0.1838 -0.6502 -0.0186
 4491TIP3    H134888   3.338   5.510  11.326 -1.4824  0.4612 -0.1230
 4491TIP3    H234889   3.289   5.379  11.269  1.4749 -0.9892  0.4699
 4492TIP3   OH234890   2.939   3.400   5.691 -0.1590  0.1381 -0.2602
 4492TIP3    H134891   2.889   3.356   5.623  0.5881  0.3078 -0.9333
 4492TIP3    H234892   2.976   3.329   5.744  0.6884 -0.0555 -1.0851
 4493TIP3   OH234893   5.620   0.462   3.484 -0.2512  0.3844 -0.4115
 4493TIP3    H134894   5.714   0.464   3.466  0.0569  3.5914  0.8787
 4493TIP3    H234895   5.595   0.371   3.470  3.3184 -0.9439  0.6612
 4494TIP3   OH234896   5.467   5.085   3.181  0.5913 -0.0781  0.0279
 4494TIP3    H134897   5.481   5.012   3.241 -1.8580  0.8737  1.9600
 4494TIP3    H234898   5.555   5.118   3.161  1.5779 -1.7182  1.4674
 4495TIP3   OH234899   2.938   4.454   6.566  0.3686  0.1627 -0.1892
 4495TIP3    H134900   2.981   4.369   6.553  0.1880 -0.2647  1.6405
 4495TIP3    H234901   2.850   4.442   6.531 -0.7533 -1.5606  2.8527
 4496TIP3   OH234902   6.613   4.970  14.503 -0.1197 -0.4035 -0.1729
 4496TIP3    H134903   6.673   4.896  14.502  1.2972  0.6879 -2.5260
 4496TIP3    H234904   6.597   4.990  14.411 -1.9000  1.1278  0.3926
 4497TIP3   OH234905   3.087   3.871  14.985  0.2676 -0.3446  0.2407
 4497TIP3    H134906   3.031   3.796  15.005  0.0612 -0.6246 -1.2337
 4497TIP3    H234907   3.138   3.842  14.909 -0.3475  1.2387 -0.8311
 4498TIP3   OH234908   5.356   0.360   1.819 -0.0981  0.3272 -0.1524
 4498TIP3    H134909   5.450   0.344   1.834  0.2234  2.3762  0.2290
 4498TIP3    H234910   5.314   0.335   1.901  0.3294  0.9930  0.2753
 4499TIP3   OH234911   6.625   3.511   5.434 -0.0535  0.0382  0.1644
 4499TIP3    H134912   6.594   3.464   5.511  0.8712  0.9251  1.1127
 4499TIP3    H234913   6.697   3.565   5.466  0.5353  0.2321 -1.3795
 4500TIP3   OH234914   5.856   2.512  13.020  0.6170  0.1947 -0.4885
 4500TIP3    H134915   5.819   2.595  12.988  0.2951  0.7567  1.2304
 4500TIP3    H234916   5.949   2.531  13.032  0.6916  0.0592 -0.8484
 4501TIP3   OH234917   3.718   3.316   0.235  0.1569  0.4766 -0.3557
 4501TIP3    H134918   3.683   3.256   0.301  1.2031 -0.5729 -0.7327
 4501TIP3    H234919   3.773   3.377   0.284 -0.8665  1.1162  0.0214
 4502TIP3   OH234920   6.378   0.063  12.992 -0.2428  0.0151  0.2241
 4502TIP3    H134921   6.437   0.070  12.917 -1.6672 -1.1643 -1.0744
 4502TIP3    H234922   6.434   0.078  13.068  1.5311 -0.1072 -0.9977
 4503TIP3   OH234923   4.346   4.159  13.818 -0.3807 -0.3141 -0.6942
 4503TIP3    H134924   4.262   4.204  13.811 -0.6421 -0.5552  0.7510
 4503TIP3    H234925   4.370   4.139  13.727 -0.6817  1.9270 -1.3174
 4504TIP3   OH234926   1.368   3.526   5.932  0.6980 -0.3543  0.4066
 4504TIP3    H134927   1.451   3.500   5.971  0.5172 -0.9295  0.4280
 4504TIP3    H234928   1.385   3.529   5.838  1.1873  1.2354  0.5303
 4505TIP3   OH234929   1.434   6.491   2.497 -0.3697  0.2503 -0.1037
 4505TIP3    H134930   1.390   6.414   2.532 -0.2284  0.5022  0.6376
 4505TIP3    H234931   1.406   6.494   2.405 -1.5569  0.1540  0.2361
 4506TIP3   OH234932   1.898   1.771   5.225  0.4481 -0.3572  0.4780
 4506TIP3    H134933   1.853   1.848   5.190  1.7069  0.9741  1.6796
 4506TIP3    H234934   1.828   1.720   5.267 -0.3278  0.3540  0.0786
 4507TIP3   OH234935   6.397   0.433  12.172 -0.4765 -0.0452 -0.0608
 4507TIP3    H134936   6.482   0.446  12.215 -0.4959 -1.1318  0.3618
 4507TIP3    H234937   6.339   0.496  12.214 -0.4207 -0.8829  1.3570
 4508TIP3   OH234938   3.498   6.110   6.314  0.1269 -0.3700 -0.2101
 4508TIP3    H134939   3.440   6.086   6.241 -0.0400 -0.0506 -0.1834
 4508TIP3    H234940   3.497   6.206   6.315  0.3371 -0.3693  0.0486
 4509TIP3   OH234941   3.484   3.215  14.760 -0.9114  0.7518 -0.1398
 4509TIP3    H134942   3.439   3.270  14.824  0.8559  1.8390  0.2389
 4509TIP3    H234943   3.538   3.276  14.710  0.6253 -0.5635 -0.1456
 4510TIP3   OH234944   5.261   5.905  11.889  0.7404  0.3239  0.3313
 4510TIP3    H134945   5.298   5.925  11.975 -0.1572  1.7999  0.4219
 4510TIP3    H234946   5.280   5.983  11.836 -0.0893  0.0975 -0.3250
 4511TIP3   OH234947   0.980   1.385  13.905 -0.3148 -0.0542  0.0574
 4511TIP3    H134948   0.982   1.347  13.993  0.5874  3.2207  1.5876
 4511TIP3    H234949   0.934   1.468  13.915  1.8336  1.5326 -2.0373
 4512TIP3   OH234950   5.303   4.698  17.167 -0.1307 -0.4294  0.0660
 4512TIP3    H134951   5.222   4.665  17.207 -0.3309 -0.6075 -0.4759
 4512TIP3    H234952   5.292   4.793  17.167  0.1426 -0.3882  0.9909
 4513TIP3   OH234953   0.443   3.747   1.209  0.4600  0.1936 -0.0851
 4513TIP3    H134954   0.465   3.790   1.126  0.4094  2.3777  0.9752
 4513TIP3    H234955   0.524   3.746   1.259  0.2184 -0.0392  0.3133
 4514TIP3   OH234956   4.398   0.086  15.168 -0.2299 -0.1402 -0.3980
 4514TIP3    H134957   4.315   0.090  15.121  0.2224  2.7680 -1.1288
 4514TIP3    H234958   4.374   0.063  15.258 -1.6990 -0.4149 -0.8429
 4515TIP3   OH234959   2.504   0.415   1.191 -0.5896 -0.1019 -0.0911
 4515TIP3    H134960   2.495   0.479   1.120  1.0769  0.7185  0.3593
 4515TIP3    H234961   2.521   0.469   1.269  2.5420 -1.0191  0.0246
 4516TIP3   OH234962   0.468   5.643   2.394  0.1010  0.8270 -0.7563
 4516TIP3    H134963   0.509   5.557   2.395  2.4382  1.8697 -0.1289
 4516TIP3    H234964   0.387   5.630   2.345  0.8558 -1.5071 -1.5367
 4517TIP3   OH234965   1.947   2.903  16.656  0.2825 -0.0041  0.2270
 4517TIP3    H134966   1.988   2.986  16.681  0.6991 -0.1809  0.1498
 4517TIP3    H234967   1.989   2.838  16.713 -0.5402 -0.0738  0.7778
 4518TIP3   OH234968   5.445   4.888  15.812 -0.4066 -0.3869  0.6779
 4518TIP3    H134969   5.532   4.869  15.776 -0.0142  2.4268 -0.1147
 4518TIP3    H234970   5.384   4.855  15.747  0.2149  1.2660 -0.8147
 4519TIP3   OH234971   3.057   4.841   3.986  0.0270  0.7365 -0.0930
 4519TIP3    H134972   3.093   4.906   4.046  0.0506  0.8671 -0.2488
 4519TIP3    H234973   3.006   4.782   4.042 -1.4401  1.8846 -0.1558
 4520TIP3   OH234974   4.027   4.832   2.557 -0.0265  0.3200  0.4832
 4520TIP3    H134975   4.064   4.862   2.474  2.7223 -2.5311  0.4851
 4520TIP3    H234976   3.959   4.769   2.531  1.1131 -0.8818  0.3171
 4521TIP3   OH234977   4.363   1.720  14.786  0.0964 -0.3249  0.1789
 4521TIP3    H134978   4.455   1.696  14.790  0.0610 -0.7472 -1.0797
 4521TIP3    H234979   4.340   1.711  14.693 -1.9450 -3.0763  0.8353
 4522TIP3   OH234980   0.959   5.995  16.340 -0.2570 -0.2821 -0.5232
 4522TIP3    H134981   0.924   5.953  16.261  0.3021  1.3826 -1.7210
 4522TIP3    H234982   1.049   6.018  16.317 -0.3497  0.9853  0.2923
 4523TIP3   OH234983   2.741   3.582   3.667  0.1593  0.0077  0.2796
 4523TIP3    H134984   2.775   3.615   3.750  0.1157 -0.3057  0.4267
 4523TIP3    H234985   2.648   3.566   3.684 -0.1084  0.9971 -0.1607
 4524TIP3   OH234986   4.092   2.571   0.715  0.5719  0.1400 -0.5490
 4524TIP3    H134987   4.036   2.645   0.740  0.7878  0.2552 -0.3980
 4524TIP3    H234988   4.135   2.545   0.797  0.4613 -0.1856 -0.5915
 4525TIP3   OH234989   2.651   0.171  13.241 -0.3104  0.4686  0.0157
 4525TIP3    H134990   2.642   0.237  13.310 -1.7530 -0.6112  0.9163
 4525TIP3    H234991   2.565   0.170  13.198 -0.6616 -1.4585  0.6565
 4526TIP3   OH234992   5.997   2.520  14.187 -0.5582 -0.0545  0.2031
 4526TIP3    H134993   6.077   2.540  14.236  1.0495 -0.4096 -2.0995
 4526TIP3    H234994   5.962   2.606  14.162 -1.1996  0.1166  1.5519
 4527TIP3   OH234995   3.082   2.191   4.864  0.2713  0.0663 -0.1015
 4527TIP3    H134996   2.999   2.197   4.816 -0.0052  2.4147  0.5532
 4527TIP3    H234997   3.145   2.234   4.808  1.0179 -1.3564 -0.4091
 4528TIP3   OH234998   0.317   2.433   0.411 -0.3305 -0.3561 -0.2997
 4528TIP3    H134999   0.227   2.399   0.411 -0.4925  0.0274  0.8606
 4528TIP3    H235000   0.306   2.528   0.418  0.1630 -0.3800  1.0728
 4529TIP3   OH235001   4.872   4.587   6.373  0.6119  0.0345  0.2084
 4529TIP3    H135002   4.871   4.503   6.418 -1.1387  0.1193  0.4109
 4529TIP3    H235003   4.911   4.648   6.436  1.7641 -0.5908  0.1100
 4530TIP3   OH235004   4.715   4.584  12.674 -0.1085 -0.4690 -0.3124
 4530TIP3    H135005   4.784   4.582  12.741 -0.3931  0.8190  0.0453
 4530TIP3    H235006   4.733   4.508  12.619  2.6237  0.6725 -1.2324
 4531TIP3   OH235007   3.775   2.898  11.380 -0.3268 -0.0908  0.0183
 4531TIP3    H135008   3.849   2.927  11.433  0.8487 -1.5224 -0.7695
 4531TIP3    H235009   3.802   2.914  11.290 -1.0956 -0.3503 -0.2662
 4532TIP3   OH235010   0.070   5.729   4.833  0.2739 -0.8110  0.3224
 4532TIP3    H135011   0.120   5.680   4.768 -0.5700  0.8945 -1.7513
 4532TIP3    H235012   0.098   5.820   4.822 -2.2834  0.0257 -0.0671
 4533TIP3   OH235013   2.816   4.140   2.451 -0.1942  0.3041 -0.0290
 4533TIP3    H135014   2.772   4.109   2.372  1.0898  0.4084 -0.8095
 4533TIP3    H235015   2.855   4.223   2.426 -2.3423  1.9017  1.6212
 4534TIP3   OH235016   3.920   4.822   2.035 -0.5199 -0.7992 -0.0783
 4534TIP3    H135017   3.942   4.731   2.052 -1.4342 -0.9937  0.1215
 4534TIP3    H235018   3.849   4.842   2.096 -1.1641 -0.3337 -0.9498
 4535TIP3   OH235019   5.275   0.649  12.065 -0.4611 -0.4740  0.1717
 4535TIP3    H135020   5.340   0.593  12.023  0.2989  2.0446 -2.3631
 4535TIP3    H235021   5.234   0.696  11.992 -2.0936  1.1465  2.0253
 4536TIP3   OH235022   3.270   6.265  16.229  0.4366  0.2230 -0.1240
 4536TIP3    H135023   3.340   6.204  16.205 -0.8539 -0.5695 -2.0868
 4536TIP3    H235024   3.250   6.311  16.148 -1.5614  0.1893  0.3127
 4537TIP3   OH235025   3.819   2.791   2.214 -0.5549 -0.4023 -0.0545
 4537TIP3    H135026   3.796   2.878   2.246  0.0499  0.1222 -1.0160
 4537TIP3    H235027   3.862   2.749   2.289  2.0120  1.2714 -0.4507
 4538TIP3   OH235028   3.041   4.450   3.772  0.0994 -0.6684  0.4360
 4538TIP3    H135029   3.112   4.386   3.765  0.4198 -0.2904  0.1960
 4538TIP3    H235030   3.037   4.473   3.865 -0.8674 -1.9853  0.7513
 4539TIP3   OH235031   3.204   2.573  10.374  0.4359 -0.3520  0.7135
 4539TIP3    H135032   3.229   2.663  10.354  0.7303 -0.6027 -0.1055
 4539TIP3    H235033   3.269   2.544  10.438  1.1971 -0.4171 -0.0637
 4540TIP3   OH235034   1.175   0.250  16.574 -0.0734 -0.1310  0.5742
 4540TIP3    H135035   1.210   0.305  16.645 -1.7720  0.7720  0.7759
 4540TIP3    H235036   1.249   0.197  16.546  0.6929 -0.4086  2.9291
 4541TIP3   OH235037   4.021   6.664  12.549 -0.3803 -0.6304 -0.1517
 4541TIP3    H135038   4.008   6.685  12.456 -1.1383  2.5385  0.5282
 4541TIP3    H235039   4.078   6.588  12.549 -0.6340 -0.9412 -3.2164
 4542TIP3   OH235040   2.677   1.725  11.656 -0.2628 -0.4415 -0.0877
 4542TIP3    H135041   2.716   1.811  11.672 -1.8669  0.6086 -1.4644
 4542TIP3    H235042   2.665   1.688  11.744 -1.1528  1.5029  0.6829
 4543TIP3   OH235043   3.490   0.993  11.081 -0.0742 -0.1776 -0.1009
 4543TIP3    H135044   3.441   1.044  11.016 -0.0500 -0.6309 -0.4780
 4543TIP3    H235045   3.425   0.934  11.120 -0.1434  0.2652  0.4704
 4544TIP3   OH235046   1.460   6.551   1.765 -0.4329  0.4663  0.4461
 4544TIP3    H135047   1.509   6.539   1.846  0.3994  0.0273 -0.0955
 4544TIP3    H235048   1.470   6.467   1.719 -0.3010  0.9349 -0.4099
 4545TIP3   OH235049   5.875   0.655  16.444 -0.2925 -0.5475  0.3152
 4545TIP3    H135050   5.811   0.592  16.476  0.6682 -2.2012 -0.8493
 4545TIP3    H235051   5.955   0.636  16.494  0.4099 -1.2609 -1.0206
 4546TIP3   OH235052   4.065   0.367   1.667 -0.5621  0.1769 -0.1097
 4546TIP3    H135053   4.099   0.296   1.723  1.6087  1.0067 -0.2820
 4546TIP3    H235054   4.076   0.335   1.578 -2.3440 -0.4136 -0.1541
 4547TIP3   OH235055   4.624   0.837  17.211 -0.3836  0.5475  0.3145
 4547TIP3    H135056   4.557   0.770  17.194 -1.9649  1.6710  1.7892
 4547TIP3    H235057   4.632   0.885  17.129 -0.4459 -0.4033 -0.2567
 4548TIP3   OH235058   6.713   1.016  13.923 -0.7275 -0.5949 -0.0007
 4548TIP3    H135059   6.653   1.083  13.956 -0.3048 -1.1066  1.9583
 4548TIP3    H235060   6.715   1.030  13.829 -0.3109  2.4246  0.3657
 4549TIP3   OH235061   1.618   2.146  10.834 -0.2464  0.2418 -0.3125
 4549TIP3    H135062   1.605   2.112  10.745 -2.7220  0.4411 -0.0988
 4549TIP3    H235063   1.536   2.191  10.854  0.1914  0.0535  2.1516
 4550TIP3   OH235064   1.699   5.878   0.305 -0.1749  0.4432  0.6069
 4550TIP3    H135065   1.635   5.810   0.324 -0.1888 -0.3736 -1.9506
 4550TIP3    H235066   1.647   5.954   0.277 -0.1050  0.0155 -0.7700
 4551TIP3   OH235067   2.052   4.084   4.243 -0.1717 -0.5752 -0.1901
 4551TIP3    H135068   2.081   4.003   4.202 -1.1239 -1.3286  0.5845
 4551TIP3    H235069   2.016   4.136   4.171  1.3702 -0.3657 -0.8654
 4552TIP3   OH235070   2.496   5.115   4.638 -0.6540  0.4827 -0.0898
 4552TIP3    H135071   2.418   5.135   4.586 -0.8688  2.6725  0.9394
 4552TIP3    H235072   2.554   5.069   4.578 -2.0884  0.2115 -1.3485
 4553TIP3   OH235073   0.858   2.694   0.922  0.0097 -0.3858 -0.5645
 4553TIP3    H135074   0.862   2.732   1.009 -0.7519 -1.5078 -0.0168
 4553TIP3    H235075   0.836   2.767   0.865  0.7600  0.4049  0.1446
 4554TIP3   OH235076   6.030   0.546  12.805 -0.1003 -0.4679  0.3177
 4554TIP3    H135077   6.026   0.455  12.835 -1.3119 -0.2079  1.0282
 4554TIP3    H235078   6.098   0.546  12.738 -0.2590 -1.9621  0.1148
 4555TIP3   OH235079   2.965   1.861   4.335  0.4097  1.2625 -0.3672
 4555TIP3    H135080   2.996   1.770   4.333 -2.2524  0.2220  1.0075
 4555TIP3    H235081   3.046   1.913   4.335  2.0237 -0.9298 -3.3203
 4556TIP3   OH235082   5.261   6.211  15.359  0.2164  0.1902  0.3254
 4556TIP3    H135083   5.243   6.229  15.266  2.4404 -0.1931 -0.2453
 4556TIP3    H235084   5.274   6.116  15.362  2.7971  0.4620  0.4217
 4557TIP3   OH235085   3.582   6.373   2.467 -0.0143 -0.2055 -0.0939
 4557TIP3    H135086   3.558   6.314   2.396  0.8638 -0.8282  0.1133
 4557TIP3    H235087   3.602   6.456   2.424 -0.0282 -0.4188 -0.5112
 4558TIP3   OH235088   3.050   2.180   2.158 -0.0075 -0.0821 -0.5932
 4558TIP3    H135089   3.093   2.097   2.181 -1.1059 -0.5292 -0.0851
 4558TIP3    H235090   2.966   2.177   2.204  0.1378  1.5419 -0.1759
 4559TIP3   OH235091   3.890   1.160  16.059 -0.0274 -0.1729  0.2515
 4559TIP3    H135092   3.948   1.161  15.983  1.4033 -2.3467  1.2181
 4559TIP3    H235093   3.945   1.187  16.132 -0.3571 -1.6884  1.0960
 4560TIP3   OH235094   0.019   2.056   4.011 -0.2616  0.1203 -0.0420
 4560TIP3    H135095   0.076   2.128   4.038  1.0554 -0.5967 -0.7920
 4560TIP3    H235096   0.079   1.990   3.975 -1.5901 -0.5536 -1.1282
 4561TIP3   OH235097   4.625   0.621  12.442  0.3059  0.3216 -0.1225
 4561TIP3    H135098   4.590   0.561  12.376 -1.5241  0.9476  0.2172
 4561TIP3    H235099   4.601   0.581  12.526 -0.1675  1.0734  0.1111
 4562TIP3   OH235100   1.661   1.066  13.558 -0.4858  0.1602  0.4493
 4562TIP3    H135101   1.680   0.980  13.520 -0.7915 -0.2759  1.2722
 4562TIP3    H235102   1.681   1.127  13.487 -0.1071 -0.5710 -0.0974
 4563TIP3   OH235103   6.477   1.110  13.246  0.5857  0.6123  0.4020
 4563TIP3    H135104   6.475   1.094  13.341 -1.7745 -0.5542  0.2266
 4563TIP3    H235105   6.527   1.191  13.237  2.1313  0.0013  2.4964
 4564TIP3   OH235106   0.594   5.427  12.999 -0.1007 -0.0482 -0.0208
 4564TIP3    H135107   0.631   5.509  13.032  2.1810 -0.9150 -0.2198
 4564TIP3    H235108   0.646   5.359  13.042 -1.6466 -1.4004 -0.1969
 4565TIP3   OH235109   5.003   4.539  11.229  0.0171 -0.4089  0.1814
 4565TIP3    H135110   4.956   4.620  11.250 -0.9570  0.2069 -3.6073
 4565TIP3    H235111   4.971   4.514  11.142  2.0358 -3.6037  0.1733
 4566TIP3   OH235112   5.369   5.357   3.027  0.3350  0.5156  0.4281
 4566TIP3    H135113   5.380   5.263   3.014 -1.7771  0.5078 -2.2133
 4566TIP3    H235114   5.299   5.364   3.092  0.0779  0.2208  0.1915
 4567TIP3   OH235115   4.612   3.506   3.433  0.5620 -0.2433  0.0423
 4567TIP3    H135116   4.572   3.460   3.359  1.4657 -0.8595 -0.0894
 4567TIP3    H235117   4.592   3.598   3.418  0.0077 -0.4444 -0.5104
 4568TIP3   OH235118   5.055   6.650   3.995 -0.2555 -0.2020 -0.2557
 4568TIP3    H135119   5.103   6.730   3.973  0.3546 -0.5520 -0.2010
 4568TIP3    H235120   5.056   6.647   4.091 -0.5914 -0.0918 -0.2452
 4569TIP3   OH235121   2.822   4.830   0.279 -0.2735 -0.3108 -0.7133
 4569TIP3    H135122   2.741   4.855   0.234 -0.8834  2.1268  1.4936
 4569TIP3    H235123   2.888   4.827   0.211 -1.7509 -0.0170 -2.2253
 4570TIP3   OH235124   6.585   3.437   1.509  0.0949 -0.2974  0.0530
 4570TIP3    H135125   6.676   3.420   1.485  0.2690 -0.5575  0.8692
 4570TIP3    H235126   6.534   3.377   1.456  0.4933 -1.0664  0.5213
 4571TIP3   OH235127   1.885   0.082   1.647  0.0883 -0.1129 -0.5710
 4571TIP3    H135128   1.812   0.100   1.706 -0.4661  0.0143 -1.2876
 4571TIP3    H235129   1.901  -0.012   1.656  2.3842  0.4117  2.4856
 4572TIP3   OH235130   0.567   3.437  16.175 -0.1199 -1.1114  0.6690
 4572TIP3    H135131   0.492   3.468  16.226  0.3759  0.7498  0.3548
 4572TIP3    H235132   0.635   3.503  16.191  2.0918 -3.6122  2.3203
 4573TIP3   OH235133   0.482   6.313  14.199 -0.1813  0.2339  0.5069
 4573TIP3    H135134   0.491   6.277  14.110  0.9444 -1.0914  1.1172
 4573TIP3    H235135   0.538   6.390  14.199  0.5235 -0.2698  0.3170
 4574TIP3   OH235136   3.448   2.317  10.365  0.3504 -0.4030 -0.4725
 4574TIP3    H135137   3.481   2.407  10.357  0.7516 -0.4655  0.3727
 4574TIP3    H235138   3.516   2.270  10.414  0.0598 -1.1221 -0.7462
 4575TIP3   OH235139   2.069   1.176  16.684  0.5507 -0.0211 -0.0456
 4575TIP3    H135140   2.145   1.234  16.693 -0.4391  1.2496  0.4980
 4575TIP3    H235141   2.089   1.122  16.608  1.4145  1.2100 -0.7368
 4576TIP3   OH235142   6.072   3.531   4.110 -0.1451  0.2895 -0.0738
 4576TIP3    H135143   6.147   3.590   4.120 -0.9793  1.4047 -0.2564
 4576TIP3    H235144   6.079   3.471   4.184  1.0199  0.2690 -0.1779
 4577TIP3   OH235145   6.665   4.120   4.089  0.4646  0.1335 -0.5317
 4577TIP3    H135146   6.640   4.211   4.078  1.7096  0.3284 -2.0453
 4577TIP3    H235147   6.582   4.072   4.088 -0.1069  1.0974 -1.3577
 4578TIP3   OH235148   5.058   3.862  10.801  0.6751 -0.5327 -0.4450
 4578TIP3    H135149   5.111   3.804  10.856 -1.2813 -3.0588 -1.0387
 4578TIP3    H235150   4.972   3.864  10.844  0.2511  0.7387 -1.2930
 4579TIP3   OH235151   4.577   6.023  11.855  0.4881  0.1133  0.2225
 4579TIP3    H135152   4.515   6.096  11.850 -1.6565 -1.5592  0.8785
 4579TIP3    H235153   4.577   5.997  11.947 -1.5757 -2.8771 -0.4652
 4580TIP3   OH235154   3.654   3.107   3.079 -0.0684 -0.2344  0.6451
 4580TIP3    H135155   3.569   3.100   3.036  1.2744 -0.8015 -2.1191
 4580TIP3    H235156   3.684   3.196   3.059 -0.0924  0.0592  1.8376
 4581TIP3   OH235157   3.550   3.359   1.105  0.4429 -0.1776 -0.3071
 4581TIP3    H135158   3.550   3.266   1.082  0.5561 -0.0774 -0.7046
 4581TIP3    H235159   3.638   3.376   1.139  0.1420 -0.4314  0.6523
 4582TIP3   OH235160   1.338   2.064   3.910  0.6929 -0.2811  0.7442
 4582TIP3    H135161   1.414   2.093   3.960 -0.0772  2.5112  0.4821
 4582TIP3    H235162   1.306   2.143   3.867 -1.5929 -1.6170 -0.2124
 4583TIP3   OH235163   1.313   2.411  15.975  0.0391  0.0279  0.3637
 4583TIP3    H135164   1.296   2.493  16.021 -1.1042  0.5553 -0.9232
 4583TIP3    H235165   1.387   2.432  15.916 -0.6077  0.3189 -0.3618
 4584TIP3   OH235166   2.427   1.676  12.914  0.3100 -0.3203 -0.3845
 4584TIP3    H135167   2.497   1.617  12.942  1.3313  0.1526 -1.8461
 4584TIP3    H235168   2.356   1.618  12.885 -0.1579 -0.8060  1.5546
 4585TIP3   OH235169   5.229   2.257   5.789  0.2348 -0.4204 -0.5183
 4585TIP3    H135170   5.214   2.274   5.882 -2.0856  0.8568 -1.0564
 4585TIP3    H235171   5.239   2.162   5.783 -1.7635 -0.7754  0.8222
 4586TIP3   OH235172   4.883   1.966  14.715  0.4422 -0.4235 -0.0761
 4586TIP3    H135173   4.941   1.945  14.642  1.4743 -0.6973  0.7965
 4586TIP3    H235174   4.794   1.952  14.681  0.9543 -1.9652 -0.8296
 4587TIP3   OH235175   6.577   2.909  11.891 -0.3689 -0.3976 -0.6197
 4587TIP3    H135176   6.515   2.843  11.921  0.3427 -0.4103  0.9002
 4587TIP3    H235177   6.538   2.992  11.917 -0.3900 -0.3249 -0.8806
 4588TIP3   OH235178   1.462   2.788   3.883  0.2247  0.2764 -0.2818
 4588TIP3    H135179   1.430   2.698   3.885  0.5825  0.1577  0.9716
 4588TIP3    H235180   1.524   2.793   3.956  0.4716  1.4411 -0.5555
 4589TIP3   OH235181   4.988   6.161  11.530 -0.2062  0.2257 -0.2617
 4589TIP3    H135182   4.950   6.166  11.617  0.7200 -2.3726  0.3848
 4589TIP3    H235183   5.082   6.172  11.544 -0.0302 -0.3992 -0.8875
 4590TIP3   OH235184   0.554   5.569  15.269 -0.1402  0.0322  0.4858
 4590TIP3    H135185   0.575   5.662  15.274  0.8755 -0.1529 -0.1722
 4590TIP3    H235186   0.607   5.529  15.338  0.7140 -0.2621 -0.3165
 4591TIP3   OH235187   5.346   4.380   3.891  0.4447 -0.4159  0.2791
 4591TIP3    H135188   5.302   4.409   3.972  1.0042  0.8865  0.1463
 4591TIP3    H235189   5.398   4.456   3.864  0.2526 -0.8238 -1.3300
 4592TIP3   OH235190   3.910   4.085  15.176 -0.7135  0.5915 -0.0456
 4592TIP3    H135191   3.920   4.031  15.254 -1.4782  0.5135  0.0060
 4592TIP3    H235192   3.817   4.107  15.173 -0.4185  1.9264 -0.0564
 4593TIP3   OH235193   2.044   2.944  14.998  1.2625 -0.0499  1.3426
 4593TIP3    H135194   2.026   2.878  15.064 -0.8619 -0.2381  0.6338
 4593TIP3    H235195   2.028   3.028  15.043 -5.5415 -0.0878  0.0650
 4594TIP3   OH235196   1.888   5.359  15.199  0.4398 -0.1137  0.1338
 4594TIP3    H135197   1.852   5.289  15.143  1.5544 -1.7862  1.4090
 4594TIP3    H235198   1.822   5.428  15.195 -1.3102 -1.7042 -0.2878
 4595TIP3   OH235199   3.255   1.099  12.168  0.1871  0.0122 -0.4840
 4595TIP3    H135200   3.161   1.106  12.153  0.1933  1.6645  0.0211
 4595TIP3    H235201   3.277   1.178  12.217  1.4761 -1.3916  1.3373
 4596TIP3   OH235202   4.764   0.508  14.936  0.0232  0.2789 -0.2603
 4596TIP3    H135203   4.734   0.417  14.931  1.3439 -0.2626  0.8419
 4596TIP3    H235204   4.777   0.534  14.845 -1.8300 -0.0985 -0.6691
 4597TIP3   OH235205   5.770   5.158  15.512 -0.2548 -0.0544 -0.5963
 4597TIP3    H135206   5.732   5.204  15.587  1.2978 -0.2917  0.3811
 4597TIP3    H235207   5.733   5.070  15.517  1.3296 -0.6766  1.1079
 4598TIP3   OH235208   6.329   2.625  13.284 -0.4690 -0.1335 -0.1976
 4598TIP3    H135209   6.330   2.620  13.380 -0.0079 -0.2566 -0.2050
 4598TIP3    H235210   6.332   2.718  13.265 -0.2765 -0.1170 -0.0923
 4599TIP3   OH235211   1.969   5.235   0.755  0.0804 -0.4150 -0.5413
 4599TIP3    H135212   1.944   5.234   0.847  0.1753 -0.0737 -0.5131
 4599TIP3    H235213   1.960   5.143   0.727 -1.2651 -0.3011 -0.5434
 4600TIP3   OH235214   1.083   1.527   0.171 -0.1623 -0.3757  0.1174
 4600TIP3    H135215   1.094   1.497   0.262 -1.8825  0.6921  0.7216
 4600TIP3    H235216   1.094   1.448   0.119  0.0913 -1.1590  1.3091
 4601TIP3   OH235217   5.495   1.808   3.380 -0.8062 -0.2622 -0.0390
 4601TIP3    H135218   5.485   1.897   3.347 -1.1608  0.0803  0.9711
 4601TIP3    H235219   5.406   1.779   3.399 -0.5981 -0.3897  0.7677
 4602TIP3   OH235220   3.665   5.040  15.059 -0.8116  0.5846  0.7268
 4602TIP3    H135221   3.733   5.029  15.126 -0.4041  2.4954  0.6700
 4602TIP3    H235222   3.623   5.123  15.081 -2.9687 -0.4188  0.5797
 4603TIP3   OH235223   0.497   1.441  11.560  0.4733 -0.2742  0.1021
 4603TIP3    H135224   0.586   1.449  11.592  0.3477 -0.9998  0.6636
 4603TIP3    H235225   0.443   1.481  11.628  0.5201  2.5656 -1.4089
 4604TIP3   OH235226   4.087   4.278   1.580 -0.2865  0.1180 -0.2941
 4604TIP3    H135227   4.177   4.249   1.567  0.2628  1.5303  0.2717
 4604TIP3    H235228   4.069   4.338   1.508 -0.8340 -0.2577 -0.4828
 4605TIP3   OH235229   6.020   2.187  15.912 -0.5515 -0.7075 -0.4595
 4605TIP3    H135230   6.099   2.180  15.966 -0.8943  0.2751  0.1932
 4605TIP3    H235231   5.958   2.127  15.954 -0.2686 -1.2480 -0.7938
 4606TIP3   OH235232   6.609   5.714  13.101  0.3773  0.4516  0.4540
 4606TIP3    H135233   6.574   5.667  13.025  1.5796 -1.0137  0.7616
 4606TIP3    H235234   6.663   5.783  13.064  1.8528 -0.9319 -0.0886
 4607TIP3   OH235235   5.422   4.909   3.954 -0.0390 -0.2489 -0.6969
 4607TIP3    H135236   5.491   4.971   3.931 -1.2124  0.4068 -2.7398
 4607TIP3    H235237   5.400   4.929   4.045  2.3680 -0.4532 -0.0039
 4608TIP3   OH235238   5.095   4.887   5.339 -0.4133  0.6824  0.0878
 4608TIP3    H135239   5.099   4.802   5.382 -2.7274  1.0291  1.1795
 4608TIP3    H235240   5.007   4.890   5.300 -0.4576  2.6227  0.2333
 4609TIP3   OH235241   3.274   4.225  10.805  0.3367  0.0858 -0.4679
 4609TIP3    H135242   3.337   4.201  10.737  0.0704  0.9084 -1.0142
 4609TIP3    H235243   3.277   4.321  10.808 -0.8875  0.1345 -0.4894
 4610TIP3   OH235244   1.082   3.676  10.957 -0.0882 -0.6435  0.2377
 4610TIP3    H135245   1.070   3.613  11.028 -0.4080 -1.0229 -0.1427
 4610TIP3    H235246   1.016   3.651  10.892 -0.8413  0.6547  0.4765
 4611TIP3   OH235247   5.773   4.285   2.113 -0.0745  0.0653  0.0908
 4611TIP3    H135248   5.798   4.329   2.195 -2.0041 -0.3493  0.9588
 4611TIP3    H235249   5.688   4.245   2.132  0.5640 -2.1787 -1.3584
 4612TIP3   OH235250   2.861   5.461   0.179 -0.1832  0.7737  0.2960
 4612TIP3    H135251   2.839   5.541   0.132  0.2577  0.1825 -0.9631
 4612TIP3    H235252   2.916   5.411   0.117 -1.7171 -1.1865  0.4318
 4613TIP3   OH235253   5.463   3.278   1.492  0.2120  0.0864 -0.0276
 4613TIP3    H135254   5.552   3.254   1.466  0.7177 -1.0267  2.4495
 4613TIP3    H235255   5.465   3.373   1.503  1.4315 -0.0488  1.0544
 4614TIP3   OH235256   3.473   4.946  13.890 -0.0786  0.4578 -0.8601
 4614TIP3    H135257   3.428   5.013  13.942  1.8012  1.4472 -0.4265
 4614TIP3    H235258   3.405   4.881  13.872 -0.9780  0.2724  2.4449
 4615TIP3   OH235259   1.730   1.851   5.531 -0.3784  0.2163  0.0748
 4615TIP3    H135260   1.798   1.915   5.509  0.7561 -1.1423 -0.5274
 4615TIP3    H235261   1.758   1.815   5.615  0.3602 -1.2388 -0.7664
 4616TIP3   OH235262   4.219   2.017   6.305 -0.0586  0.2906  0.8145
 4616TIP3    H135263   4.140   2.056   6.340 -0.0788  0.3121  0.7455
 4616TIP3    H235264   4.214   1.925   6.331  0.8063  0.6563  2.4152
 4617TIP3   OH235265   5.495   0.447   4.577  0.6798  0.4233  0.0227
 4617TIP3    H135266   5.409   0.406   4.572  1.0124 -0.2800 -0.1087
 4617TIP3    H235267   5.492   0.500   4.657 -0.5607  2.0734 -1.0458
 4618TIP3   OH235268   4.476   2.888   5.497  0.0566 -0.1008 -0.4174
 4618TIP3    H135269   4.487   2.828   5.570  1.1743 -1.8794 -1.9573
 4618TIP3    H235270   4.555   2.942   5.499 -0.1227  0.1553 -0.0721
 4619TIP3   OH235271   0.155   6.417  12.229  0.3826 -0.5842  0.1361
 4619TIP3    H135272   0.080   6.473  12.207  0.1715 -1.2935 -1.0110
 4619TIP3    H235273   0.226   6.479  12.248 -0.7131  0.1236  2.2642
 4620TIP3   OH235274   5.564   1.435   5.041 -0.4387  0.0537 -0.0908
 4620TIP3    H135275   5.633   1.501   5.047  0.0157 -0.4690  0.5575
 4620TIP3    H235276   5.560   1.397   5.128 -1.1784 -0.2939 -0.2743
 4621TIP3   OH235277   3.058   0.656  15.231  0.0079 -0.4761 -0.7064
 4621TIP3    H135278   3.123   0.587  15.243 -0.2450 -0.5294  0.4909
 4621TIP3    H235279   3.106   0.726  15.187  0.8098 -0.6269 -0.1068
 4622TIP3   OH235280   1.974   5.349   1.028  0.1804  0.3613 -0.0780
 4622TIP3    H135281   1.995   5.424   1.083  1.1361 -0.1324  0.2575
 4622TIP3    H235282   1.883   5.363   1.001  0.2388  1.4529  0.2602
 4623TIP3   OH235283   1.169   6.678  14.063 -0.0905  0.8304  0.2724
 4623TIP3    H135284   1.192   6.735  13.989  0.1335  1.0023  0.4751
 4623TIP3    H235285   1.252   6.660  14.107 -0.0119 -0.4564 -0.3588
 4624TIP3   OH235286   5.543   2.464   5.835  0.0340  0.2991  0.0361
 4624TIP3    H135287   5.505   2.551   5.827 -2.4916 -0.7429 -0.0237
 4624TIP3    H235288   5.500   2.425   5.911  0.1049 -1.3616 -0.7241
 4625TIP3   OH235289   6.462   3.943   5.107  0.0396  0.2117 -0.0630
 4625TIP3    H135290   6.438   3.903   5.191  0.2887 -1.6694 -0.8336
 4625TIP3    H235291   6.422   4.030   5.109  0.5564  0.4512  2.2437
 4626TIP3   OH235292   4.150   0.923  13.149  0.0506  0.3468 -0.1922
 4626TIP3    H135293   4.232   0.934  13.102  0.5711 -1.9645  0.0559
 4626TIP3    H235294   4.082   0.950  13.087  0.9205  1.4096 -0.7165
 4627TIP3   OH235295   3.283   0.534  11.017 -0.4829 -0.0241  0.1956
 4627TIP3    H135296   3.195   0.553  10.985 -0.3427  2.6393  1.1708
 4627TIP3    H235297   3.341   0.571  10.950  0.0151 -2.7968 -1.0459
 4628TIP3   OH235298   6.511   3.044   3.723 -0.2254 -0.3117  0.0386
 4628TIP3    H135299   6.564   3.116   3.758 -0.3775  0.7297 -1.7333
 4628TIP3    H235300   6.424   3.057   3.760  0.0239 -0.2411  0.6031
 4629TIP3   OH235301   6.198   3.033  16.811 -0.3801  0.4814 -0.3220
 4629TIP3    H135302   6.145   3.061  16.737  0.0115  0.3666 -0.6436
 4629TIP3    H235303   6.211   2.939  16.798 -1.1453  0.2613  0.4179
 4630TIP3   OH235304   3.424   0.249   2.430 -0.5302 -0.2907 -0.5738
 4630TIP3    H135305   3.353   0.187   2.445 -0.3834 -0.5155 -0.7996
 4630TIP3    H235306   3.400   0.326   2.482 -1.0391 -0.2832 -0.8160
 4631TIP3   OH235307   2.763   6.607   2.784  0.2278 -0.2331  0.0874
 4631TIP3    H135308   2.799   6.530   2.827  1.5880 -1.2677 -2.6480
 4631TIP3    H235309   2.672   6.585   2.765 -0.1216 -0.1111  1.5462
 4632TIP3   OH235310   4.054   3.238  13.294 -0.3260  0.7041 -0.3474
 4632TIP3    H135311   4.149   3.234  13.301 -0.0938 -0.2130 -2.9077
 4632TIP3    H235312   4.035   3.204  13.206 -3.0432  0.5048  0.2310
 4633TIP3   OH235313   2.589   4.155  16.555  0.3527 -0.1016  0.1373
 4633TIP3    H135314   2.616   4.070  16.522 -0.9860 -0.6938  0.4862
 4633TIP3    H235315   2.552   4.200  16.479  1.4749  0.3602 -0.1464
 4634TIP3   OH235316   3.295   1.994  13.898  0.4208  0.1087  0.4995
 4634TIP3    H135317   3.243   1.924  13.860 -0.4597  0.5492  0.8686
 4634TIP3    H235318   3.244   2.073  13.881  1.5587  0.7195 -0.2227
 4635TIP3   OH235319   6.143   2.447   1.108  0.1959  0.0483 -0.9482
 4635TIP3    H135320   6.133   2.358   1.075  0.9192 -0.0483 -0.9339
 4635TIP3    H235321   6.061   2.465   1.154 -0.2386 -0.3435 -1.5576
 4636TIP3   OH235322   4.801   6.643   5.652 -0.2800 -0.3675  1.0686
 4636TIP3    H135323   4.741   6.689   5.593 -1.2451 -2.0361  0.6844
 4636TIP3    H235324   4.856   6.591   5.593  0.3561 -0.2343  1.5326
 4637TIP3   OH235325   0.551   4.071   2.537 -0.4301  0.1182 -0.4813
 4637TIP3    H135326   0.517   4.092   2.450  0.3050 -1.3477 -1.1481
 4637TIP3    H235327   0.640   4.039   2.522 -0.3557 -0.3449  0.7835
 4638TIP3   OH235328   6.500   2.216   4.728 -0.3419 -0.4590  0.5490
 4638TIP3    H135329   6.470   2.126   4.716  0.3187 -0.7161  0.7591
 4638TIP3    H235330   6.425   2.270   4.703 -0.4801 -1.0519 -0.3675
 4639TIP3   OH235331   6.481   1.376  11.500 -0.2419  0.3656 -0.1912
 4639TIP3    H135332   6.461   1.329  11.580 -1.1626  1.9829  0.5712
 4639TIP3    H235333   6.413   1.348  11.438 -0.5075  0.3368  0.1093
 4640TIP3   OH235334   6.651   0.675   5.525 -0.2070  0.5756  1.2368
 4640TIP3    H135335   6.616   0.731   5.456 -0.4790 -0.7349  0.2562
 4640TIP3    H235336   6.720   0.727   5.566 -0.6751  1.7346  0.5927
 4641TIP3   OH235337   2.301   3.004  16.647  0.1586  0.4977 -0.0393
 4641TIP3    H135338   2.394   3.021  16.631  0.6914 -1.5388  0.5755
 4641TIP3    H235339   2.298   2.966  16.734 -1.3173  0.8691  0.0954
 4642TIP3   OH235340   5.200   5.974   2.463  0.5049  0.2859 -0.1902
 4642TIP3    H135341   5.157   5.963   2.547  2.8982 -3.5714  0.7674
 4642TIP3    H235342   5.141   5.933   2.400 -0.1955  1.0330 -0.0340
 4643TIP3   OH235343   3.825   3.184  12.942  0.1313 -0.4617 -0.1806
 4643TIP3    H135344   3.881   3.230  12.879 -1.2582  0.1279 -1.0477
 4643TIP3    H235345   3.840   3.091  12.924 -0.0723 -0.3031 -1.2582
 4644TIP3   OH235346   1.907   0.525  10.842 -0.7016 -0.7264  0.6838
 4644TIP3    H135347   1.975   0.537  10.775  0.9269  1.9734  2.6509
 4644TIP3    H235348   1.924   0.437  10.876  1.1388 -0.5421  0.3610
 4645TIP3   OH235349   1.189   3.652  10.701 -0.5016  0.4020  0.5685
 4645TIP3    H135350   1.195   3.694  10.787  0.0895  0.2439  0.6088
 4645TIP3    H235351   1.280   3.649  10.669 -0.4984 -0.9357  0.6189
 4646TIP3   OH235352   3.569   2.108   3.398 -0.2428  0.2332 -0.3019
 4646TIP3    H135353   3.598   2.030   3.352  1.0821 -0.1250  1.0789
 4646TIP3    H235354   3.643   2.133   3.453 -0.9029  2.0422 -0.1576
 4647TIP3   OH235355   0.689   0.389  12.322  0.5297 -0.2157 -0.5338
 4647TIP3    H135356   0.759   0.326  12.302 -0.1171 -1.3018  0.4947
 4647TIP3    H235357   0.623   0.337  12.367  0.6220  1.4766  1.6968
 4648TIP3   OH235358   0.944   1.246  16.529 -0.6712  0.0195  0.2877
 4648TIP3    H135359   0.980   1.229  16.616  2.7711 -0.9172 -1.1604
 4648TIP3    H235360   0.950   1.163  16.483 -2.0491  0.5935 -1.0394
 4649TIP3   OH235361   2.271   6.476  14.826 -0.0613 -0.8673 -0.3482
 4649TIP3    H135362   2.358   6.444  14.849  0.6041  0.0669 -1.4607
 4649TIP3    H235363   2.287   6.547  14.764 -1.6219 -0.6826 -0.5828
 4650TIP3   OH235364   6.390   5.019  15.668  0.2928 -0.4795 -0.0258
 4650TIP3    H135365   6.368   5.109  15.692 -0.7176 -0.6862 -0.1085
 4650TIP3    H235366   6.441   5.028  15.588  0.7190  0.0456  0.2956
 4651TIP3   OH235367   1.063   2.745   0.380  0.5483 -0.5628  0.8194
 4651TIP3    H135368   1.111   2.788   0.451  0.0102  0.3450  0.6523
 4651TIP3    H235369   1.115   2.763   0.301  1.2130 -1.6790  0.9862
 4652TIP3   OH235370   1.926   6.721   5.472 -0.2600  0.1748 -0.1290
 4652TIP3    H135371   1.992   6.672   5.521 -0.0460  1.0936  0.5196
 4652TIP3    H235372   1.846   6.671   5.483  0.5003 -1.5336 -1.7840
 4653TIP3   OH235373   4.085   2.914   2.887 -0.0235 -0.3374  0.6100
 4653TIP3    H135374   4.036   2.996   2.887 -3.3730 -2.1387 -0.2778
 4653TIP3    H235375   4.148   2.923   2.816 -0.6066  1.3024  0.2660
 4654TIP3   OH235376   5.152   2.466   3.401  0.0698  0.5931 -0.2516
 4654TIP3    H135377   5.118   2.470   3.311  2.2567  0.4108 -1.1378
 4654TIP3    H235378   5.124   2.549   3.440 -0.4475  0.9199 -1.2745
 4655TIP3   OH235379   6.194   6.265  10.954 -0.5024  0.2459 -0.1130
 4655TIP3    H135380   6.250   6.215  10.895 -0.0944  1.0038 -0.3790
 4655TIP3    H235381   6.254   6.320  11.004 -0.9149  0.2190  0.4179
 4656TIP3   OH235382   4.878   6.598  13.657  0.7963  0.0082 -0.2090
 4656TIP3    H135383   4.852   6.685  13.688  0.4133 -0.1512 -0.0710
 4656TIP3    H235384   4.925   6.614  13.575 -0.8513  0.2241 -1.1496
 4657TIP3   OH235385   2.904   5.641   5.569 -0.4847 -0.2752  0.1375
 4657TIP3    H135386   2.966   5.675   5.504 -0.9748  0.9508  0.2775
 4657TIP3    H235387   2.938   5.555   5.592  0.3085 -0.2654 -0.9264
 4658TIP3   OH235388   3.070   4.685   3.625  0.2711 -0.4888 -0.0421
 4658TIP3    H135389   3.138   4.662   3.562  0.6034 -1.7820  0.7509
 4658TIP3    H235390   3.057   4.606   3.677 -0.3676  0.3674  1.1651
 4659TIP3   OH235391   6.543   1.544  10.536  0.8286  0.2239  0.3479
 4659TIP3    H135392   6.458   1.554  10.493  0.9337  1.3494  0.3645
 4659TIP3    H235393   6.574   1.457  10.509 -0.2790 -0.1581  0.2780
 4660TIP3   OH235394   6.250   0.730  16.413 -0.1150 -0.1633 -0.0971
 4660TIP3    H135395   6.333   0.728  16.366  0.9361 -0.2297  1.6577
 4660TIP3    H235396   6.197   0.663  16.371  0.1075  0.9243 -2.2504
 4661TIP3   OH235397   5.856   1.496   5.849  0.2785  0.2698 -0.2102
 4661TIP3    H135398   5.857   1.405   5.819 -0.9435  0.3858 -0.6922
 4661TIP3    H235399   5.785   1.536   5.798  1.2747  1.6841 -0.5493
 4662TIP3   OH235400   3.759   1.675   2.385 -0.1258 -0.8548 -0.7442
 4662TIP3    H135401   3.812   1.711   2.457 -0.0819  2.0686 -2.1208
 4662TIP3    H235402   3.743   1.584   2.411  1.1330 -0.3457  2.2247
 4663TIP3   OH235403   1.646   2.473  14.391 -0.1687 -0.4768  0.4255
 4663TIP3    H135404   1.639   2.557  14.345  0.0008 -0.0120  1.2162
 4663TIP3    H235405   1.690   2.415  14.330  0.7404  0.3452  0.2826
 4664TIP3   OH235406   0.482   3.263  13.613 -0.3321 -0.0205  0.3051
 4664TIP3    H135407   0.567   3.306  13.601  0.7606 -2.0501  0.2278
 4664TIP3    H235408   0.439   3.315  13.681  0.7663  1.3464  0.0044
 4665TIP3   OH235409   4.791   2.627   0.726 -0.3002  0.0673 -0.4435
 4665TIP3    H135410   4.884   2.610   0.709  0.3765  1.8480  1.2115
 4665TIP3    H235411   4.762   2.678   0.650  0.7050  1.4389  0.0464
 4666TIP3   OH235412   5.495   2.638  15.394  0.8381  0.1906  0.2026
 4666TIP3    H135413   5.506   2.558  15.343  0.7367  0.6489 -0.5574
 4666TIP3    H235414   5.533   2.617  15.480 -2.1022 -1.7606  1.1843
 4667TIP3   OH235415   2.071   5.058  14.118 -0.7932 -0.1460 -0.1598
 4667TIP3    H135416   2.163   5.081  14.130 -0.7444 -1.0933  1.6654
 4667TIP3    H235417   2.034   5.131  14.070  0.6279  0.8986  0.2729
 4668TIP3   OH235418   2.273   3.701   1.849  0.3071  0.3597 -0.1065
 4668TIP3    H135419   2.238   3.620   1.812  0.6744  0.2416 -0.2000
 4668TIP3    H235420   2.366   3.699   1.828  0.6415  0.0191  1.2774
 4669TIP3   OH235421   1.708   6.068   4.696 -0.1579 -1.1921 -0.4083
 4669TIP3    H135422   1.616   6.086   4.718 -0.1168 -3.3938  2.1044
 4669TIP3    H235423   1.719   5.975   4.715  3.0999 -0.5674  1.5221
 4670TIP3   OH235424   3.510   4.988   2.291  0.3543  0.3726 -0.2321
 4670TIP3    H135425   3.461   5.014   2.213  0.6351  2.9336  0.3831
 4670TIP3    H235426   3.443   4.952   2.350 -0.3181  1.0284 -0.5749
 4671TIP3   OH235427   1.910   2.353   4.035 -0.2447 -0.0620  0.2530
 4671TIP3    H135428   1.928   2.268   3.995 -0.9596  0.0836 -0.3916
 4671TIP3    H235429   1.836   2.388   3.986  0.2286  1.0724  0.3111
 4672TIP3   OH235430   4.961   1.556  12.203 -0.0272 -0.1777  0.4842
 4672TIP3    H135431   4.953   1.486  12.139 -1.1886  0.4842 -0.1114
 4672TIP3    H235432   4.882   1.549  12.257 -1.4832  2.1858 -1.1608
 4673TIP3   OH235433   2.304   0.389  12.220  0.0454  0.6107 -0.1747
 4673TIP3    H135434   2.259   0.313  12.256 -0.0719 -0.4366 -2.3733
 4673TIP3    H235435   2.385   0.395  12.270 -0.4675 -0.2535  0.7907
 4674TIP3   OH235436   2.153   2.188  13.396 -0.0754  0.0330 -0.1284
 4674TIP3    H135437   2.154   2.119  13.462 -1.3624 -0.3528 -0.4747
 4674TIP3    H235438   2.078   2.243  13.420 -0.7952 -0.3266 -1.4464
 4675TIP3   OH235439   3.533   3.460  10.605  0.5451 -0.2550  0.7499
 4675TIP3    H135440   3.623   3.427  10.612  1.3994  1.4271 -1.3205
 4675TIP3    H235441   3.543   3.550  10.575 -1.8016  0.8179  2.8128
 4676TIP3   OH235442   0.793   4.709   0.751  0.3261  0.6555  0.0858
 4676TIP3    H135443   0.815   4.667   0.667 -0.5743  2.3577 -1.0553
 4676TIP3    H235444   0.857   4.780   0.759  0.1959  0.7072  0.6904
 4677TIP3   OH235445   6.741   2.878   5.098  0.1080 -0.1168 -0.1578
 4677TIP3    H135446   6.708   2.963   5.067  0.1220  0.7911  2.1469
 4677TIP3    H235447   6.798   2.899   5.171 -0.3798 -2.1429  0.8954
 4678TIP3   OH235448   3.648   4.052  11.434  0.5712  0.4658 -0.5801
 4678TIP3    H135449   3.743   4.043  11.423  0.8411 -0.6087  1.9402
 4678TIP3    H235450   3.637   4.130  11.487 -0.0332  0.8802 -1.2854
 4679TIP3   OH235451   3.433   4.575  10.620 -0.3773 -0.3800  0.0166
 4679TIP3    H135452   3.525   4.595  10.639 -0.0942  0.2243 -1.7502
 4679TIP3    H235453   3.396   4.549  10.704  0.7592  1.8280  1.2862
 4680TIP3   OH235454   1.000   2.979  15.297  0.1597  0.2770  0.3904
 4680TIP3    H135455   1.055   2.930  15.236  0.1864 -1.3890  1.6682
 4680TIP3    H235456   0.989   2.920  15.372 -0.8753  1.7579  1.4719
 4681TIP3   OH235457   3.418   6.204   5.399 -0.3569  0.2638  0.4572
 4681TIP3    H135458   3.449   6.282   5.354  4.0821 -1.7577 -0.5704
 4681TIP3    H235459   3.437   6.220   5.492  2.1371 -0.0957  0.0700
 4682TIP3   OH235460   3.222   5.754  13.933 -0.0516  0.3835 -0.5197
 4682TIP3    H135461   3.289   5.788  13.993 -1.7663 -0.7902  2.2499
 4682TIP3    H235462   3.178   5.832  13.900  0.1053  1.0556  0.8009
 4683TIP3   OH235463   5.691   6.511   0.806  0.4878  0.1849 -0.5211
 4683TIP3    H135464   5.706   6.602   0.831 -0.7977  0.7680 -1.6974
 4683TIP3    H235465   5.705   6.509   0.711 -1.1463 -0.4385 -0.7875
 4684TIP3   OH235466   0.965   4.931  16.502  0.1897  0.3430 -0.3831
 4684TIP3    H135467   1.028   4.912  16.571  0.8764  1.0966 -0.7805
 4684TIP3    H235468   0.926   4.846  16.481 -1.5211  0.3589  2.2811
 4685TIP3   OH235469   5.528   3.019  11.747 -0.3418 -0.1909 -0.1425
 4685TIP3    H135470   5.500   2.938  11.790 -0.1390 -0.8951 -1.2926
 4685TIP3    H235471   5.562   3.074  11.818 -0.2201 -1.2261  0.6193
 4686TIP3   OH235472   6.563   2.245  12.572 -0.2241 -0.3220  0.1206
 4686TIP3    H135473   6.612   2.163  12.575 -1.3434 -0.9695  1.3921
 4686TIP3    H235474   6.471   2.219  12.576 -0.6467  0.9543 -0.5615
 4687TIP3   OH235475   4.668   4.503  16.445  0.4943  0.0108 -0.2079
 4687TIP3    H135476   4.734   4.506  16.376 -0.4012  2.6785 -1.0763
 4687TIP3    H235477   4.584   4.508  16.398 -0.1363  1.6926  0.9919
 4688TIP3   OH235478   0.419   5.936   4.311  0.1668 -0.2253  0.0675
 4688TIP3    H135479   0.388   5.983   4.389 -0.4733 -0.4359 -0.0556
 4688TIP3    H235480   0.374   5.978   4.238 -1.1000 -1.5626  0.0254
 4689TIP3   OH235481   1.664   0.823   3.036  0.1619  0.5915 -0.6379
 4689TIP3    H135482   1.672   0.743   3.088 -0.5492  0.4722 -0.7008
 4689TIP3    H235483   1.737   0.878   3.065  0.7007 -0.1052 -0.6475
 4690TIP3   OH235484   1.659   4.427   4.495  0.2509 -0.5845  0.5617
 4690TIP3    H135485   1.625   4.342   4.524 -0.4217  0.0002  1.5177
 4690TIP3    H235486   1.585   4.487   4.504  1.3369  0.5996  2.1324
 4691TIP3   OH235487   3.021   2.007   3.995  0.1331 -0.5383  0.1977
 4691TIP3    H135488   2.985   2.029   3.909 -0.6835  0.8957  0.8574
 4691TIP3    H235489   2.953   1.954   4.036  0.6622 -1.5001 -0.1401
 4692TIP3   OH235490   0.137   6.651   2.911  0.1755 -0.4860  0.1452
 4692TIP3    H135491   0.097   6.593   2.846 -0.5375 -1.0828  1.0791
 4692TIP3    H235492   0.168   6.726   2.861 -3.8906  1.0339 -0.4592
 4693TIP3   OH235493   1.395   2.617  13.384 -0.6673 -0.1267 -0.2843
 4693TIP3    H135494   1.339   2.611  13.306  0.1751 -1.2915 -0.8275
 4693TIP3    H235495   1.388   2.709  13.411 -1.2770  0.2134 -1.5096
 4694TIP3   OH235496   3.504   6.297   5.633 -0.0602  0.3077 -0.2884
 4694TIP3    H135497   3.586   6.342   5.609  0.4364 -0.7691 -0.6719
 4694TIP3    H235498   3.505   6.294   5.728  0.6509 -0.2313 -0.3059
 4695TIP3   OH235499   1.599   1.471  16.135 -0.0749 -0.5267  0.7980
 4695TIP3    H135500   1.599   1.449  16.228  0.5297 -0.9007  0.7117
 4695TIP3    H235501   1.532   1.414  16.097 -0.6115 -0.0832  1.0662
 4696TIP3   OH235502   6.771   6.137   3.651 -0.4646 -0.3929 -0.0479
 4696TIP3    H135503   6.728   6.103   3.572  0.1569 -1.4319  0.0475
 4696TIP3    H235504   6.711   6.204   3.683 -1.5163 -1.0741 -0.5129
 4697TIP3   OH235505   3.656   2.472   3.610  0.2912  0.1950  0.0323
 4697TIP3    H135506   3.626   2.485   3.520  0.3562  1.6960  0.2018
 4697TIP3    H235507   3.697   2.386   3.609 -2.4231 -1.1992 -0.6383
 4698TIP3   OH235508   0.298   2.697  13.997 -0.2248 -0.0150  0.5339
 4698TIP3    H135509   0.310   2.699  13.902  1.2364 -4.0170  0.4404
 4698TIP3    H235510   0.367   2.753  14.031  0.7754 -0.4076 -0.7552
 4699TIP3   OH235511   0.825   1.649   0.178 -0.0598 -0.0162 -0.1309
 4699TIP3    H135512   0.920   1.641   0.165 -0.0417  0.4296 -0.2920
 4699TIP3    H235513   0.790   1.565   0.149  0.3332 -0.3935  0.4450
 4700TIP3   OH235514   6.417   4.819   1.117  0.5802  1.0183  0.4196
 4700TIP3    H135515   6.510   4.818   1.138  0.8535  1.3684 -0.6988
 4700TIP3    H235516   6.392   4.727   1.111  0.9644  0.9247  0.2675
 4701TIP3   OH235517   5.512   6.662  16.177  0.3742 -0.1719  0.0881
 4701TIP3    H135518   5.605   6.677  16.155 -0.0748  0.5512 -1.4975
 4701TIP3    H235519   5.506   6.567  16.189  1.4971 -0.1292  1.1482
 4702TIP3   OH235520   0.781   5.641  17.088 -0.1262 -0.0201 -0.5216
 4702TIP3    H135521   0.767   5.556  17.045  1.7733 -0.9516  0.5598
 4702TIP3    H235522   0.703   5.653  17.143 -0.9717 -0.4594 -1.5811
 4703TIP3   OH235523   4.566   2.896   2.677  0.0806  0.0705  0.0418
 4703TIP3    H135524   4.563   2.856   2.764  0.5585  0.0152  0.0350
 4703TIP3    H235525   4.644   2.950   2.678  0.0275  0.1549 -0.3185
 4704TIP3   OH235526   4.987   5.793   2.374 -1.0077 -0.2241  0.4896
 4704TIP3    H135527   4.954   5.846   2.301 -0.2027 -0.2748  0.0818
 4704TIP3    H235528   4.937   5.712   2.369 -2.5155  0.5904  1.3368
 4705TIP3   OH235529   0.731   5.253   5.209 -0.3599  0.4258 -0.3205
 4705TIP3    H135530   0.798   5.292   5.153  1.4298  1.1101  2.0859
 4705TIP3    H235531   0.776   5.240   5.293 -2.2530 -2.5833  0.3415
 4706TIP3   OH235532   3.878   0.134  14.777 -0.6960 -0.0426 -0.2333
 4706TIP3    H135533   3.812   0.203  14.785 -1.0874 -0.4612  0.2566
 4706TIP3    H235534   3.962   0.179  14.776 -1.0049  0.5554 -1.5316
 4707TIP3   OH235535   4.979   6.654  11.838  0.6631  0.2169 -0.5378
 4707TIP3    H135536   4.929   6.694  11.910  1.7942  1.4216 -0.3949
 4707TIP3    H235537   5.030   6.586  11.880 -0.3009 -0.5512 -0.5726
 4708TIP3   OH235538   1.287   4.263   0.871  0.0141  0.0149 -0.1601
 4708TIP3    H135539   1.341   4.236   0.797 -0.3757  1.1088 -0.8634
 4708TIP3    H235540   1.215   4.313   0.832 -1.1192 -0.7883  0.8156
 4709TIP3   OH235541   3.696   5.251  11.387 -0.4680  0.2432  0.5424
 4709TIP3    H135542   3.632   5.202  11.438 -1.6971 -0.3507 -1.4289
 4709TIP3    H235543   3.647   5.279  11.309  1.1418  1.6166 -0.0360
 4710TIP3   OH235544   2.855   3.713  15.060 -0.7867 -0.1662 -0.1915
 4710TIP3    H135545   2.859   3.706  15.155  1.0478  0.0626 -0.2222
 4710TIP3    H235546   2.884   3.627  15.029  1.2269  0.5830 -0.5180
 4711TIP3   OH235547   2.431   1.054  15.164 -0.0180  0.1275  0.1824
 4711TIP3    H135548   2.472   0.977  15.202 -1.0080 -1.3572 -1.5941
 4711TIP3    H235549   2.502   1.118  15.157  1.0788 -1.0001  0.6845
 4712TIP3   OH235550   5.945   2.373   6.614  0.1219 -0.2281  0.0390
 4712TIP3    H135551   6.038   2.393   6.627  0.3076 -0.7898 -0.3728
 4712TIP3    H235552   5.899   2.448   6.650  0.6804 -0.7558  2.0131
 4713TIP3   OH235553   1.343   4.596   4.093  0.0579 -0.8226  0.1009
 4713TIP3    H135554   1.311   4.647   4.167  0.2060  0.7832 -0.8765
 4713TIP3    H235555   1.267   4.587   4.035  0.3704 -0.4781 -0.3740
 4714TIP3   OH235556   6.051   4.000   5.031 -1.0002 -0.2333  0.2080
 4714TIP3    H135557   6.074   3.910   5.054 -0.0831  0.0664  0.5282
 4714TIP3    H235558   5.962   3.995   4.997 -0.7059 -1.3531 -0.4144
 4715TIP3   OH235559   1.944   0.644  13.700  0.1019  0.0548  0.0150
 4715TIP3    H135560   1.991   0.603  13.773 -1.0519 -2.3445 -0.4677
 4715TIP3    H235561   1.864   0.679  13.741  0.1424  0.0245  0.1216
 4716TIP3   OH235562   3.930   2.406  16.915  0.4545 -0.5359 -0.0147
 4716TIP3    H135563   3.926   2.462  16.993 -2.0499 -0.1197 -0.3403
 4716TIP3    H235564   3.953   2.319  16.948 -0.6620 -0.3835  1.2282
 4717TIP3   OH235565   1.473   4.760  14.395  0.1993  0.7617  0.1315
 4717TIP3    H135566   1.565   4.786  14.389  0.6769 -0.6010  0.9017
 4717TIP3    H235567   1.468   4.676  14.349 -0.4263  0.3551  0.8920
 4718TIP3   OH235568   0.863   6.505  12.587 -0.2763  0.3138  0.1079
 4718TIP3    H135569   0.772   6.487  12.610 -0.4778 -0.3959 -1.1440
 4718TIP3    H235570   0.859   6.533  12.496  0.7445  0.5050  0.1157
 4719TIP3   OH235571   3.893   3.862  13.137 -0.1319 -0.3880  0.2229
 4719TIP3    H135572   3.828   3.810  13.090 -0.0195 -0.1788 -0.1643
 4719TIP3    H235573   3.856   3.873  13.225  0.7781 -2.9413  1.0379
 4720TIP3   OH235574   2.423   3.430   2.957  0.2895 -0.0855 -0.7884
 4720TIP3    H135575   2.405   3.480   3.036 -0.8608 -0.6187 -0.6883
 4720TIP3    H235576   2.436   3.496   2.889  0.1296  0.3691 -0.3814
 4721TIP3   OH235577   0.868   1.147  13.493  0.5480 -0.4705 -0.0066
 4721TIP3    H135578   0.944   1.195  13.525  0.8425 -2.2561  2.1860
 4721TIP3    H235579   0.883   1.137  13.399 -0.4193  5.1763 -1.1738
 4722TIP3   OH235580   4.278   1.517  14.597 -0.4605 -0.3262 -0.2170
 4722TIP3    H135581   4.359   1.469  14.584 -1.0907 -1.1739 -1.3066
 4722TIP3    H235582   4.285   1.593  14.539  0.8222  1.3700  2.0092
 4723TIP3   OH235583   2.033   4.032   1.253  0.1116 -0.7377  0.0907
 4723TIP3    H135584   2.042   3.958   1.193 -1.1513 -1.4141  0.6921
 4723TIP3    H235585   1.978   3.998   1.324  0.4182  0.4565  0.9282
 4724TIP3   OH235586   3.147   5.456  11.614  0.5548 -0.4875 -0.6107
 4724TIP3    H135587   3.164   5.449  11.520  0.7960  1.3754 -0.7285
 4724TIP3    H235588   3.228   5.489  11.651  0.4622 -1.2144  0.2777
 4725TIP3   OH235589   2.989   6.258   3.969  0.7969  0.0122  0.0349
 4725TIP3    H135590   2.930   6.295   4.034  2.6078  2.1645  0.5451
 4725TIP3    H235591   3.007   6.330   3.908  0.9374 -1.3087 -1.5680
 4726TIP3   OH235592   2.136   3.485  16.909 -0.2546  0.2086  0.0713
 4726TIP3    H135593   2.085   3.500  16.830 -0.7771 -0.5670  0.2496
 4726TIP3    H235594   2.086   3.527  16.979  0.4570  1.3211 -0.0775
 4727TIP3   OH235595   4.529   4.688   5.907  0.1173 -0.1463  0.2787
 4727TIP3    H135596   4.443   4.658   5.876  1.0545 -1.3891 -1.2589
 4727TIP3    H235597   4.544   4.638   5.988 -0.2975 -0.4907  0.1479
 4728TIP3   OH235598   3.090   6.539  16.824 -0.3513 -0.0123  0.0371
 4728TIP3    H135599   3.069   6.631  16.810 -2.5254 -0.4258  0.2628
 4728TIP3    H235600   3.104   6.504  16.736 -1.0985  0.2104 -0.1790
 4729TIP3   OH235601   6.012   6.741  16.003  0.0583 -0.0493  0.8397
 4729TIP3    H135602   6.081   6.804  15.986  0.6086 -1.4576 -3.2912
 4729TIP3    H235603   6.047   6.684  16.072  2.5800  0.0235 -0.2682
 4730TIP3   OH235604   0.839   1.344  12.331  0.5962  0.3828 -0.0406
 4730TIP3    H135605   0.750   1.338  12.294  1.3173  1.1663 -2.0603
 4730TIP3    H235606   0.825   1.362  12.424 -1.4074  2.1985 -0.5956
 4731TIP3   OH235607   1.708   4.097   0.641  0.0979  0.2272  0.3131
 4731TIP3    H135608   1.616   4.085   0.667 -0.1368  0.3201 -0.4566
 4731TIP3    H235609   1.744   4.009   0.639 -0.0645  0.1603  0.2990
 4732TIP3   OH235610   4.352   3.217   5.383  0.2339 -0.1371 -0.8619
 4732TIP3    H135611   4.322   3.225   5.474 -0.3343  0.9465 -1.1292
 4732TIP3    H235612   4.275   3.236   5.331  0.6562 -0.3706 -1.5817
 4733TIP3   OH235613   3.981   4.595  15.188 -0.3321  0.0004  0.5937
 4733TIP3    H135614   3.994   4.503  15.166 -0.8586  0.4690 -2.1041
 4733TIP3    H235615   4.068   4.634  15.177 -0.4420  0.1006  0.0518
 4734TIP3   OH235616   2.226   2.808   2.659  0.5605 -0.1006  0.2059
 4734TIP3    H135617   2.150   2.864   2.672  1.1096  1.2116 -1.7594
 4734TIP3    H235618   2.206   2.757   2.581  1.3920 -0.3125  0.1220
 4735TIP3   OH235619   6.732   0.725  12.522  0.0182 -0.0341 -0.0934
 4735TIP3    H135620   6.725   0.631  12.537 -0.0700 -0.0203 -0.0463
 4735TIP3    H235621   6.715   0.736  12.429 -3.5221  0.2727  0.4361
 4736TIP3   OH235622   4.741   6.328   0.748 -0.7732 -0.2806  0.0996
 4736TIP3    H135623   4.755   6.352   0.656  1.5978 -2.7054 -0.2790
 4736TIP3    H235624   4.802   6.384   0.797  0.2842 -1.1588 -0.1707
 4737TIP3   OH235625   3.062   2.636  14.199  0.2600  0.4143 -0.0191
 4737TIP3    H135626   2.984   2.581  14.197  0.4598  0.1324 -1.8095
 4737TIP3    H235627   3.030   2.725  14.189  0.1215  0.3868  0.1719
 4738TIP3   OH235628   3.972   0.823  16.523 -0.3351 -0.1245 -0.1366
 4738TIP3    H135629   4.053   0.871  16.542 -0.9442  1.1847 -0.7754
 4738TIP3    H235630   3.979   0.744  16.576  1.3800 -0.0543 -0.2032
 4739TIP3   OH235631   6.752   3.607  16.618 -0.5910  0.0944  0.5149
 4739TIP3    H135632   6.705   3.554  16.553 -0.0733  0.1278  0.1108
 4739TIP3    H235633   6.721   3.697  16.602 -3.4360 -0.3117  2.8599
 4740TIP3   OH235634   4.387   6.070   1.043  0.4966  0.2489  0.3909
 4740TIP3    H135635   4.345   6.138   0.990 -0.0572 -0.7608 -0.5065
 4740TIP3    H235636   4.467   6.047   0.994 -0.9130 -1.9574 -1.0547
 4741TIP3   OH235637   0.941   4.915   0.674  0.4327 -0.6334  0.3123
 4741TIP3    H135638   1.036   4.923   0.667  0.4985 -1.1899  0.5261
 4741TIP3    H235639   0.909   4.930   0.585  0.8014 -1.5613  0.0139
 4742TIP3   OH235640   4.403   4.356  14.711 -0.5112  1.0911  0.1291
 4742TIP3    H135641   4.464   4.378  14.642  1.1642 -0.6542  0.9680
 4742TIP3    H235642   4.439   4.277  14.752 -1.6328  1.7937  2.7133
 4743TIP3   OH235643   6.418   0.704  15.259  0.4882 -0.2942  0.4222
 4743TIP3    H135644   6.346   0.692  15.321 -1.3907  0.4050 -1.5050
 4743TIP3    H235645   6.446   0.795  15.273  0.2606 -0.2249  0.4325
 4744TIP3   OH235646   5.696   5.531  14.138 -0.2023 -0.2400  1.1500
 4744TIP3    H135647   5.728   5.441  14.147 -2.5815 -1.2383  0.4312
 4744TIP3    H235648   5.610   5.530  14.179 -1.1260  1.1742 -0.6363
 4745TIP3   OH235649   3.320   4.822  14.220 -0.0841 -0.0789 -0.7428
 4745TIP3    H135650   3.279   4.902  14.252 -0.7803 -0.1827 -1.3601
 4745TIP3    H235651   3.252   4.779  14.168  0.0729 -1.3676  0.0674
 4746TIP3   OH235652   4.649   3.112  13.902  0.3633  0.3906 -0.0328
 4746TIP3    H135653   4.709   3.088  13.973 -0.0520 -0.0460  0.1821
 4746TIP3    H235654   4.667   3.048  13.833  0.9200  0.9519 -0.4101
 4747TIP3   OH235655   0.158   4.230   0.777 -0.6177 -0.1227 -0.0559
 4747TIP3    H135656   0.139   4.199   0.689  0.9332 -1.3887 -0.0002
 4747TIP3    H235657   0.228   4.172   0.808  0.8953  2.0532  0.9159
 4748TIP3   OH235658   3.598   5.299  16.614 -0.1766  0.0420  0.1472
 4748TIP3    H135659   3.591   5.293  16.709 -1.1486  0.5399  0.1242
 4748TIP3    H235660   3.601   5.393  16.596  0.7847 -0.0586 -0.2777
 4749TIP3   OH235661   3.151   1.300  15.531  0.2349  0.0908  0.1871
 4749TIP3    H135662   3.075   1.264  15.484  0.6576 -0.5196 -0.0489
 4749TIP3    H235663   3.139   1.270  15.621  0.5280 -0.5595  0.0138
 4750TIP3   OH235664   5.383   3.910  12.415 -0.0504  0.2816 -0.6620
 4750TIP3    H135665   5.390   3.843  12.347  0.1664  1.4062 -1.7729
 4750TIP3    H235666   5.440   3.981  12.385 -0.8076  1.2576  0.1407
 4751TIP3   OH235667   1.194   1.640  11.490 -0.1448  0.3291 -0.5805
 4751TIP3    H135668   1.279   1.597  11.498 -0.9143 -1.0916  0.3566
 4751TIP3    H235669   1.190   1.700  11.565  0.5647  1.4648 -1.4031
 4752TIP3   OH235670   3.131   1.469  12.099  0.1157  0.5482 -0.1346
 4752TIP3    H135671   3.063   1.428  12.153  1.1242  1.1269  1.6850
 4752TIP3    H235672   3.085   1.539  12.053 -1.0970 -0.9585 -1.3140
 4753TIP3   OH235673   2.483   2.495   3.362  0.4231 -0.0665  0.0603
 4753TIP3    H135674   2.481   2.529   3.451 -0.3808 -1.4671  0.6205
 4753TIP3    H235675   2.557   2.433   3.362  0.1972 -0.3381 -0.1367
 4754TIP3   OH235676   6.239   5.390   1.911 -0.1083  0.0753 -0.3227
 4754TIP3    H135677   6.187   5.323   1.956 -1.2802  0.7583 -0.6319
 4754TIP3    H235678   6.243   5.360   1.820  2.1104 -1.2120  0.1049
 4755TIP3   OH235679   2.148   5.174   1.338 -0.2587  0.0796  0.6152
 4755TIP3    H135680   2.152   5.110   1.267  1.5777  0.8609 -0.0762
 4755TIP3    H235681   2.116   5.254   1.296 -0.1245  0.2778  0.8859
 4756TIP3   OH235682   0.743   2.852   2.825  0.1680  0.2891 -0.1882
 4756TIP3    H135683   0.680   2.913   2.863  1.1765  3.7835 -3.5095
 4756TIP3    H235684   0.828   2.880   2.862  0.2845 -2.0802  1.5496
 4757TIP3   OH235685   5.120   5.020   0.113  0.3334 -0.0847  0.2580
 4757TIP3    H135686   5.070   5.091   0.154 -0.2754 -0.4178  0.1071
 4757TIP3    H235687   5.073   5.001   0.032 -0.7012 -1.9795  1.2191
 4758TIP3   OH235688   0.702   3.462  17.019 -0.2748 -0.5513 -0.2977
 4758TIP3    H135689   0.768   3.421  16.963  0.4978  3.1360 -2.4260
 4758TIP3    H235690   0.620   3.417  16.997  0.3987 -0.6945 -2.8642
 4759TIP3   OH235691   5.313   4.479  13.048 -0.4292 -0.4732  0.2556
 4759TIP3    H135692   5.390   4.477  12.991 -0.1667  0.3625  0.5796
 4759TIP3    H235693   5.298   4.387  13.070  1.1434 -0.5601  1.0732
 4760TIP3   OH235694   4.723   0.466   4.085  0.0202 -0.0442 -0.3323
 4760TIP3    H135695   4.650   0.507   4.039  0.0752 -1.4821 -1.8306
 4760TIP3    H235696   4.705   0.372   4.078  1.1970 -0.3666  0.6793
 4761TIP3   OH235697   5.606   3.347  15.500 -0.4129  0.2755  0.3869
 4761TIP3    H135698   5.547   3.412  15.463 -0.8332  0.4166  1.2949
 4761TIP3    H235699   5.635   3.295  15.425 -1.1276  0.6546 -0.1543
 4762TIP3   OH235700   2.172   2.756   5.757  0.1536 -0.4763  0.6110
 4762TIP3    H135701   2.205   2.812   5.828  1.4377 -0.8630  0.3399
 4762TIP3    H235702   2.233   2.682   5.754 -0.8851 -1.3444  0.2365
 4763TIP3   OH235703   1.564   0.372   5.473 -0.0096 -0.1643 -0.0172
 4763TIP3    H135704   1.647   0.385   5.427 -0.2078  0.7464 -0.1386
 4763TIP3    H235705   1.584   0.308   5.541  0.5956 -0.5628 -0.5571
 4764TIP3   OH235706   1.168   5.681  16.214  0.5104 -0.3716 -0.2179
 4764TIP3    H135707   1.111   5.606  16.225 -0.7265  0.5535 -0.1074
 4764TIP3    H235708   1.196   5.704  16.302 -2.7041  1.9530  0.3632
 4765TIP3   OH235709   4.727   4.691  11.960 -0.4903  0.0986 -0.2219
 4765TIP3    H135710   4.677   4.609  11.961 -2.4906  1.2621  0.6070
 4765TIP3    H235711   4.792   4.678  11.890 -2.8290 -1.0180 -2.3527
 4766TIP3   OH235712   4.838   0.534   1.856  0.6716 -0.4722  0.1954
 4766TIP3    H135713   4.753   0.497   1.879  0.5028  0.4619  1.1530
 4766TIP3    H235714   4.851   0.606   1.919  1.7555 -0.0253 -0.5070
 4767TIP3   OH235715   5.860   4.492  14.443 -0.2314 -0.0252 -0.1386
 4767TIP3    H135716   5.814   4.415  14.410 -0.6429  1.2248 -2.8223
 4767TIP3    H235717   5.806   4.566  14.414  0.3402  1.3126  2.0247
 4768TIP3   OH235718   6.451   2.733  15.492  0.1671 -0.0427 -0.2869
 4768TIP3    H135719   6.540   2.700  15.477  1.0637  1.5456  1.1116
 4768TIP3    H235720   6.432   2.786  15.416 -0.4268 -1.9390 -1.5292
 4769TIP3   OH235721   5.819   2.294  10.822 -0.7244 -0.2575 -0.6536
 4769TIP3    H135722   5.783   2.334  10.743 -1.2369 -0.2898 -0.4361
 4769TIP3    H235723   5.869   2.364  10.864 -0.7674 -0.1330 -0.8109
 4770TIP3   OH235724   5.410   5.645   1.431  0.2097 -0.2274 -0.2936
 4770TIP3    H135725   5.333   5.674   1.481  1.3600 -0.4554  1.7088
 4770TIP3    H235726   5.376   5.579   1.371 -1.6014  1.6176 -1.4245
 4771TIP3   OH235727   2.162   2.141  17.055  0.0005 -0.5191 -0.1169
 4771TIP3    H135728   2.134   2.231  17.075 -1.1462 -0.9814  0.4317
 4771TIP3    H235729   2.192   2.145  16.964  2.3557  0.9502  0.6165
 4772TIP3   OH235730   5.850   4.528  12.310  0.3375  0.5403 -0.8580
 4772TIP3    H135731   5.875   4.602  12.255  1.3622  1.0589  0.2578
 4772TIP3    H235732   5.925   4.469  12.307  0.3715  0.5318 -0.1067
 4773TIP3   OH235733   5.546   5.213  12.690 -0.3678 -0.0030 -0.1361
 4773TIP3    H135734   5.548   5.298  12.645  1.5925 -0.0827 -0.3099
 4773TIP3    H235735   5.525   5.235  12.781  0.2803  0.7149 -0.1428
 4774TIP3   OH235736   6.653   0.353   2.670 -0.2653 -0.6410 -0.3209
 4774TIP3    H135737   6.604   0.277   2.702 -0.2363 -0.0685  1.1491
 4774TIP3    H235738   6.735   0.317   2.637  0.0726 -1.1937  1.0570
 4775TIP3   OH235739   0.358   5.392   2.346 -0.0936 -0.2546 -0.3997
 4775TIP3    H135740   0.411   5.317   2.373 -1.2596 -0.9385  0.0622
 4775TIP3    H235741   0.299   5.357   2.278 -0.5707  0.2633 -0.2647
 4776TIP3   OH235742   2.859   5.379  14.049 -0.2591 -0.7342  0.1352
 4776TIP3    H135743   2.815   5.373  13.964 -1.7879  1.1929  0.7258
 4776TIP3    H235744   2.933   5.437  14.033  0.1001 -1.2443 -0.0959
 4777TIP3   OH235745   0.532   4.142   5.510  0.0889 -0.6114  0.1727
 4777TIP3    H135746   0.560   4.231   5.485  1.0261 -1.2244 -1.0873
 4777TIP3    H235747   0.446   4.132   5.470 -0.2406 -0.1107  0.7323
 4778TIP3   OH235748   3.181   6.143   3.149 -0.3238  0.3533 -0.6945
 4778TIP3    H135749   3.206   6.230   3.117  0.4763  0.9785  1.4851
 4778TIP3    H235750   3.264   6.095   3.153 -0.0868  0.8567  1.9639
 4779TIP3   OH235751   6.420   5.306  16.703 -0.1761  0.2216 -0.3764
 4779TIP3    H135752   6.473   5.261  16.638 -1.3365 -0.9989 -0.5190
 4779TIP3    H235753   6.367   5.237  16.743 -1.2792  1.3191  0.1224
 4780TIP3   OH235754   3.097   4.105  13.930 -0.6255  0.3447 -0.2532
 4780TIP3    H135755   3.101   4.050  14.008  1.8450 -0.5412 -0.9294
 4780TIP3    H235756   3.065   4.046  13.861  0.5780  0.1439 -0.6531
 4781TIP3   OH235757   5.925   4.438  17.169  0.3545 -0.5084 -0.2040
 4781TIP3    H135758   5.977   4.382  17.111  0.7184  0.3528 -0.7270
 4781TIP3    H235759   5.990   4.481  17.226  0.3970  1.5306 -1.6840
 4782TIP3   OH235760   6.080   1.663   5.847 -0.3206  0.2504  0.0288
 4782TIP3    H135761   6.134   1.584   5.849  1.0776  1.1643 -0.1227
 4782TIP3    H235762   5.991   1.631   5.836  0.3016 -1.2794 -0.9451
 4783TIP3   OH235763   5.659   2.866  16.906  0.0105 -0.0368 -0.1865
 4783TIP3    H135764   5.708   2.786  16.922 -1.6246 -1.2465 -0.8699
 4783TIP3    H235765   5.573   2.849  16.945 -0.8766  0.7474 -1.7065
 4784TIP3   OH235766   3.491   5.518   5.705  0.0800 -0.2330 -0.2361
 4784TIP3    H135767   3.473   5.566   5.786 -0.7237 -0.0978 -0.4890
 4784TIP3    H235768   3.472   5.580   5.635  0.1442 -0.5557 -0.5415
 4785TIP3   OH235769   0.313   0.302   0.672  0.6699  0.0158  0.2693
 4785TIP3    H135770   0.334   0.395   0.679  0.7019 -0.0597  1.5572
 4785TIP3    H235771   0.393   0.261   0.641  0.1516  0.5986 -1.9843
 4786TIP3   OH235772   2.617   6.509  16.520  0.2399  0.6745 -0.1139
 4786TIP3    H135773   2.636   6.415  16.521 -2.7808 -0.0520 -0.2399
 4786TIP3    H235774   2.702   6.551  16.530  1.8122 -2.0404 -1.0910
 4787TIP3   OH235775   0.867   2.720  16.525  0.0885  0.4221  0.5981
 4787TIP3    H135776   0.889   2.642  16.474 -1.4738  0.4865 -0.2483
 4787TIP3    H235777   0.863   2.690  16.615  2.7324  0.2610  0.7521
 4788TIP3   OH235778   2.224   4.189  14.421 -0.1970 -0.4238 -0.3679
 4788TIP3    H135779   2.295   4.124  14.413  1.6326  1.4267 -0.0452
 4788TIP3    H235780   2.165   4.170  14.348  2.1857 -0.2556 -2.4612
 4789TIP3   OH235781   5.566   6.335   0.481 -0.3733  0.3977  0.3461
 4789TIP3    H135782   5.543   6.426   0.502  2.4236  1.1967  0.4129
 4789TIP3    H235783   5.661   6.338   0.466 -0.2800 -2.4585 -0.0957
 4790TIP3   OH235784   6.546   5.079   3.255 -0.4632  0.5760 -0.5918
 4790TIP3    H135785   6.563   5.120   3.340  1.0301  0.1597 -0.6705
 4790TIP3    H235786   6.623   5.100   3.203 -0.8270 -0.1992 -1.4605
 4791TIP3   OH235787   3.752   2.089  14.529 -0.5061  0.4763 -0.0072
 4791TIP3    H135788   3.687   2.116  14.593 -0.5890 -1.2383  0.6914
 4791TIP3    H235789   3.706   2.090  14.445 -1.6058 -1.0816  0.5208
 4792TIP3   OH235790   4.145   6.238  17.029 -0.0807 -0.0094 -0.0199
 4792TIP3    H135791   4.099   6.310  16.986 -2.5112 -0.3599  1.8034
 4792TIP3    H235792   4.159   6.174  16.959 -2.3753  0.1480 -0.7169
 4793TIP3   OH235793   1.227   6.244  15.126  0.2759 -0.2019 -0.0959
 4793TIP3    H135794   1.310   6.278  15.161 -0.3463  2.5716 -1.0422
 4793TIP3    H235795   1.166   6.248  15.200  0.0302  1.5916 -0.3569
 4794TIP3   OH235796   0.469   2.812   4.888 -0.0568 -0.2696 -0.3100
 4794TIP3    H135797   0.441   2.894   4.848  0.5052  0.3154  0.4476
 4794TIP3    H235798   0.400   2.791   4.951  0.3751  0.3075  0.3878
 4795TIP3   OH235799   0.361   4.048  13.049 -0.0779 -0.7892 -0.0170
 4795TIP3    H135800   0.390   4.082  13.133 -1.1218  0.0629  0.0179
 4795TIP3    H235801   0.328   3.960  13.068  1.4540 -1.3688  0.1091
 4796TIP3   OH235802   2.791   3.060  16.060 -0.0994  0.1494 -0.2316
 4796TIP3    H135803   2.878   3.026  16.042  0.7753  2.9109 -1.8161
 4796TIP3    H235804   2.805   3.130  16.124 -0.8592  1.6954 -1.6692
 4797TIP3   OH235805   1.938   0.157   3.845 -0.3899 -0.4086  0.3361
 4797TIP3    H135806   1.863   0.217   3.839  0.3476  0.4812 -0.0627
 4797TIP3    H235807   1.932   0.122   3.935 -0.0017  1.3692  1.0959
 4798TIP3   OH235808   2.193   5.374  12.587 -0.1620 -0.3083  0.4997
 4798TIP3    H135809   2.288   5.363  12.578 -0.2204 -1.1953  0.9090
 4798TIP3    H235810   2.178   5.467  12.569  0.6626 -0.3640 -0.5874
 4799TIP3   OH235811   4.683   3.884   0.409  0.3329  0.0097 -0.0510
 4799TIP3    H135812   4.718   3.847   0.328 -1.1469  0.9700 -1.1658
 4799TIP3    H235813   4.602   3.836   0.425  1.4314 -1.3692  1.8648
 4800TIP3   OH235814   5.477   0.867  12.046 -0.2246  0.1048 -0.3610
 4800TIP3    H135815   5.414   0.806  12.084  0.0974  0.6627  1.1216
 4800TIP3    H235816   5.530   0.812  11.987 -2.1043 -0.3537 -1.7281
 4801TIP3   OH235817   3.025   2.425   1.606 -0.0952 -0.4320 -0.0208
 4801TIP3    H135818   2.977   2.344   1.625 -0.2795 -0.1280  0.8714
 4801TIP3    H235819   3.099   2.397   1.553 -0.6322 -1.0623 -0.4603
 4802TIP3   OH235820   0.026   2.573  17.121  0.2332 -0.2083  0.0439
 4802TIP3    H135821  -0.021   2.518  17.184  1.8076 -2.0197 -0.2877
 4802TIP3    H235822   0.118   2.562  17.143  0.8313 -0.7753 -2.4471
 4803TIP3   OH235823   5.345   1.114  14.276  0.0798 -0.3488 -0.7709
 4803TIP3    H135824   5.377   1.076  14.358 -1.3667  0.8448  0.3972
 4803TIP3    H235825   5.329   1.039  14.219 -2.9019 -1.6414  1.5153
 4804TIP3   OH235826   0.348   2.343  15.466  0.0049 -0.3248 -0.0215
 4804TIP3    H135827   0.314   2.433  15.475  1.5695  0.4926 -1.7190
 4804TIP3    H235828   0.279   2.288  15.505 -2.4755  1.3523 -1.7279
 4805TIP3   OH235829   0.103   0.688  13.155  0.2833 -0.3558 -0.1296
 4805TIP3    H135830   0.043   0.758  13.129  0.5928  0.9019  2.2833
 4805TIP3    H235831   0.183   0.734  13.183 -0.3180 -1.3812  3.7397
 4806TIP3   OH235832   5.580   3.902   2.924  0.5317 -0.0264 -0.2839
 4806TIP3    H135833   5.530   3.932   2.999  2.2457 -1.2581  1.4463
 4806TIP3    H235834   5.646   3.970   2.909  1.8497 -0.9437  1.0648
 4807TIP3   OH235835   1.780   3.583  12.352  0.4397 -0.2034  0.0467
 4807TIP3    H135836   1.777   3.613  12.261 -0.2336 -0.8159 -0.1444
 4807TIP3    H235837   1.872   3.585  12.375  0.6342 -0.2034 -0.7088
 4808TIP3   OH235838   3.185   2.343  14.473  0.0625 -0.2459  0.3358
 4808TIP3    H135839   3.181   2.435  14.500 -0.7867 -0.2956  0.3943
 4808TIP3    H235840   3.096   2.310  14.486 -0.2115 -0.4816 -1.7964
 4809TIP3   OH235841   4.206   5.589   2.125 -0.6102  0.0897  0.2639
 4809TIP3    H135842   4.178   5.673   2.089 -0.2677  0.3761  0.6554
 4809TIP3    H235843   4.127   5.551   2.163 -0.5567  0.6955  0.9829
 4810TIP3   OH235844   1.874   5.391  16.838 -0.7674  0.4237  0.3513
 4810TIP3    H135845   1.950   5.333  16.844 -0.7254  0.4749  0.3191
 4810TIP3    H235846   1.808   5.339  16.793 -0.3883  0.7456 -0.6138
 4811TIP3   OH235847   5.537   5.550   0.245 -0.3291  0.1017  0.1068
 4811TIP3    H135848   5.618   5.578   0.203 -1.2095  1.7816 -0.5414
 4811TIP3    H235849   5.530   5.457   0.223  0.7952  0.2221 -0.8564
 4812TIP3   OH235850   2.520   6.337  12.631 -0.2334 -0.4532  0.6079
 4812TIP3    H135851   2.457   6.301  12.568  0.1676  0.7946 -0.5361
 4812TIP3    H235852   2.470   6.402  12.679  0.3637  1.2563 -0.9715
 4813TIP3   OH235853   2.302   5.374  16.418 -0.6475 -0.1175 -0.0293
 4813TIP3    H135854   2.321   5.451  16.364  0.8925  1.4552  2.5214
 4813TIP3    H235855   2.359   5.305  16.382  1.5297  1.3311  0.4092
 4814TIP3   OH235856   1.434   1.769   5.896  0.8684  0.3363  0.2250
 4814TIP3    H135857   1.343   1.777   5.868  0.6339 -0.1935  0.8080
 4814TIP3    H235858   1.461   1.859   5.914  1.0852  0.7288 -1.7960
 4815TIP3   OH235859   0.042   6.114  15.680  0.2230 -0.8738 -0.6510
 4815TIP3    H135860   0.032   6.079  15.592  2.7467 -0.5954 -1.1221
 4815TIP3    H235861   0.035   6.209  15.670 -3.0010 -0.8898  0.0885
 4816TIP3   OH235862   2.655   6.511   0.751 -0.2402 -0.0296  0.4314
 4816TIP3    H135863   2.671   6.453   0.825 -1.6616 -1.4736 -0.3445
 4816TIP3    H235864   2.728   6.572   0.753  0.4164 -0.7993  2.2729
 4817TIP3   OH235865   6.358   1.114   1.011 -0.4222 -0.2184 -0.5213
 4817TIP3    H135866   6.270   1.150   1.025 -0.3638 -0.3799  0.3307
 4817TIP3    H235867   6.380   1.073   1.095  1.5907  2.2564  0.2955
 4818TIP3   OH235868   1.646   2.083   1.589 -0.1906  0.5908 -0.0963
 4818TIP3    H135869   1.600   2.016   1.640 -1.1532  2.8474  2.1737
 4818TIP3    H235870   1.577   2.125   1.537  0.3394  0.1738 -1.1812
 4819TIP3   OH235871   3.491   4.604   4.758 -0.1886  0.4354  0.2427
 4819TIP3    H135872   3.452   4.643   4.679  0.3437  1.7903  0.6231
 4819TIP3    H235873   3.467   4.511   4.753 -0.7405  0.6248 -1.1597
 4820TIP3   OH235874   5.087   4.523  11.630  0.0916 -0.1945 -0.1782
 4820TIP3    H135875   5.024   4.499  11.562 -0.9328 -1.1260  1.0435
 4820TIP3    H235876   5.152   4.452  11.629 -0.0243 -0.3031 -0.0726
 4821TIP3   OH235877   3.726   5.227  14.421 -0.0585  0.1623 -0.0217
 4821TIP3    H135878   3.699   5.174  14.347 -1.8070  0.9988 -0.0576
 4821TIP3    H235879   3.729   5.317  14.387 -0.9109  0.5612  0.8674
 4822TIP3   OH235880   4.812   2.695  15.752 -0.3636  0.1959 -0.3945
 4822TIP3    H135881   4.853   2.650  15.678  2.7839  2.7471 -0.4460
 4822TIP3    H235882   4.801   2.627  15.818  1.4786 -1.2150 -1.4421
 4823TIP3   OH235883   1.743   6.624  14.155 -0.5759 -0.1215 -0.6449
 4823TIP3    H135884   1.735   6.717  14.134  0.1808  0.0169 -0.3377
 4823TIP3    H235885   1.829   6.599  14.122 -0.1298 -0.3342  0.6368
 4824TIP3   OH235886   3.390   5.896   5.320 -0.1455  0.4013 -0.0681
 4824TIP3    H135887   3.408   5.971   5.376  1.8743  0.2158 -0.3921
 4824TIP3    H235888   3.366   5.826   5.381 -0.0175  0.7496  0.3854
 4825TIP3   OH235889   2.620   6.730  13.469 -0.1328  0.5599 -0.0485
 4825TIP3    H135890   2.584   6.774  13.546 -1.3872 -1.4428  0.6174
 4825TIP3    H235891   2.563   6.758  13.397 -1.6158 -0.7054  0.5648
 4826TIP3   OH235892   5.287   1.918  16.593  0.1719  0.0783 -0.2406
 4826TIP3    H135893   5.340   1.873  16.659 -1.5927 -0.7455  0.6782
 4826TIP3    H235894   5.212   1.860  16.579  0.1892  0.5257 -2.5582
 4827TIP3   OH235895   0.048   0.086  11.480  0.4670 -0.2784 -0.1953
 4827TIP3    H135896   0.101   0.113  11.555 -0.0372  1.1312 -0.3217
 4827TIP3    H235897   0.106   0.031  11.428  2.1289  1.8446 -0.7352
 4828TIP3   OH235898   5.524   6.043  15.262  0.6508  0.0846  0.0805
 4828TIP3    H135899   5.451   5.995  15.301 -0.6854  0.7201 -1.5323
 4828TIP3    H235900   5.539   6.116  15.322  0.0345 -0.1215  0.4971
 4829TIP3   OH235901   1.145   1.893   1.925  0.1459  0.4286 -0.4246
 4829TIP3    H135902   1.145   1.936   1.839 -2.6949 -2.4433 -2.0728
 4829TIP3    H235903   1.199   1.815   1.912 -0.7841 -0.3353  0.2126
 4830TIP3   OH235904   1.945   0.235   2.459  0.0024 -0.1482 -0.0825
 4830TIP3    H135905   1.857   0.273   2.458  0.2355  0.4250  0.2989
 4830TIP3    H235906   2.001   0.305   2.492  0.7593 -0.1839 -1.2222
 4831TIP3   OH235907   3.882   0.710  12.943  0.2745  0.9623  0.0664
 4831TIP3    H135908   3.920   0.658  12.872  0.6223  0.3191  0.7043
 4831TIP3    H235909   3.788   0.701  12.932  0.3281  0.7418 -0.2268
 4832TIP3   OH235910   1.442   5.103   5.982 -0.1680  0.2197 -0.2525
 4832TIP3    H135911   1.465   5.166   6.050  1.6719 -0.5664 -0.0761
 4832TIP3    H235912   1.369   5.053   6.019  1.4807 -0.9146  1.6806
 4833TIP3   OH235913   6.280   0.022   0.247 -0.2960  0.1727 -0.5431
 4833TIP3    H135914   6.241   0.081   0.312  0.8327  1.3777 -0.9150
 4833TIP3    H235915   6.373   0.020   0.269 -0.2045 -0.9085 -0.9844
 4834TIP3   OH235916   3.348   4.358  10.439 -0.3931 -0.2565 -0.5365
 4834TIP3    H135917   3.381   4.441  10.475 -1.9895  1.1602 -2.1198
 4834TIP3    H235918   3.256   4.375  10.419 -0.5457 -2.1485 -1.7076
 4835TIP3   OH235919   2.569   3.231   3.637  0.6693  0.1794  0.3860
 4835TIP3    H135920   2.484   3.191   3.655  0.8179  0.3047  1.3756
 4835TIP3    H235921   2.548   3.318   3.602  0.3965  0.5524  1.4548
 4836TIP3   OH235922   2.434   2.923   1.043 -0.1385  0.2484  0.6737
 4836TIP3    H135923   2.505   2.946   0.983 -0.0147  0.4826  0.9080
 4836TIP3    H235924   2.479   2.894   1.123 -0.3087  0.7735  0.9638
 4837TIP3   OH235925   4.729   6.434  16.505  0.1073 -0.2447 -0.4134
 4837TIP3    H135926   4.709   6.361  16.564  1.6097 -1.2826 -1.1099
 4837TIP3    H235927   4.804   6.478  16.547  2.0991 -1.8197 -2.1140
 4838TIP3   OH235928   3.508   6.162   4.932  0.2098  0.2739  0.8225
 4838TIP3    H135929   3.418   6.140   4.955  0.0535 -1.0027 -0.8335
 4838TIP3    H235930   3.559   6.145   5.012 -1.1080  1.9568  2.0892
 4839TIP3   OH235931   0.385   1.098   1.614  0.4331  0.3168  0.2309
 4839TIP3    H135932   0.407   1.005   1.611  2.1954  0.7077 -0.3659
 4839TIP3    H235933   0.333   1.113   1.535  0.7910 -0.0309 -0.0746
 4840TIP3   OH235934   3.039   4.135  16.639 -0.1116  0.2329 -0.2834
 4840TIP3    H135935   3.023   4.058  16.584 -0.4214 -0.4533  0.7531
 4840TIP3    H235936   3.133   4.132  16.658 -0.4091 -0.9097  1.2014
 4841TIP3   OH235937   5.909   1.240   5.739  0.1234 -0.4415 -0.0647
 4841TIP3    H135938   5.840   1.205   5.683  0.5869 -0.6297 -0.5354
 4841TIP3    H235939   5.981   1.178   5.729  1.5806  1.4014 -2.2071
 4842TIP3   OH235940   3.113   1.411   0.884  0.5161  0.0210 -0.2369
 4842TIP3    H135941   3.125   1.345   0.953 -1.1802 -1.4900 -1.3010
 4842TIP3    H235942   3.030   1.453   0.906  0.5429  0.3321 -0.7260
 4843TIP3   OH235943   4.341   0.785   0.500  0.3146 -0.0426  0.1478
 4843TIP3    H135944   4.412   0.783   0.437 -0.1974  1.4907 -0.5038
 4843TIP3    H235945   4.370   0.726   0.570  0.7917 -1.9778 -1.5670
 4844TIP3   OH235946   3.102   6.088  15.404 -0.4492 -0.0281 -0.8877
 4844TIP3    H135947   3.187   6.047  15.422  0.2448  0.5134 -2.7781
 4844TIP3    H235948   3.123   6.179  15.385 -1.4971  0.1774 -1.0966
 4845TIP3   OH235949   0.932   3.047   5.517 -0.3304  0.1921  0.5955
 4845TIP3    H135950   0.996   3.018   5.452 -0.4162 -0.8756  0.9667
 4845TIP3    H235951   0.871   3.103   5.468 -0.2917 -0.4534 -0.2150
 4846TIP3   OH235952   1.752   1.651  16.680  0.2204 -0.1118  0.2973
 4846TIP3    H135953   1.829   1.599  16.701  0.2027 -1.7078 -2.9303
 4846TIP3    H235954   1.787   1.732  16.643  0.2759  0.4049  1.4428
 4847TIP3   OH235955   0.622   4.559  12.602 -0.4359 -0.2097 -0.2347
 4847TIP3    H135956   0.567   4.490  12.641 -2.5080  1.8532  0.7173
 4847TIP3    H235957   0.711   4.534  12.625 -1.0977 -2.6158 -0.0288
 4848TIP3   OH235958   4.324   0.734  14.590  0.6206 -0.3127  0.5477
 4848TIP3    H135959   4.415   0.763  14.583  0.8575 -0.8261  1.2880
 4848TIP3    H235960   4.273   0.815  14.589  1.2348  0.1522  2.2111
 4849TIP3   OH235961   3.245   1.424  11.058 -0.4409  0.1026 -0.0171
 4849TIP3    H135962   3.219   1.505  11.102 -1.6807 -0.9094  1.1885
 4849TIP3    H235963   3.215   1.354  11.116  1.0062 -1.2325 -0.8132
 4850TIP3   OH235964   2.040   2.171  11.056 -0.4183 -0.7362 -0.4046
 4850TIP3    H135965   1.983   2.236  11.015 -0.0622  0.1948  0.5389
 4850TIP3    H235966   2.025   2.180  11.150  0.0396 -1.6508 -0.2223
 4851TIP3   OH235967   2.589   3.268  11.326 -0.0686 -0.1065 -0.0166
 4851TIP3    H135968   2.602   3.174  11.342  3.7138  0.3131  0.3176
 4851TIP3    H235969   2.529   3.272  11.252  1.5095 -2.9350 -1.6072
 4852TIP3   OH235970   2.110   2.933   1.458 -0.1819 -0.5051 -0.3923
 4852TIP3    H135971   2.046   2.892   1.516 -0.0303  0.0012  0.1428
 4852TIP3    H235972   2.108   2.880   1.378 -3.1437  0.9354 -1.4245
 4853TIP3   OH235973   2.615   1.703  13.631  0.4935  0.1918 -0.1332
 4853TIP3    H135974   2.608   1.798  13.631 -1.1001  0.1169 -1.3682
 4853TIP3    H235975   2.657   1.682  13.547  1.5990 -0.1921  0.4859
 4854TIP3   OH235976   3.217   3.543   1.305 -0.0697 -0.2636 -0.6136
 4854TIP3    H135977   3.312   3.528   1.304 -0.1504 -0.8085 -1.1484
 4854TIP3    H235978   3.181   3.468   1.352 -0.2359 -0.0270 -0.3587
 4855TIP3   OH235979   5.329   5.643  17.031 -0.3837  0.7576  0.1732
 4855TIP3    H135980   5.390   5.659  16.959 -0.7162  0.0463 -0.2905
 4855TIP3    H235981   5.294   5.555  17.013 -0.2415  0.4320  1.3787
 4856TIP3   OH235982   2.976   0.109   4.109 -0.2610 -0.0387  0.3478
 4856TIP3    H135983   2.915   0.173   4.071 -0.0940 -0.6350 -0.9568
 4856TIP3    H235984   3.035   0.162   4.163  0.0100  0.9574 -0.8807
 4857TIP3   OH235985   0.045   4.058   1.615  0.3403 -0.2833  0.2119
 4857TIP3    H135986  -0.042   4.100   1.613  0.6020  0.2475 -0.6506
 4857TIP3    H235987   0.040   3.991   1.547  0.9055  0.3986 -0.5270
 4858TIP3   OH235988   1.699   4.256   3.609  0.4186 -0.0842 -0.2458
 4858TIP3    H135989   1.703   4.350   3.596 -0.0712 -0.1017 -0.5273
 4858TIP3    H235990   1.656   4.245   3.693  0.3040 -0.0586 -0.3005
 4859TIP3   OH235991   4.452   6.043   1.799  0.0682  0.9992 -0.8217
 4859TIP3    H135992   4.472   6.137   1.797  3.5300  0.4662  0.6408
 4859TIP3    H235993   4.426   6.027   1.890  0.9342  0.3721 -0.6707
 4860TIP3   OH235994   0.349   3.035   5.170  0.0336  0.4711 -0.4926
 4860TIP3    H135995   0.329   2.979   5.095 -0.7466  0.3387 -0.1980
 4860TIP3    H235996   0.265   3.044   5.216 -0.3167  3.3670 -1.5007
 4861TIP3   OH235997   1.048   4.178   3.308 -0.4060  0.7312  0.0392
 4861TIP3    H135998   1.052   4.270   3.333  0.5145  1.1032 -1.3913
 4861TIP3    H235999   1.106   4.170   3.232 -3.2207 -0.2451 -2.2023
 4862TIP3   OH236000   2.298   4.044   3.403  0.2415  0.0330 -0.3024
 4862TIP3    H136001   2.376   3.993   3.426  0.3494  0.5534  0.5349
 4862TIP3    H236002   2.331   4.133   3.387 -0.1643  0.2348 -0.0397
 4863TIP3   OH236003   2.848   5.074   2.351  0.1618 -0.1062  0.2021
 4863TIP3    H136004   2.798   5.017   2.410  1.8665 -0.1415  1.7066
 4863TIP3    H236005   2.907   5.123   2.409 -0.5300  2.5158 -1.1240
 4864TIP3   OH236006   3.925   1.802  16.006  0.1903  0.0948 -0.4561
 4864TIP3    H136007   3.997   1.837  15.954  0.2644 -0.1098 -0.4933
 4864TIP3    H236008   3.968   1.757  16.079  0.0706  2.3134  1.0775
 4865TIP3   OH236009   3.637   5.568   0.769  0.1563  0.1634 -0.0257
 4865TIP3    H136010   3.661   5.648   0.817 -0.0613 -0.3294  0.9144
 4865TIP3    H236011   3.553   5.542   0.805 -1.3233  1.1856 -2.4620
 4866TIP3   OH236012   2.743   5.219  10.915 -0.4712 -0.1684 -0.3228
 4866TIP3    H136013   2.703   5.302  10.941 -1.8229 -0.9727  0.2687
 4866TIP3    H236014   2.703   5.154  10.972  0.3438 -1.2807 -0.9742
 4867TIP3   OH236015   5.105   4.644   5.480 -0.0282 -0.5282  0.1700
 4867TIP3    H136016   5.171   4.579   5.505  0.7247  0.9837  2.4145
 4867TIP3    H236017   5.039   4.638   5.549 -0.1493  0.7866  0.1960
 4868TIP3   OH236018   1.019   1.097  15.639 -0.0241 -0.1137  0.0655
 4868TIP3    H136019   1.040   1.111  15.732  3.5302  0.3009 -0.6680
 4868TIP3    H236020   1.039   1.005  15.624  2.1968  0.4547 -0.8208
 4869TIP3   OH236021   0.652   2.673  13.139  0.1001  0.4720  0.1306
 4869TIP3    H136022   0.629   2.669  13.232 -0.7695  2.9594  0.0907
 4869TIP3    H236023   0.580   2.627  13.095 -0.1761  0.4547  0.5911
 4870TIP3   OH236024   5.944   1.915  11.463  0.3874  0.2135  0.0703
 4870TIP3    H136025   5.871   1.855  11.447  0.7798 -0.5705  1.0617
 4870TIP3    H236026   6.022   1.859  11.461  0.9847  1.0520 -1.0469
 4871TIP3   OH236027   0.817   3.565   2.283  0.1945 -0.0368  0.0555
 4871TIP3    H136028   0.869   3.503   2.232 -1.1827 -0.3034 -1.0894
 4871TIP3    H236029   0.857   3.650   2.265 -0.0185 -0.1806 -1.1728
 4872TIP3   OH236030   6.661   0.203   2.307 -0.1492  0.1747 -0.6285
 4872TIP3    H136031   6.742   0.196   2.357  0.0166 -3.7798 -1.1405
 4872TIP3    H236032   6.689   0.219   2.217  0.0807 -0.8488 -0.7480
 4873TIP3   OH236033   5.208   0.477   2.408  0.1516  0.1276 -0.2971
 4873TIP3    H136034   5.279   0.441   2.462  0.2618  0.2022 -0.3905
 4873TIP3    H236035   5.195   0.565   2.443  0.4854  0.3155 -0.6390
 4874TIP3   OH236036   5.332   4.155  14.102 -0.1095 -0.0582  0.2113
 4874TIP3    H136037   5.396   4.223  14.078 -0.3668 -0.3458 -1.3991
 4874TIP3    H236038   5.255   4.204  14.132  0.2033  0.3313  0.3884
 4875TIP3   OH236039   0.049   4.313  15.852  0.3927 -0.1168  0.0877
 4875TIP3    H136040   0.098   4.324  15.933 -0.3325 -3.7819  1.2383
 4875TIP3    H236041   0.113   4.324  15.782  1.9153 -0.5576  1.3616
 4876TIP3   OH236042   5.966   5.791   2.676  0.2640 -0.0340  0.4259
 4876TIP3    H136043   6.026   5.744   2.734 -0.0203  0.7643  1.3977
 4876TIP3    H236044   5.918   5.850   2.735 -0.6835  0.1353 -0.4963
 4877TIP3   OH236045   3.432   3.979   4.069 -0.4446 -0.5131  0.2828
 4877TIP3    H136046   3.393   3.923   4.136 -0.4142  0.4218  1.1031
 4877TIP3    H236047   3.392   4.065   4.083  2.2447  0.6515  1.5343
 4878TIP3   OH236048   1.764   4.209   1.634 -0.2127  0.1791 -0.0117
 4878TIP3    H136049   1.826   4.264   1.683  0.1120 -0.3673  0.2130
 4878TIP3    H236050   1.767   4.125   1.680 -0.3022 -0.1848 -0.6599
 4879TIP3   OH236051   5.603   2.634   2.535 -0.2788  0.1618  0.3156
 4879TIP3    H136052   5.558   2.647   2.451 -0.2579  0.5700  0.3644
 4879TIP3    H236053   5.669   2.567   2.517  0.0505  0.5987 -0.1185
 4880TIP3   OH236054   0.588   6.071  15.094 -0.2779  0.3784  0.3162
 4880TIP3    H136055   0.653   6.075  15.024  0.5843  0.5142  1.1039
 4880TIP3    H236056   0.504   6.076  15.049  0.2627  0.6917 -0.6916
 4881TIP3   OH236057   4.291   1.524  15.926  0.7308  0.7257  0.1023
 4881TIP3    H136058   4.288   1.429  15.943 -0.3662  0.8744  0.8694
 4881TIP3    H236059   4.379   1.539  15.891  0.0227 -0.9870 -2.7449
 4882TIP3   OH236060   1.948   6.652   4.971 -0.4990  0.0579 -0.0175
 4882TIP3    H136061   1.864   6.685   5.004 -0.5588  0.6892 -0.7601
 4882TIP3    H236062   1.985   6.603   5.044 -1.3648  0.0513  0.4323
 4883TIP3   OH236063   1.130   4.780  14.854  0.0190  0.4393 -0.3054
 4883TIP3    H136064   1.071   4.851  14.880  2.2680  2.2971 -0.0311
 4883TIP3    H236065   1.177   4.758  14.934 -0.4272 -1.2262 -0.4598
 4884TIP3   OH236066   0.207   3.599  15.763 -0.5538  0.2099  0.0829
 4884TIP3    H136067   0.297   3.579  15.738 -0.6724  0.5306 -0.6398
 4884TIP3    H236068   0.209   3.693  15.785 -0.3892 -0.1304  1.6174
 4885TIP3   OH236069   5.679   4.236   6.152  0.4805  0.2092 -0.4146
 4885TIP3    H136070   5.716   4.324   6.144  1.9808 -0.2079  1.0957
 4885TIP3    H236071   5.605   4.246   6.211  1.5734  0.2737  0.9932
 4886TIP3   OH236072   5.281   3.387   3.967 -0.1033 -0.6123  0.6554
 4886TIP3    H136073   5.261   3.455   4.032  1.5959  0.8325 -0.2651
 4886TIP3    H236074   5.337   3.430   3.903 -1.1576 -2.1760 -1.4427
 4887TIP3   OH236075   1.619   4.701  12.741  0.4616  0.0499  0.0169
 4887TIP3    H136076   1.577   4.691  12.826 -0.4488 -0.6985 -0.5000
 4887TIP3    H236077   1.639   4.794  12.735 -0.9431  0.3941  0.3791
 4888TIP3   OH236078   1.524   1.773   3.616  0.1407 -0.0300  0.0461
 4888TIP3    H136079   1.506   1.701   3.677 -0.8278  2.0890  2.4750
 4888TIP3    H236080   1.618   1.771   3.603  0.1415 -1.6762  0.1164
 4889TIP3   OH236081   4.038   3.145  14.861  0.0234  0.4150 -0.2695
 4889TIP3    H136082   4.011   3.061  14.825 -0.0016 -0.0110  0.6960
 4889TIP3    H236083   4.032   3.133  14.956 -0.9935  1.8456 -0.1266
 4890TIP3   OH236084   5.854   3.991   5.999 -0.7280 -0.1948 -0.1871
 4890TIP3    H136085   5.897   3.958   6.078 -0.8551 -0.8127 -0.3660
 4890TIP3    H236086   5.793   4.057   6.031  1.7102  2.1486 -0.1151
 4891TIP3   OH236087   4.153   1.078  16.844 -0.4043 -0.4661  0.0151
 4891TIP3    H136088   4.061   1.053  16.847 -0.4182 -0.7344 -1.6284
 4891TIP3    H236089   4.183   1.048  16.758  1.3137 -0.7145  0.6586
 4892TIP3   OH236090   0.111   4.993  15.783 -0.2822 -0.4427 -0.0499
 4892TIP3    H136091   0.032   5.038  15.814 -0.0649 -0.3323  0.3644
 4892TIP3    H236092   0.106   4.997  15.688 -1.4453 -1.6115 -0.0680
 4893TIP3   OH236093   1.373   5.905  16.693 -0.7742 -0.8644  0.4164
 4893TIP3    H136094   1.293   5.943  16.732 -1.8547 -2.3608 -0.2536
 4893TIP3    H236095   1.404   5.843  16.759 -2.3388 -3.0512 -0.7924
 4894TIP3   OH236096   6.695   5.194  15.842 -0.0759 -0.1494 -0.0826
 4894TIP3    H136097   6.721   5.243  15.764 -1.5471  0.0983 -0.4522
 4894TIP3    H236098   6.716   5.253  15.915  0.4299  0.0145 -0.3593
 4895TIP3   OH236099   0.035   3.440   3.779  0.2640 -0.4966  0.1515
 4895TIP3    H136100   0.089   3.366   3.808  0.5882  0.6028  2.6543
 4895TIP3    H236101   0.076   3.516   3.820 -1.0248  0.8838 -1.0065
 4896TIP3   OH236102   0.801   4.454  16.809 -0.8174 -0.0397  0.1793
 4896TIP3    H136103   0.880   4.506  16.798 -0.2532 -1.0780 -0.8944
 4896TIP3    H236104   0.748   4.502  16.873  0.1284  1.2939 -0.0264
 4897TIP3   OH236105   3.558   5.623   1.365 -0.7772  0.4941  0.0690
 4897TIP3    H136106   3.579   5.672   1.286 -3.0310  1.4599 -0.0074
 4897TIP3    H236107   3.579   5.683   1.437 -1.4262  0.7090  0.0780
 4898TIP3   OH236108   2.183   1.809   5.653  0.6654  0.0015  0.3007
 4898TIP3    H136109   2.181   1.829   5.747  2.3931 -0.0154  0.3739
 4898TIP3    H236110   2.163   1.893   5.611  1.9678  0.5304  0.6820
 4899TIP3   OH236111   3.806   3.225  15.717  0.3619  0.2824 -0.0486
 4899TIP3    H136112   3.771   3.151  15.766  1.0031  0.2279  0.3333
 4899TIP3    H236113   3.833   3.188  15.633  0.5256  0.1147  0.0784
 4900TIP3   OH236114   4.488   1.623   2.867  0.7790  0.1363  0.5730
 4900TIP3    H136115   4.537   1.705   2.866  1.3495 -0.1977  0.5213
 4900TIP3    H236116   4.440   1.624   2.950  0.0747  0.9246  0.1629
 4901TIP3   OH236117   2.126   1.368   5.255 -0.5059 -0.2212 -0.5188
 4901TIP3    H136118   2.145   1.368   5.161  0.5635  0.8043 -0.3316
 4901TIP3    H236119   2.038   1.404   5.262 -1.4990 -2.3618 -1.2435
 4902TIP3   OH236120   6.573   2.902  14.353  0.5641 -0.1811  0.0354
 4902TIP3    H136121   6.650   2.882  14.407 -0.4058 -1.6525  0.9664
 4902TIP3    H236122   6.530   2.817  14.342 -0.6285  0.5274 -0.9319
 4903TIP3   OH236123   4.088   4.694  16.952 -0.2365  0.3975 -0.1774
 4903TIP3    H136124   4.128   4.693  16.865  1.2299  0.3745  0.4638
 4903TIP3    H236125   4.129   4.769  16.997 -1.8709  1.1570  0.1109
 4904TIP3   OH236126   5.156   4.920  13.888 -0.3335 -0.3173  0.7130
 4904TIP3    H136127   5.132   4.993  13.944 -0.5372  2.9012 -3.1129
 4904TIP3    H236128   5.075   4.893  13.846  0.3962  0.8393 -1.6282
 4905TIP3   OH236129   3.329   6.525  12.573 -0.1290  0.1061  0.4761
 4905TIP3    H136130   3.315   6.598  12.634 -2.2383 -0.6555  0.9850
 4905TIP3    H236131   3.244   6.481  12.569  0.3079 -0.6277 -2.0612
 4906TIP3   OH236132   1.128   3.712  15.866  0.0623 -0.0072 -0.6093
 4906TIP3    H136133   1.215   3.732  15.900 -0.3906 -0.4513  0.8858
 4906TIP3    H236134   1.137   3.720  15.771  1.4021  1.2271 -0.4180
 4907TIP3   OH236135   6.368   0.126   2.346  0.3268  0.2011  0.1146
 4907TIP3    H136136   6.445   0.116   2.289  0.5606  0.2668  0.4153
 4907TIP3    H236137   6.353   0.220   2.349 -0.6223  0.1082 -1.0672
 4908TIP3   OH236138   2.182   4.257   2.220 -0.1194 -0.3326  0.3599
 4908TIP3    H136139   2.200   4.317   2.148 -0.6753  0.3669  0.7975
 4908TIP3    H236140   2.247   4.278   2.287 -2.2388  1.9998  1.8220
 4909TIP3   OH236141   2.690   1.972   6.412 -0.2088  0.0235 -0.1420
 4909TIP3    H136142   2.604   1.950   6.449  0.1411 -0.6644  0.2785
 4909TIP3    H236143   2.742   1.999   6.488  0.3970 -1.0275 -0.1712
 4910TIP3   OH236144   0.848   3.441   0.685 -0.0143  0.3257  0.2379
 4910TIP3    H136145   0.901   3.406   0.614 -1.0711  0.5040 -0.6795
 4910TIP3    H236146   0.790   3.504   0.642 -0.7724  0.3373  1.2400
 4911TIP3   OH236147   1.621   2.180   0.925 -0.0733 -0.4793  0.5897
 4911TIP3    H136148   1.647   2.094   0.958 -0.2644 -1.1220 -0.8750
 4911TIP3    H236149   1.617   2.170   0.830 -0.8849  0.9351  0.4366
 4912TIP3   OH236150   5.865   1.580   6.127  0.2543  0.3093  0.0243
 4912TIP3    H136151   5.853   1.544   6.039  0.8045  0.0921  0.0324
 4912TIP3    H236152   5.776   1.595   6.159  0.0254 -0.4796 -0.2128
 4913TIP3   OH236153   1.098   6.397   2.209  0.4509  0.3189  0.3361
 4913TIP3    H136154   1.118   6.413   2.117 -0.1095  1.7952  0.4468
 4913TIP3    H236155   1.012   6.356   2.208 -0.1541  1.5415  0.2362
 4914TIP3   OH236156   0.634   2.749  16.358  0.3783  0.1882 -0.4509
 4914TIP3    H136157   0.655   2.682  16.292 -0.6890  0.2495 -0.8811
 4914TIP3    H236158   0.719   2.782  16.387  0.8945 -0.6438 -0.9746
 4915TIP3   OH236159   3.466   2.495  12.797 -0.0139  1.1606  0.0397
 4915TIP3    H136160   3.433   2.505  12.886  0.2923  2.7183  0.0094
 4915TIP3    H236161   3.561   2.492  12.806  0.0006  0.8775 -0.1968
 4916TIP3   OH236162   6.658   5.920   1.446 -0.1996 -0.2191 -0.2029
 4916TIP3    H136163   6.680   5.996   1.394  0.0243 -0.0159  0.1825
 4916TIP3    H236164   6.566   5.903   1.428 -0.3909  0.4612  0.1084
 4917TIP3   OH236165   5.099   6.389   3.957 -0.2936  0.1000 -0.1775
 4917TIP3    H136166   5.071   6.479   3.969 -1.0976  0.0052 -1.1783
 4917TIP3    H236167   5.038   6.353   3.892  0.2469 -1.0472 -0.0822
 4918TIP3   OH236168   1.645   5.423  12.631 -0.5715 -0.3487 -0.0524
 4918TIP3    H136169   1.599   5.454  12.553 -0.7553 -0.9949 -0.2066
 4918TIP3    H236170   1.666   5.332  12.611  0.1982 -0.2519  0.2801
 4919TIP3   OH236171   2.457   2.022  13.329 -0.4443  0.2912 -0.0343
 4919TIP3    H136172   2.452   2.117  13.334  0.0632  0.5357 -2.6183
 4919TIP3    H236173   2.503   1.996  13.409 -1.5556  2.0796  1.2568
 4920TIP3   OH236174   2.624   5.398   3.674 -0.4686 -0.7008 -0.0679
 4920TIP3    H136175   2.558   5.400   3.744  0.2502 -1.0031  0.6374
 4920TIP3    H236176   2.666   5.313   3.684  0.2689 -0.3627 -0.2772
 4921TIP3   OH236177   1.888   3.357  16.483 -0.4292  0.3766  0.4445
 4921TIP3    H136178   1.817   3.419  16.500 -1.3764  0.3090 -2.5816
 4921TIP3    H236179   1.946   3.403  16.422  1.8266  0.1545  2.2878
 4922TIP3   OH236180   5.079   0.690   0.559 -0.4765  0.3211  0.3463
 4922TIP3    H136181   5.006   0.749   0.579 -0.8777 -0.1394  0.2627
 4922TIP3    H236182   5.153   0.725   0.609 -0.3377  1.7030 -0.7691
 4923TIP3   OH236183   5.758   2.517   1.708 -0.5747 -0.1956  0.3921
 4923TIP3    H136184   5.772   2.528   1.802  0.1210  0.4596  0.2274
 4923TIP3    H236185   5.667   2.491   1.700 -1.3301  1.9801  1.1206
 4924TIP3   OH236186   0.347   1.457   5.055  0.7276 -0.2063 -0.2420
 4924TIP3    H136187   0.400   1.433   5.130  1.6856  1.0029 -0.5080
 4924TIP3    H236188   0.312   1.544   5.077 -3.4044 -1.9589  1.1137
 4925TIP3   OH236189   0.888   6.736   4.154  0.4326  0.2059 -0.1080
 4925TIP3    H136190   0.888   6.824   4.118  1.4620 -0.0712 -0.8463
 4925TIP3    H236191   0.812   6.733   4.212  1.2973  2.1092  1.2236
 4926TIP3   OH236192   0.998   2.284   5.167  0.3406 -0.0162 -1.0969
 4926TIP3    H136193   1.007   2.255   5.077 -1.6459 -1.9965 -0.7526
 4926TIP3    H236194   0.997   2.380   5.161  1.4158 -0.0758 -3.0005
 4927TIP3   OH236195   5.570   3.420   3.611  0.3694 -0.3852  0.5524
 4927TIP3    H136196   5.563   3.508   3.648 -0.7780  0.0864 -0.7044
 4927TIP3    H236197   5.662   3.412   3.584  0.7375  0.0005  1.6244
 4928TIP3   OH236198   0.951   3.022  11.427 -0.0696  0.1461 -0.1814
 4928TIP3    H136199   1.024   3.028  11.365  0.7905  1.9650  0.9064
 4928TIP3    H236200   0.893   3.094  11.403 -0.1495  0.3463  0.5753
 4929TIP3   OH236201   2.188   6.094  16.808  0.0176 -0.0998 -0.0197
 4929TIP3    H136202   2.231   6.177  16.789 -0.4367 -0.3096 -2.2430
 4929TIP3    H236203   2.250   6.047  16.863  1.3526  0.7702 -0.7207
 4930TIP3   OH236204   3.197   4.553  13.989  0.4675 -0.0992  0.2049
 4930TIP3    H136205   3.221   4.512  14.072  0.8350  1.0304  0.6823
 4930TIP3    H236206   3.254   4.512  13.925  0.8037 -0.3568  0.6609
 4931TIP3   OH236207   2.634   4.785  15.204  0.0019 -0.2076  0.1604
 4931TIP3    H136208   2.609   4.843  15.131  0.3335 -0.0373  0.1828
 4931TIP3    H236209   2.715   4.822  15.237  0.1919 -0.6593  0.2063
 4932TIP3   OH236210   4.806   2.000   4.071 -0.1337  0.1483 -0.4957
 4932TIP3    H136211   4.792   2.093   4.090 -2.0933 -0.4206  1.1788
 4932TIP3    H236212   4.870   1.971   4.136  1.1885  0.4716 -1.5998
 4933TIP3   OH236213   3.982   5.641  15.357 -0.2450 -0.4078  0.6620
 4933TIP3    H136214   3.971   5.711  15.293 -0.0607 -0.7613  0.2437
 4933TIP3    H236215   3.906   5.585  15.345  0.5296 -1.2764 -0.2565
 4934TIP3   OH236216   5.967   2.794   4.152  0.2224 -0.2814 -0.2079
 4934TIP3    H136217   5.988   2.768   4.242 -0.7356  1.3948  0.5550
 4934TIP3    H236218   5.871   2.785   4.147  0.1115  0.9710 -0.5933
 4935TIP3   OH236219   3.178   0.819   4.605 -0.2114  0.1805 -1.1630
 4935TIP3    H136220   3.224   0.899   4.581  0.5970  0.7915  1.9207
 4935TIP3    H236221   3.085   0.845   4.607  0.1378  1.5449  1.1223
 4936TIP3   OH236222   4.715   2.209   3.421 -0.3619 -0.3624 -0.2493
 4936TIP3    H136223   4.647   2.155   3.381  0.4913  0.0835 -2.4397
 4936TIP3    H236224   4.761   2.149   3.480 -0.2175 -1.7286 -1.6922
 4937TIP3   OH236225   2.874   0.926   5.300  0.1330  0.6161 -0.1680
 4937TIP3    H136226   2.877   0.894   5.390 -1.9403  0.3792 -0.1483
 4937TIP3    H236227   2.902   1.017   5.306 -3.9328  1.9842  1.5069
 4938TIP3   OH236228   2.237   0.735   5.294  0.4130  0.3342 -0.3154
 4938TIP3    H136229   2.168   0.798   5.275 -1.0821 -1.5193 -1.2926
 4938TIP3    H236230   2.232   0.722   5.389 -0.4329  0.3859 -0.3463
 4939TIP3   OH236231   2.570   4.831   0.698  0.2622  0.1360 -0.4046
 4939TIP3    H136232   2.506   4.867   0.760 -0.2549 -0.7196 -0.4194
 4939TIP3    H236233   2.649   4.817   0.751 -0.1627 -0.5581  0.0626
 4940TIP3   OH236234   3.095   2.837  13.947  0.7745  0.5003 -0.2623
 4940TIP3    H136235   3.123   2.874  13.864  2.4816  0.6489  0.3414
 4940TIP3    H236236   3.174   2.796  13.983  0.2869  1.1034  1.6213
 4941TIP3   OH236237   0.497   4.246  14.212 -0.3779  0.5127  0.2155
 4941TIP3    H136238   0.453   4.269  14.294  0.2665 -1.0035  1.0354
 4941TIP3    H236239   0.468   4.157  14.194  0.7843  0.2164 -0.2921
 4942TIP3   OH236240   2.381   6.211   4.773  0.1904  0.4367 -0.0588
 4942TIP3    H136241   2.286   6.219   4.785 -0.2518 -2.2983 -1.0830
 4942TIP3    H236242   2.395   6.120   4.747  2.9771  1.0979 -1.2757
 4943TIP3   OH236243   5.925   6.316  13.165  0.0389  0.0439 -0.5144
 4943TIP3    H136244   6.007   6.325  13.117 -0.1714  0.3276 -0.8176
 4943TIP3    H236245   5.907   6.404  13.198 -0.3439  0.0625 -0.7732
 4944TIP3   OH236246   3.068   2.522  11.188  0.5757  0.4657  0.2632
 4944TIP3    H136247   3.153   2.544  11.226  1.0210 -0.1593 -0.3590
 4944TIP3    H236248   3.089   2.478  11.106 -0.3330 -0.7931  0.6909
 4945TIP3   OH236249   3.463   2.139   3.980  0.1626  0.1750 -0.4128
 4945TIP3    H136250   3.498   2.218   3.940 -0.7139  0.6319 -0.3036
 4945TIP3    H236251   3.519   2.068   3.948  0.0127  0.6439 -1.7463
 4946TIP3   OH236252   5.532   0.378   0.814  0.0210  0.3805  0.1472
 4946TIP3    H136253   5.564   0.300   0.860 -0.8960  0.1128  0.3500
 4946TIP3    H236254   5.596   0.446   0.835  1.1157 -0.4417 -0.4461
 4947TIP3   OH236255   5.481   2.186  10.726  0.6225  0.1872  0.0998
 4947TIP3    H136256   5.468   2.149  10.814  0.3595 -1.7383 -0.6988
 4947TIP3    H236257   5.550   2.132  10.688  0.3860  0.6781 -1.0631
 4948TIP3   OH236258   5.433   2.904  14.326 -0.1735  0.0551 -0.4243
 4948TIP3    H136259   5.463   2.824  14.369 -1.7811 -1.0054 -1.1747
 4948TIP3    H236260   5.510   2.960  14.322  0.8965 -1.3037  0.4749
 4949TIP3   OH236261   5.536   6.731  11.984 -0.2947 -0.0727  0.4915
 4949TIP3    H136262   5.599   6.761  12.050  1.5852 -0.1904 -1.1361
 4949TIP3    H236263   5.521   6.808  11.929  0.0738 -0.5829 -0.3425
 4950TIP3   OH236264   0.328   4.375  15.055  0.2009 -0.4631 -0.4333
 4950TIP3    H136265   0.422   4.370  15.075  0.2867 -0.4432 -0.8113
 4950TIP3    H236266   0.284   4.349  15.135  0.5382 -0.8195 -0.3635
 4951TIP3   OH236267   1.016   5.733  15.454  0.2985  0.1247 -0.5267
 4951TIP3    H136268   0.951   5.798  15.429  1.1254  0.1487 -2.8304
 4951TIP3    H236269   0.999   5.658  15.397 -1.4063 -2.3346  2.8219
 4952TIP3   OH236270   0.206   3.265  16.560 -0.3764 -0.2018 -0.2430
 4952TIP3    H136271   0.213   3.222  16.645  0.6172 -1.0160 -0.7158
 4952TIP3    H236272   0.113   3.286  16.552 -0.5133 -0.2458  0.9688
 4953TIP3   OH236273   3.101   1.188   2.498 -0.5517 -0.2200  0.1260
 4953TIP3    H136274   3.181   1.192   2.446 -1.0562 -0.0915 -0.6528
 4953TIP3    H236275   3.130   1.158   2.584  0.1881 -1.2588 -0.4631
 4954TIP3   OH236276   3.410   0.526  12.318 -0.0457  0.3587  0.7277
 4954TIP3    H136277   3.444   0.544  12.230  0.1499  0.3943  0.8125
 4954TIP3    H236278   3.487   0.507  12.371 -0.3386 -4.1322 -0.0869
 4955TIP3   OH236279   2.663   2.871   2.309  0.5070 -0.3638  0.8219
 4955TIP3    H136280   2.755   2.887   2.331  0.4697 -0.8865  1.4020
 4955TIP3    H236281   2.625   2.836   2.390 -0.8637  2.3055  1.4542
 4956TIP3   OH236282   5.759   0.476  12.135  0.7295  0.9039  0.8921
 4956TIP3    H136283   5.720   0.552  12.179  0.5433 -0.3987  3.1535
 4956TIP3    H236284   5.686   0.416  12.122  1.2101  0.2818  1.0149
 4957TIP3   OH236285   1.168   3.953  14.516 -0.3318  0.1095  0.0504
 4957TIP3    H136286   1.156   3.881  14.454  1.0745 -0.3599  0.2772
 4957TIP3    H236287   1.253   3.936  14.556  0.5903  2.5007 -0.7032
 4958TIP3   OH236288   0.152   0.133  13.180 -0.2732 -0.8913 -0.2340
 4958TIP3    H136289   0.085   0.135  13.249 -0.8002 -0.0840 -0.7529
 4958TIP3    H236290   0.205   0.210  13.195  0.1805 -1.2093 -0.1866
 4959TIP3   OH236291   2.376   2.770  11.552 -0.6680 -0.5276  0.5450
 4959TIP3    H136292   2.295   2.778  11.603 -1.4065 -2.0556 -0.3162
 4959TIP3    H236293   2.364   2.829  11.478 -0.6262 -0.1237  0.8569
 4960TIP3   OH236294   1.092   1.107  15.911 -0.3552  0.0903 -0.3218
 4960TIP3    H136295   1.099   1.028  15.964 -0.2824 -1.7258 -2.8474
 4960TIP3    H236296   1.182   1.133  15.893 -0.3538  1.5836  1.5342
 4961TIP3   OH236297   5.493   4.621   0.788 -0.8471 -0.1654  0.2140
 4961TIP3    H136298   5.432   4.547   0.787  0.2715 -1.2875  3.2738
 4961TIP3    H236299   5.573   4.586   0.750 -0.6081 -0.2173  0.7676
 4962TIP3   OH236300   4.058   5.211   4.274 -0.1156 -0.0463  0.6355
 4962TIP3    H136301   4.009   5.289   4.300  1.3886  2.2427 -2.6871
 4962TIP3    H236302   4.014   5.180   4.195  1.8400  0.1418 -0.5805
 4963TIP3   OH236303   5.003   4.389   0.614  0.1355  0.3871  0.0208
 4963TIP3    H136304   4.986   4.474   0.575  1.6268  1.5332  1.7130
 4963TIP3    H236305   4.956   4.390   0.697  0.2698 -0.4009  0.1190
 4964TIP3   OH236306   2.409   6.229   3.547 -0.1474  0.3321  0.1824
 4964TIP3    H136307   2.366   6.312   3.564 -2.4992 -1.2510  2.9002
 4964TIP3    H236308   2.439   6.199   3.632  3.5572 -0.2707 -1.1498
 4965TIP3   OH236309   0.245   5.959   0.406 -0.4129  0.2195  0.1193
 4965TIP3    H136310   0.251   5.900   0.481  1.7201 -0.8378 -0.7963
 4965TIP3    H236311   0.262   5.903   0.330 -1.6630  1.4157 -1.1056
 4966TIP3   OH236312   4.260   0.706   0.889 -0.0784 -0.6858 -0.4875
 4966TIP3    H136313   4.231   0.795   0.909  1.1037 -0.5819  0.9833
 4966TIP3    H236314   4.339   0.694   0.942 -0.1491 -2.5786 -0.7251
 4967TIP3   OH236315   3.101   2.311  11.547  0.4461 -0.0058  0.5611
 4967TIP3    H136316   3.162   2.337  11.616  2.2850 -1.2870 -0.4812
 4967TIP3    H236317   3.087   2.217  11.563 -0.9633  0.1947  0.5533
 4968TIP3   OH236318   0.561   3.167  15.776 -0.0599  0.0122 -0.0460
 4968TIP3    H136319   0.612   3.225  15.833  1.3317 -0.2941 -0.9376
 4968TIP3    H236320   0.516   3.107  15.836  1.8190 -0.6693  0.7532
 4969TIP3   OH236321   5.592   6.198  13.756  0.3265  0.3549  0.9445
 4969TIP3    H136322   5.595   6.292  13.773  0.4643  0.4221  0.5378
 4969TIP3    H236323   5.675   6.178  13.712 -1.6334  0.9200 -3.5481
 4970TIP3   OH236324   6.188   3.358   4.343  0.2054  0.1417  0.7087
 4970TIP3    H136325   6.280   3.362   4.368  0.1384  1.4161  0.8168
 4970TIP3    H236326   6.142   3.400   4.415 -0.3308  0.6514  0.0763
 4971TIP3   OH236327   2.536   3.841  13.325  0.1692 -0.1831  0.3086
 4971TIP3    H136328   2.598   3.887  13.269  0.7900  0.8927  1.8108
 4971TIP3    H236329   2.450   3.865  13.289  0.5509  0.2306 -0.3534
 4972TIP3   OH236330   2.143   2.895  12.832  0.5727 -0.1053 -0.4296
 4972TIP3    H136331   2.202   2.857  12.767  0.0041 -0.5262 -0.7067
 4972TIP3    H236332   2.115   2.978  12.793 -0.0878 -0.5471 -0.9103
 4973TIP3   OH236333   6.180   6.472  15.536  0.3725  0.0148  0.3765
 4973TIP3    H136334   6.198   6.451  15.445 -3.1756  0.8357 -0.6311
 4973TIP3    H236335   6.190   6.567  15.542 -2.0087  0.3401  0.0708
 4974TIP3   OH236336   2.197   4.030   2.894 -0.6377  0.5743 -0.1257
 4974TIP3    H136337   2.219   4.047   2.985 -1.8984 -0.4435  0.4005
 4974TIP3    H236338   2.281   4.023   2.849  0.0478 -0.6558  1.2915
 4975TIP3   OH236339   0.409   2.377  15.180 -0.1214 -0.3786 -0.0587
 4975TIP3    H136340   0.383   2.359  15.271  0.7118  1.2871  0.5458
 4975TIP3    H236341   0.334   2.348  15.128 -0.7337 -1.1129  1.1654
 4976TIP3   OH236342   3.747   0.640  13.654 -0.3062  0.0144 -0.2138
 4976TIP3    H136343   3.659   0.617  13.623 -1.1651  1.0224  1.3645
 4976TIP3    H236344   3.758   0.732  13.631 -0.0491  0.1572  0.4628
 4977TIP3   OH236345   4.031   2.957  10.774 -0.1369 -0.0430 -0.2377
 4977TIP3    H136346   4.111   3.006  10.789 -0.6142  0.4651  0.7361
 4977TIP3    H236347   4.054   2.866  10.794  0.5806 -0.1485 -1.4375
 4978TIP3   OH236348   3.606   4.728  13.220  0.2648  0.4199 -0.0559
 4978TIP3    H136349   3.603   4.812  13.174 -0.7700  0.7831  0.6212
 4978TIP3    H236350   3.514   4.706  13.235  0.5156 -0.9021 -0.3198
 4979TIP3   OH236351   0.464   1.185   5.426  0.0550  0.0349  0.8244
 4979TIP3    H136352   0.397   1.211   5.362 -0.3075 -0.1883  1.1094
 4979TIP3    H236353   0.503   1.106   5.390  0.4315  0.3720  0.4730
 4980TIP3   OH236354   2.269   3.640   5.819 -0.0780  0.2789  0.1667
 4980TIP3    H136355   2.186   3.599   5.838 -1.3764  2.3053 -0.7387
 4980TIP3    H236356   2.300   3.674   5.904 -0.8715  0.6816  0.3027
 4981TIP3   OH236357   1.555   6.720  14.423  0.7742  0.1084 -0.4630
 4981TIP3    H136358   1.593   6.649  14.372 -0.1091 -0.7140  0.0020
 4981TIP3    H236359   1.489   6.758  14.365 -0.5858 -1.1514  0.2067
 4982TIP3   OH236360   0.308   2.468   0.931 -0.1037 -0.4466  0.3350
 4982TIP3    H136361   0.220   2.482   0.965  0.7500  0.0491  2.4867
 4982TIP3    H236362   0.324   2.374   0.942 -0.2645 -0.4869  0.2164
 4983TIP3   OH236363   2.828   2.753   2.846  0.2152  0.5004  0.3100
 4983TIP3    H136364   2.848   2.740   2.754  0.1106  0.5114  0.2860
 4983TIP3    H236365   2.897   2.705   2.892  0.7981  1.2561  0.2417
 4984TIP3   OH236366   5.111   1.663  12.432  0.4014 -0.3574  0.7280
 4984TIP3    H136367   5.060   1.650  12.352 -1.3792  1.9031  1.3971
 4984TIP3    H236368   5.084   1.591  12.490 -1.1442  0.1300  0.6306
 4985TIP3   OH236369   2.800   2.919   5.066  0.1038  0.1487 -0.3066
 4985TIP3    H136370   2.740   2.914   5.141 -2.8747  0.4038 -2.4941
 4985TIP3    H236371   2.816   2.828   5.041  2.4464 -0.0409  1.4459
 4986TIP3   OH236372   2.495   4.543   6.307 -0.6893  0.2532 -0.2330
 4986TIP3    H136373   2.408   4.577   6.330 -0.5438  1.5063 -1.4046
 4986TIP3    H236374   2.494   4.539   6.212  0.6585  0.5956 -0.2690
 4987TIP3   OH236375   0.707   5.842  12.813  0.5327 -0.7468 -0.3299
 4987TIP3    H136376   0.672   5.859  12.726 -0.3669 -2.0718 -0.2575
 4987TIP3    H236377   0.644   5.782  12.853  0.1891  0.8950  1.7524
 4988TIP3   OH236378   2.034   5.183   6.548 -0.3970 -0.0468 -0.2921
 4988TIP3    H136379   1.945   5.192   6.583 -0.2734 -0.9401  0.2753
 4988TIP3    H236380   2.086   5.151   6.622  0.6515  1.5456 -0.3018
 4989TIP3   OH236381   0.905   4.417  14.338  0.0222  0.0159  0.3650
 4989TIP3    H136382   0.884   4.444  14.428  0.6156 -0.1109  0.5442
 4989TIP3    H236383   0.985   4.466  14.317 -0.7312  0.9282 -0.5108
 4990TIP3   OH236384   0.631   1.866  11.398 -0.2870 -0.6872  0.2177
 4990TIP3    H136385   0.618   1.870  11.492 -0.4511 -1.2190  0.2190
 4990TIP3    H236386   0.543   1.865  11.361 -0.2335  0.4957  0.0060
 4991TIP3   OH236387   1.242   3.043   5.258  0.0962  0.1899  0.1127
 4991TIP3    H136388   1.210   3.119   5.305 -0.3556  0.3769 -0.4877
 4991TIP3    H236389   1.228   3.064   5.166  2.7354  0.6452 -0.2511
 4992TIP3   OH236390   5.888   0.243   5.229  0.0682  0.4038  0.4034
 4992TIP3    H136391   5.838   0.222   5.308 -0.5432 -0.7121 -0.2676
 4992TIP3    H236392   5.837   0.206   5.157  1.1470  0.4871 -0.4270
 4993TIP3   OH236393   5.918   2.414  13.942  0.1680  0.2606 -0.1086
 4993TIP3    H136394   5.939   2.435  14.033 -3.1207  0.5884  0.6898
 4993TIP3    H236395   5.892   2.498  13.904  2.0021  0.2261 -1.6049
 4994TIP3   OH236396   5.332   6.572   3.444 -0.1819 -0.0633  0.2472
 4994TIP3    H136397   5.237   6.574   3.453 -0.2246 -1.3661  0.2138
 4994TIP3    H236398   5.349   6.510   3.374  0.6410  1.5622 -1.0655
 4995TIP3   OH236399   2.461   2.068  12.024  0.1708 -0.1589  0.0147
 4995TIP3    H136400   2.479   2.043  11.933 -0.3763 -0.4540 -0.0214
 4995TIP3    H236401   2.421   1.990  12.062  2.6437 -0.9478  1.2373
 4996TIP3   OH236402   1.554   5.787  13.789  0.0213 -0.2828 -0.2889
 4996TIP3    H136403   1.477   5.730  13.784 -0.3491  0.2354 -0.7082
 4996TIP3    H236404   1.627   5.732  13.763 -0.5911 -0.1044 -2.5914
 4997TIP3   OH236405   5.483   0.571  16.998  0.4655  0.3368 -0.7531
 4997TIP3    H136406   5.552   0.546  16.938  3.2384  1.7431  1.6107
 4997TIP3    H236407   5.450   0.655  16.964  1.9632  1.0881 -0.4366
 4998TIP3   OH236408   4.085   0.664  13.527  0.2423  0.1802 -0.3241
 4998TIP3    H136409   4.099   0.572  13.506 -3.4846 -0.1112 -2.3102
 4998TIP3    H236410   4.026   0.663  13.602 -0.9930  0.8330 -1.2438
 4999TIP3   OH236411   5.962   1.141  14.513  0.2137  0.5409 -0.0350
 4999TIP3    H136412   5.928   1.141  14.603 -1.4695 -0.5119 -0.6183
 4999TIP3    H236413   5.886   1.161  14.459  0.9063 -0.1442 -1.3067
 5000TIP3   OH236414   1.688   0.883  17.174 -0.3814 -0.5193  0.3448
 5000TIP3    H136415   1.742   0.847  17.103  0.7220 -1.5230  1.6474
 5000TIP3    H236416   1.612   0.919  17.129  0.5902 -0.5179 -1.4156
 5001TIP3   OH236417   4.144   4.400  16.414 -0.2783  0.0555 -0.2675
 5001TIP3    H136418   4.142   4.321  16.360 -0.9378  0.8766 -1.4971
 5001TIP3    H236419   4.076   4.385  16.480 -0.5103 -0.3431 -0.5902
 5002TIP3   OH236420   2.168   2.678   4.229 -0.1098  0.1394 -0.4355
 5002TIP3    H136421   2.124   2.642   4.306 -0.8400  1.0691 -0.3938
 5002TIP3    H236422   2.251   2.712   4.264 -0.0621 -0.2067 -0.2119
 5003TIP3   OH236423   4.109   0.342   5.119 -0.1631 -0.6009  0.1486
 5003TIP3    H136424   4.201   0.359   5.098 -0.5934  0.1139 -1.2329
 5003TIP3    H236425   4.099   0.248   5.108  0.8199 -1.0028  2.1299
 5004TIP3   OH236426   1.194   4.044   2.042 -0.2507 -0.2110  0.0859
 5004TIP3    H136427   1.263   4.033   2.107 -1.5820 -1.6750  1.3319
 5004TIP3    H236428   1.223   4.117   1.988  1.9758 -0.4078  0.9215
 5005TIP3   OH236429   1.691   0.600   0.547  0.0320 -0.0444  0.0025
 5005TIP3    H136430   1.736   0.630   0.626  0.4015  0.7302 -0.4909
 5005TIP3    H236431   1.759   0.553   0.499  0.6019  1.8329 -1.1390
 5006TIP3   OH236432   2.233   2.729  14.083 -0.8162  0.0503 -0.2832
 5006TIP3    H136433   2.151   2.774  14.064 -1.5798 -1.0640  0.3079
 5006TIP3    H236434   2.217   2.638  14.059  0.1959 -0.2119 -0.0198
 5007TIP3   OH236435   5.063   0.702  12.790 -0.4405 -0.4145 -0.1619
 5007TIP3    H136436   5.021   0.788  12.789 -0.8293 -0.5895  0.2995
 5007TIP3    H236437   5.139   0.711  12.733 -0.7758  0.0818 -0.5344
 5008TIP3   OH236438   3.556   0.409  10.976  0.0612 -0.0156 -0.4858
 5008TIP3    H136439   3.473   0.457  10.980  1.0724  1.8175 -0.6373
 5008TIP3    H236440   3.597   0.439  10.895 -0.0790 -2.6076 -1.6183
 5009TIP3   OH236441   1.997   2.179  15.057 -0.0675  0.3342 -0.2943
 5009TIP3    H136442   1.961   2.125  15.127 -1.5121  1.3662 -0.1985
 5009TIP3    H236443   2.090   2.156  15.055 -0.3526 -1.0522  0.7199
 5010TIP3   OH236444   0.054   2.511   3.928 -0.3393 -0.1294 -0.0925
 5010TIP3    H136445   0.106   2.450   3.875  0.1295  1.5835 -1.7273
 5010TIP3    H236446   0.115   2.542   3.995 -0.4744 -1.1475  0.5217
 5011TIP3   OH236447   2.374   6.334   1.748  0.4650  0.4321 -0.1614
 5011TIP3    H136448   2.461   6.313   1.715  0.2703  0.3051 -0.6078
 5011TIP3    H236449   2.382   6.330   1.843  0.4687 -1.5506 -0.2169
 5012TIP3   OH236450   0.629   2.989  17.248 -0.2559 -1.0603  0.6794
 5012TIP3    H136451   0.678   2.942  17.317  0.7361 -1.0636 -0.0003
 5012TIP3    H236452   0.547   2.941  17.241 -0.8164 -0.4660  2.5442
 5013TIP3   OH236453   5.274   3.625  15.409  0.2422  0.4364 -0.1712
 5013TIP3    H136454   5.233   3.669  15.335  0.2750  0.8189  0.0294
 5013TIP3    H236455   5.221   3.651  15.484 -0.5879 -1.0089 -0.2252
 5014TIP3   OH236456   3.734   4.253   1.649 -0.7464 -0.1993 -0.1366
 5014TIP3    H136457   3.678   4.229   1.575  0.5605  0.2399 -1.3033
 5014TIP3    H236458   3.734   4.175   1.705 -0.2858 -1.2399 -1.5286
 5015TIP3   OH236459   2.462   5.123   1.114 -0.4559 -0.0090  0.5416
 5015TIP3    H136460   2.522   5.198   1.111 -1.6936  1.0429  1.4153
 5015TIP3    H236461   2.379   5.157   1.080 -0.7098 -1.3356 -0.2585
 5016TIP3   OH236462   2.505   2.858   3.864  0.4508  0.3961  0.4326
 5016TIP3    H136463   2.447   2.818   3.798  0.3132 -0.4346  1.0489
 5016TIP3    H236464   2.448   2.873   3.940  0.7271  0.8994  0.5466
 5017TIP3   OH236465   6.319   2.680   3.375 -0.0573 -0.1055 -0.4993
 5017TIP3    H136466   6.277   2.739   3.438  1.4708 -0.6364  1.1158
 5017TIP3    H236467   6.285   2.594   3.397 -0.1194 -0.1974 -0.9497
 5018TIP3   OH236468   4.621   2.468  13.286 -0.1271 -0.4698  0.4108
 5018TIP3    H136469   4.642   2.441  13.197  1.4069 -0.5998  0.7799
 5018TIP3    H236470   4.595   2.560  13.278 -2.0526 -1.0307 -0.4074
 5019TIP3   OH236471   2.083   4.042   0.850  0.0300  0.3433  0.3517
 5019TIP3    H136472   2.033   3.970   0.889 -0.3242  0.2626 -0.2299
 5019TIP3    H236473   2.154   3.999   0.802 -0.0531  0.3869  0.1870
 5020TIP3   OH236474   6.007   1.922   6.271  0.3460 -0.1405 -0.0494
 5020TIP3    H136475   6.029   1.988   6.336 -0.7493  0.1698  0.0284
 5020TIP3    H236476   5.939   1.869   6.313 -1.5289  1.0095 -1.4490
 5021TIP3   OH236477   2.152   5.411   2.959 -0.1264  0.5625 -0.4790
 5021TIP3    H136478   2.087   5.466   2.916 -0.5418 -0.1327 -0.7633
 5021TIP3    H236479   2.190   5.467   3.027 -1.5744  0.7553  0.2143
 5022TIP3   OH236480   4.311   2.072   1.150 -0.2338 -0.2728  0.6192
 5022TIP3    H136481   4.304   2.006   1.220  0.2898  0.1995  1.1264
 5022TIP3    H236482   4.362   2.143   1.189 -0.9147  0.5019  0.1208
 5023TIP3   OH236483   2.396   1.698   2.669 -0.0474  0.6170 -0.3461
 5023TIP3    H136484   2.332   1.634   2.701  0.1155  0.4621 -0.3279
 5023TIP3    H236485   2.436   1.656   2.593  0.4750  0.4470  0.0111
 5024TIP3   OH236486   6.554   3.296  15.414 -0.0729 -0.7715 -0.7739
 5024TIP3    H136487   6.524   3.384  15.391 -1.1256 -0.2072  2.3162
 5024TIP3    H236488   6.639   3.311  15.457  0.3210 -1.4154 -1.3119
 5025TIP3   OH236489   6.781   3.626  13.138 -0.3279 -0.0520  0.0395
 5025TIP3    H136490   6.691   3.598  13.128 -1.2682  3.2456 -2.5578
 5025TIP3    H236491   6.815   3.631  13.048  0.6511  3.5976  0.4458
 5026TIP3   OH236492   3.376   5.465   5.162 -0.2279  0.1069  0.0580
 5026TIP3    H136493   3.288   5.504   5.161  0.7417  2.4530 -0.0514
 5026TIP3    H236494   3.391   5.442   5.254 -1.0094 -0.4763  0.0491
 5027TIP3   OH236495   6.251   2.307  12.300  1.0791 -0.2906  0.0531
 5027TIP3    H136496   6.181   2.250  12.332  0.2460  0.1616 -0.9452
 5027TIP3    H236497   6.321   2.247  12.274 -0.2845 -1.0074 -2.2277
 5028TIP3   OH236498   1.172   3.760   6.049  0.4363  0.2871 -0.3955
 5028TIP3    H136499   1.227   3.838   6.057  0.7569 -0.1170  2.2573
 5028TIP3    H236500   1.133   3.767   5.962  0.3828  3.4348 -0.2349
 5029TIP3   OH236501   1.344   6.204   2.296 -0.3936  0.2166  0.3322
 5029TIP3    H136502   1.349   6.160   2.211  0.7091  1.2006 -0.1377
 5029TIP3    H236503   1.275   6.269   2.285  0.6808  1.2857 -0.2893
 5030TIP3   OH236504   5.444   4.015   0.323 -0.0013 -0.1771  0.8954
 5030TIP3    H136505   5.387   3.939   0.315  0.9040 -0.7791 -0.0866
 5030TIP3    H236506   5.495   4.017   0.242  0.6651  0.9268  1.3016
 5031TIP3   OH236507   1.657   0.213  13.386 -0.8446  0.3196 -0.5211
 5031TIP3    H136508   1.699   0.293  13.355 -0.0509 -0.7896 -2.4996
 5031TIP3    H236509   1.566   0.221  13.358 -0.1436 -0.6595 -3.3787
 5032TIP3   OH236510   3.363   6.339  11.653  0.0474 -0.0968  0.2247
 5032TIP3    H136511   3.296   6.371  11.713  1.4233  1.3379  1.0897
 5032TIP3    H236512   3.352   6.245  11.651 -1.7611  0.0855  0.5985
 5033TIP3   OH236513   4.042   3.467   2.591 -0.2464 -0.2807 -0.8149
 5033TIP3    H136514   4.042   3.459   2.686  0.7895  0.0352 -0.7790
 5033TIP3    H236515   4.131   3.494   2.568  0.0020 -1.9699 -2.0244
 5034TIP3   OH236516   2.594   1.969   1.589  0.2353 -0.4920  0.1123
 5034TIP3    H136517   2.625   1.886   1.627 -0.6650 -0.8913  0.0194
 5034TIP3    H236518   2.547   1.943   1.509 -1.6618 -0.1186  1.0315
 5035TIP3   OH236519   3.181   4.488   1.293  0.3302  0.1678  0.3465
 5035TIP3    H136520   3.160   4.398   1.319  2.0995  0.6297  4.0920
 5035TIP3    H236521   3.254   4.479   1.231 -1.3198 -0.9343 -1.5656
 5036TIP3   OH236522   2.145   1.521   1.357  0.6056 -0.4287 -0.3618
 5036TIP3    H136523   2.085   1.447   1.364  2.1750 -1.9192 -1.8663
 5036TIP3    H236524   2.167   1.526   1.264  0.2599  2.2072 -0.3791
 5037TIP3   OH236525   5.011   4.779   4.653  0.0373  0.1400  0.1092
 5037TIP3    H136526   5.021   4.858   4.600 -1.2284  1.1571  1.2933
 5037TIP3    H236527   4.996   4.811   4.742 -2.6224 -1.2963  0.3023
 5038TIP3   OH236528   2.963   2.669   1.509 -0.1255  0.6908  0.0513
 5038TIP3    H136529   2.964   2.595   1.570 -2.1770  0.9547  0.4812
 5038TIP3    H236530   3.050   2.670   1.470  0.5762 -0.7240  1.5049
 5039TIP3   OH236531   6.575   6.402  13.002  0.6037 -0.5448  0.2680
 5039TIP3    H136532   6.610   6.334  12.944  1.3690  1.1832 -1.4136
 5039TIP3    H236533   6.544   6.470  12.943  0.3656  0.8165  1.8832
 5040TIP3   OH236534   4.499   2.497  15.081  0.1518  0.2596 -0.1497
 5040TIP3    H136535   4.552   2.574  15.103  0.5806  0.0789 -0.5189
 5040TIP3    H236536   4.478   2.508  14.988  1.1886 -0.6216 -0.5152
 5041TIP3   OH236537   3.788   2.784   1.593  0.1390 -0.2750  0.5051
 5041TIP3    H136538   3.810   2.692   1.611  0.8865 -0.4144 -0.9932
 5041TIP3    H236539   3.832   2.833   1.663  0.7529 -0.9689  0.6201
 5042TIP3   OH236540   3.862   4.623   0.442 -0.6476  0.0533  0.9729
 5042TIP3    H136541   3.851   4.620   0.537  2.9408 -0.7986  1.5081
 5042TIP3    H236542   3.851   4.532   0.413  3.7025 -0.8824  1.5623
 5043TIP3   OH236543   5.669   2.959   3.055 -0.4136 -0.1666 -0.1329
 5043TIP3    H136544   5.576   2.951   3.078 -0.7419  1.3179 -0.7771
 5043TIP3    H236545   5.715   2.950   3.138 -1.1377 -0.8737  0.2061
 5044TIP3   OH236546   6.285   3.571  14.495  0.1392 -0.1813 -0.4846
 5044TIP3    H136547   6.307   3.562  14.403  0.1825  1.3677 -0.6506
 5044TIP3    H236548   6.236   3.492  14.516 -1.3836  0.2075 -2.2849
 5045TIP3   OH236549   4.423   1.934  13.188 -0.2969 -0.1247  0.4708
 5045TIP3    H136550   4.478   1.979  13.123 -0.5292 -0.1407  0.2620
 5045TIP3    H236551   4.341   1.918  13.142 -0.0570 -1.2000  0.3801
 5046TIP3   OH236552   3.986   4.687  13.858 -0.3993  0.2962 -0.0785
 5046TIP3    H136553   3.895   4.716  13.851 -0.4461 -0.1571 -1.9605
 5046TIP3    H236554   4.004   4.647  13.773  1.0029 -1.2733  0.9102
 5047TIP3   OH236555   6.571   2.504  14.031  0.3867 -0.0986 -0.1139
 5047TIP3    H136556   6.638   2.568  14.007  1.7035 -0.7318  1.6390
 5047TIP3    H236557   6.600   2.423  13.989 -0.1558 -0.0251 -0.6397
 5048TIP3   OH236558   6.421   0.593   4.751  0.2973  0.3052  0.0558
 5048TIP3    H136559   6.430   0.577   4.844  2.0556  1.3852  0.1080
 5048TIP3    H236560   6.390   0.509   4.715  2.2402 -1.0056  1.2331
 5049TIP3   OH236561   1.908   2.302   6.333 -0.7643 -0.1631  0.0532
 5049TIP3    H136562   1.960   2.255   6.267 -1.0958  0.5435 -0.7355
 5049TIP3    H236563   1.817   2.285   6.308 -0.8884  0.9254 -0.2841
 5050TIP3   OH236564   3.758   4.450  13.455  0.2331 -0.0894 -0.4609
 5050TIP3    H136565   3.759   4.354  13.457  0.5490 -0.1145  1.9576
 5050TIP3    H236566   3.708   4.472  13.376 -2.3926 -2.3221  0.3977
 5051TIP3   OH236567   5.659   1.837   5.165  1.1182  0.3134 -0.2288
 5051TIP3    H136568   5.692   1.847   5.254 -0.9993  3.5564  0.3728
 5051TIP3    H236569   5.662   1.926   5.128 -2.1861 -0.0310 -1.7474
 5052TIP3   OH236570   6.583   4.018  16.099 -0.2506 -0.1573  0.0669
 5052TIP3    H136571   6.593   4.065  16.016  0.1025 -0.4813 -0.0748
 5052TIP3    H236572   6.496   4.043  16.130  0.1838  1.1212  0.3281
 5053TIP3   OH236573   2.350   5.595  16.745  0.0552 -0.3526 -0.5811
 5053TIP3    H136574   2.384   5.509  16.722 -1.1763 -0.7251 -1.0481
 5053TIP3    H236575   2.301   5.581  16.826  1.2110  0.2442  0.2602
 5054TIP3   OH236576   3.115   5.498   6.285  0.1955  0.2397 -0.2523
 5054TIP3    H136577   3.114   5.403   6.271  1.2695 -0.0763  1.5410
 5054TIP3    H236578   3.038   5.514   6.339 -0.2807  0.5038 -0.9831
 5055TIP3   OH236579   3.889   2.182  16.604  0.8245 -0.3819 -0.1545
 5055TIP3    H136580   3.823   2.238  16.645 -0.6576 -1.3653 -1.0561
 5055TIP3    H236581   3.959   2.176  16.668  0.9996  2.3565  0.0174
 5056TIP3   OH236582   4.669   6.313  11.431  0.6591  0.2058 -0.2334
 5056TIP3    H136583   4.721   6.322  11.351  0.3442 -0.5033 -0.5260
 5056TIP3    H236584   4.586   6.357  11.412 -1.0494 -3.2564 -1.8177
 5057TIP3   OH236585   5.166   2.069   1.222  0.3543 -0.1779 -0.1754
 5057TIP3    H136586   5.132   2.121   1.149  2.1302 -0.9622 -1.6450
 5057TIP3    H236587   5.261   2.074   1.213  0.5943 -1.3328  1.3616
 5058TIP3   OH236588   1.067   6.533   2.491 -0.1398 -0.3253 -0.6217
 5058TIP3    H136589   1.077   6.579   2.408  0.5188  0.0433 -0.3522
 5058TIP3    H236590   0.974   6.510   2.496 -0.3245  0.2959 -1.1239
 5059TIP3   OH236591   4.015   3.886   2.043  0.0766 -0.5006  0.3112
 5059TIP3    H136592   3.930   3.896   2.085 -1.0221 -0.5343 -1.7688
 5059TIP3    H236593   4.052   3.974   2.040 -2.1255  0.4795 -3.0652
 5060TIP3   OH236594   1.564   0.388  11.681  0.0470  0.1653  0.0447
 5060TIP3    H136595   1.549   0.478  11.652 -0.4411 -0.0113 -0.2797
 5060TIP3    H236596   1.582   0.340  11.600  1.1053  0.1201  0.3040
 5061TIP3   OH236597   0.056   1.944   2.237 -0.6906  0.0600  0.3275
 5061TIP3    H136598   0.112   1.907   2.305  0.0710 -2.7481 -1.6413
 5061TIP3    H236599  -0.018   1.884   2.231 -1.9478  1.5415  0.1745
 5062TIP3   OH236600   6.636   0.624   0.495  0.5319 -0.3992 -0.1026
 5062TIP3    H136601   6.570   0.670   0.547 -0.5607 -2.4327  0.4215
 5062TIP3    H236602   6.707   0.607   0.557  0.7434  0.1851 -0.1828
 5063TIP3   OH236603   2.454   1.774   5.898 -0.0970  0.3272 -0.7761
 5063TIP3    H136604   2.484   1.757   5.988  0.8763  0.1452 -1.1318
 5063TIP3    H236605   2.395   1.849   5.907  0.2190  0.4963 -0.0176
 5064TIP3   OH236606   2.238   4.156  15.158 -0.1297  0.0092  0.2027
 5064TIP3    H136607   2.225   4.245  15.124  1.5210  0.5115  0.7986
 5064TIP3    H236608   2.323   4.159  15.201 -0.5137 -1.5984  1.1545
 5065TIP3   OH236609   5.976   1.320   3.208  0.4030 -0.0342  0.8678
 5065TIP3    H136610   6.025   1.400   3.190  3.2835 -1.9197 -0.4154
 5065TIP3    H236611   5.927   1.304   3.127  2.6879 -1.3442 -0.3760
 5066TIP3   OH236612   1.282   0.093   3.265 -0.2280 -0.0640 -0.3225
 5066TIP3    H136613   1.298   0.025   3.200  0.4864 -0.4232  0.2123
 5066TIP3    H236614   1.262   0.045   3.345  3.0485  0.1934  0.8147
 5067TIP3   OH236615   6.457   0.706  10.814  0.2331  0.3200 -0.2360
 5067TIP3    H136616   6.420   0.786  10.776  0.1774 -0.6250 -2.3017
 5067TIP3    H236617   6.393   0.638  10.793  0.3230 -0.3062  1.4269
 5068TIP3   OH236618   0.276   4.476   2.340  0.2356  0.2201 -0.4221
 5068TIP3    H136619   0.297   4.494   2.249  0.1029  0.0703 -0.4827
 5068TIP3    H236620   0.214   4.544   2.365 -1.2688 -0.8789 -1.0311
 5069TIP3   OH236621   5.635   1.240   2.480  0.7468 -0.1867 -0.6188
 5069TIP3    H136622   5.656   1.270   2.569 -1.1422  0.6679 -0.4029
 5069TIP3    H236623   5.692   1.292   2.423  0.4467  0.8710 -0.0019
 5070TIP3   OH236624   5.951   3.239  11.406 -0.3830  0.5059 -0.1129
 5070TIP3    H136625   5.929   3.282  11.323 -1.0445 -0.1384 -0.2789
 5070TIP3    H236626   6.043   3.260  11.419 -0.7820  2.3549  0.0477
 5071TIP3   OH236627   3.479   4.376   3.714  0.1877 -0.0996 -0.6185
 5071TIP3    H136628   3.539   4.304   3.733 -0.3125 -0.3868 -0.0810
 5071TIP3    H236629   3.534   4.445   3.677  0.3845 -1.4776 -3.0884
 5072TIP3   OH236630   4.283   2.857  11.025 -0.1471  0.4663  0.4420
 5072TIP3    H136631   4.278   2.946  10.990  2.5039  0.9207  1.0185
 5072TIP3    H236632   4.356   2.817  10.978 -1.6078 -1.6806 -0.2180
 5073TIP3   OH236633   6.162   3.889  15.819 -0.1437 -0.1193  0.7519
 5073TIP3    H136634   6.177   3.794  15.813  1.5723  0.1886 -1.2332
 5073TIP3    H236635   6.078   3.903  15.776  1.1827 -0.4872 -2.2100
 5074TIP3   OH236636   5.594   2.641  15.044 -0.1462  0.3883 -0.0029
 5074TIP3    H136637   5.659   2.639  15.114  0.1575  1.2600 -0.2405
 5074TIP3    H236638   5.532   2.572  15.066  1.1789 -0.8633 -0.0812
 5075TIP3   OH236639   6.336   4.204   3.459  0.3902 -0.4718 -0.0295
 5075TIP3    H136640   6.354   4.224   3.551  0.0064 -1.1735  0.2032
 5075TIP3    H236641   6.285   4.279   3.428 -0.1565 -0.5902  0.5522
 5076TIP3   OH236642   2.293   5.516  15.995  0.0269  0.1653  0.3959
 5076TIP3    H136643   2.268   5.606  15.975 -0.6218 -0.4741 -2.0111
 5076TIP3    H236644   2.247   5.495  16.076 -0.5947  1.6820  0.4552
 5077TIP3   OH236645   1.767   3.462   4.330 -0.0965  0.2412  0.0946
 5077TIP3    H136646   1.827   3.450   4.404 -1.0578 -0.7438  0.7354
 5077TIP3    H236647   1.698   3.397   4.345 -0.0331 -0.3509 -1.9525
 5078TIP3   OH236648   6.216   5.760  13.071  0.6199  0.0537  0.6674
 5078TIP3    H136649   6.164   5.840  13.083  0.9172  0.4720 -0.6385
 5078TIP3    H236650   6.276   5.759  13.146  0.9158  1.3083  0.4742
 5079TIP3   OH236651   0.308   5.435  12.149  0.0719 -0.3681 -0.1559
 5079TIP3    H136652   0.227   5.424  12.198  0.0117 -1.4819 -0.4673
 5079TIP3    H236653   0.370   5.377  12.193  0.9559  1.0642  0.5769
 5080TIP3   OH236654   2.879   0.838   6.275  0.1992  0.2162  0.1696
 5080TIP3    H136655   2.940   0.777   6.316  0.5746  0.6061  0.1992
 5080TIP3    H236656   2.818   0.862   6.345  0.7351  0.7492  0.4610
 5081TIP3   OH236657   3.061   1.541  13.680 -0.1501 -0.1507  0.3104
 5081TIP3    H136658   3.099   1.454  13.679 -0.1821 -0.1625  0.1664
 5081TIP3    H236659   3.092   1.582  13.599 -2.3664 -0.9780 -1.0429
 5082TIP3   OH236660   2.830   0.661  11.915  0.2251  0.5161 -0.1137
 5082TIP3    H136661   2.925   0.653  11.905 -0.0328 -1.5841 -1.6511
 5082TIP3    H236662   2.812   0.616  11.998  0.5087  0.1102 -0.2649
 5083TIP3   OH236663   5.522   2.098   2.399 -0.5989 -0.0822 -0.8305
 5083TIP3    H136664   5.562   2.019   2.437  1.7903 -0.5803 -3.9766
 5083TIP3    H236665   5.438   2.106   2.445  0.8449 -1.9795  2.5995
 5084TIP3   OH236666   3.225   4.982  12.207  0.5375 -0.3460  0.0033
 5084TIP3    H136667   3.167   5.058  12.214  0.5213 -0.2197 -1.2634
 5084TIP3    H236668   3.166   4.907  12.200  0.4458 -0.1348 -2.2450
 5085TIP3   OH236669   6.475   5.287   2.574  0.7074  0.4393  0.5165
 5085TIP3    H136670   6.406   5.279   2.639 -0.3370 -0.8810 -0.6793
 5085TIP3    H236671   6.469   5.377   2.543 -3.3647 -0.5885 -2.4723
 5086TIP3   OH236672   1.631   2.139   5.275  0.3510  0.6140 -0.2288
 5086TIP3    H136673   1.623   2.234   5.285 -0.0057  0.4190  2.0010
 5086TIP3    H236674   1.679   2.112   5.354  2.4281 -0.8453 -1.8824
 5087TIP3   OH236675   1.815   5.938   2.805  0.4016 -0.7268  0.0271
 5087TIP3    H136676   1.808   5.843   2.815 -0.0801 -0.8363 -1.2333
 5087TIP3    H236677   1.746   5.961   2.743  1.1009  0.3331 -0.3822
 5088TIP3   OH236678   1.086   3.823  14.308 -0.1875 -0.1045 -0.1221
 5088TIP3    H136679   1.133   3.744  14.280 -0.5007  0.2790 -1.8435
 5088TIP3    H236680   1.088   3.880  14.232 -0.5128  1.3160  0.8943
 5089TIP3   OH236681   2.042   4.361   3.646  0.4281 -0.1417 -0.4318
 5089TIP3    H136682   2.014   4.296   3.711  0.8834  1.7273  1.7959
 5089TIP3    H236683   2.138   4.357   3.649  0.5395  1.8370  1.2044
 5090TIP3   OH236684   2.117   0.249   0.407 -0.6538 -0.0410  0.0198
 5090TIP3    H136685   2.166   0.328   0.385  3.4167 -1.7774  1.7923
 5090TIP3    H236686   2.183   0.179   0.407 -3.5648 -3.0549  0.7974
 5091TIP3   OH236687   5.989   4.936  13.970 -0.7304  0.5147  0.3584
 5091TIP3    H136688   5.983   5.030  13.984  0.2319  0.5445  0.6569
 5091TIP3    H236689   6.035   4.927  13.886 -2.3514  0.3077 -0.5403
 5092TIP3   OH236690   5.433   2.356   6.057 -0.1799  0.7131 -0.7588
 5092TIP3    H136691   5.339   2.356   6.039 -0.6632 -2.2500  1.0583
 5092TIP3    H236692   5.439   2.352   6.153  1.7104 -0.6042 -0.8751
 5093TIP3   OH236693   1.038   6.142   1.783  0.1528 -0.4211 -0.2620
 5093TIP3    H136694   1.116   6.197   1.784  0.5989 -1.0449  0.4793
 5093TIP3    H236695   1.063   6.065   1.732 -0.2711 -0.2259 -0.7736
 5094TIP3   OH236696   0.041   5.375   5.081 -0.0672 -0.3003  0.3453
 5094TIP3    H136697  -0.020   5.305   5.056 -1.1069  0.7490 -0.1787
 5094TIP3    H236698  -0.016   5.450   5.099  1.1127  1.1366 -1.5421
 5095TIP3   OH236699   2.936   4.173   0.680 -0.1075 -0.7374  0.0303
 5095TIP3    H136700   2.886   4.132   0.610 -3.0402  0.6219  1.1521
 5095TIP3    H236701   2.910   4.125   0.759 -2.2495  1.9573  1.1072
 5096TIP3   OH236702   6.521   5.539   2.411  0.4988  0.3118  0.0518
 5096TIP3    H136703   6.521   5.620   2.462  2.4062  0.8234 -0.6867
 5096TIP3    H236704   6.611   5.528   2.383  0.9701 -3.4702  2.3133
 5097TIP3   OH236705   5.496   3.596   3.129  0.2615  0.1087 -0.6752
 5097TIP3    H136706   5.422   3.653   3.149  1.0406  1.3725 -1.2356
 5097TIP3    H236707   5.484   3.574   3.037  0.6872  0.5125 -0.8329
 5098TIP3   OH236708   5.628   3.839   1.709  0.0726  0.3857 -0.1021
 5098TIP3    H136709   5.624   3.820   1.803  0.9431  1.3146  0.1367
 5098TIP3    H236710   5.652   3.755   1.669 -1.8045 -0.4162  0.3091
 5099TIP3   OH236711   5.868   4.457  16.806 -0.3424 -0.6651 -0.4398
 5099TIP3    H136712   5.895   4.444  16.715 -0.3885 -0.2304 -0.5171
 5099TIP3    H236713   5.798   4.522  16.802  0.2061 -0.0359 -0.0260
 5100TIP3   OH236714   4.291   2.197   6.096 -0.0025 -0.5185  0.1984
 5100TIP3    H136715   4.274   2.158   6.182 -0.2842 -0.3880  0.2027
 5100TIP3    H236716   4.210   2.181   6.047 -0.7658  1.4318  0.7012
 5101TIP3   OH236717   1.081   1.802  13.294  0.1379  0.7156 -0.4533
 5101TIP3    H136718   1.137   1.804  13.371  0.8585  0.6664 -0.9705
 5101TIP3    H236719   1.005   1.855  13.318  0.6261  1.1743  0.0883
 5102TIP3   OH236720   0.442   5.410  16.248  0.2306  0.4842 -0.0267
 5102TIP3    H136721   0.414   5.319  16.247  0.9884  0.2429  0.0368
 5102TIP3    H236722   0.441   5.435  16.340  2.2251 -0.1858  0.2349
 5103TIP3   OH236723   2.025   3.922   4.651  0.5109  0.7651 -0.0812
 5103TIP3    H136724   2.085   3.959   4.716 -0.2333  1.1638  0.3860
 5103TIP3    H236725   1.996   3.998   4.600  1.1066  0.4522 -0.9004
 5104TIP3   OH236726   1.335   4.145   3.546 -0.2737 -0.2163 -0.5545
 5104TIP3    H136727   1.358   4.110   3.632  2.0656  1.8276 -0.2175
 5104TIP3    H236728   1.266   4.209   3.563  0.6068  0.6251 -0.0699
 5105TIP3   OH236729   0.339   3.443  17.045 -0.5291 -0.0909  0.5812
 5105TIP3    H136730   0.311   3.496  16.970 -0.3072 -0.0596  0.5193
 5105TIP3    H236731   0.278   3.466  17.115  1.2726  2.4581  1.4482
 5106TIP3   OH236732   4.141   1.852  12.799  0.2633 -0.3655 -0.2642
 5106TIP3    H136733   4.146   1.915  12.872  1.2150 -1.4082  0.6201
 5106TIP3    H236734   4.142   1.766  12.842 -1.4393 -1.0057 -1.4209
 5107TIP3   OH236735   3.917   1.087  13.815  0.6555  0.3474 -0.0036
 5107TIP3    H136736   3.853   1.155  13.794  0.3681  0.6979  1.8156
 5107TIP3    H236737   3.923   1.034  13.736 -3.6666 -1.1104  0.3435
 5108TIP3   OH236738   0.209   4.302  13.172  0.0961 -0.3155  0.3834
 5108TIP3    H136739   0.253   4.368  13.226  0.4385 -0.8033  0.7122
 5108TIP3    H236740   0.180   4.235  13.235  1.0723 -1.2150 -0.0896
 5109TIP3   OH236741   0.204   4.766  11.319 -0.0842  0.5331 -0.1567
 5109TIP3    H136742   0.167   4.838  11.371 -0.0223  1.1487 -0.9567
 5109TIP3    H236743   0.299   4.776  11.328 -0.0803  0.3046  0.0626
 5110TIP3   OH236744   3.174   2.049   1.342 -1.1058 -0.4118  0.0665
 5110TIP3    H136745   3.138   1.983   1.401 -1.3509  0.5821  1.0748
 5110TIP3    H236746   3.222   1.999   1.276 -0.7085 -1.5572  1.1873
 5111TIP3   OH236747   3.143   0.241   0.142 -0.6527 -0.1290 -0.5445
 5111TIP3    H136748   3.113   0.207   0.226 -1.7792 -1.9919 -1.6299
 5111TIP3    H236749   3.106   0.330   0.137  0.5322  0.5311  1.4341
 5112TIP3   OH236750   6.140   3.093  14.971 -0.1206  0.0581 -0.5639
 5112TIP3    H136751   6.085   3.157  15.017  1.4273  2.1783 -1.4645
 5112TIP3    H236752   6.080   3.023  14.946 -1.7662  0.7712  1.1562
 5113TIP3   OH236753   3.203   0.673   3.780 -0.2726 -0.2523 -0.0623
 5113TIP3    H136754   3.143   0.600   3.796 -0.3991 -0.2013 -0.3020
 5113TIP3    H236755   3.148   0.740   3.740 -0.2354  0.1106  0.4800
 5114TIP3   OH236756   2.045   5.061  15.587  0.2062  0.7441 -0.1833
 5114TIP3    H136757   2.055   5.116  15.510  0.2983 -0.5351 -1.1083
 5114TIP3    H236758   2.126   5.011  15.593 -0.4233 -0.3185 -0.2056
 5115TIP3   OH236759   0.337   0.464  14.317  0.8540  0.2792  0.1598
 5115TIP3    H136760   0.333   0.374  14.351  2.3877  0.9322  2.2785
 5115TIP3    H236761   0.321   0.455  14.223 -2.5968 -1.7823  0.7750
 5116TIP3   OH236762   0.242   2.195  12.494 -0.3051 -0.2435 -0.3519
 5116TIP3    H136763   0.281   2.281  12.483 -0.9349 -0.0116 -0.8467
 5116TIP3    H236764   0.150   2.207  12.471 -0.5866 -0.8607  0.3912
 5117TIP3   OH236765   3.575   3.206   3.891 -0.7420 -0.0843 -0.4323
 5117TIP3    H136766   3.653   3.261   3.894 -0.5810 -0.3400  0.2626
 5117TIP3    H236767   3.608   3.117   3.898 -1.0949 -0.1981 -0.2079
 5118TIP3   OH236768   2.542   1.459   5.635 -0.1052  0.3995 -0.1269
 5118TIP3    H136769   2.621   1.514   5.635  0.3446 -0.2330  0.2537
 5118TIP3    H236770   2.574   1.372   5.612 -0.5180 -0.0875  1.0432
 5119TIP3   OH236771   2.882   1.777  11.369  0.1865 -0.1040 -0.0299
 5119TIP3    H136772   2.813   1.823  11.417 -1.3163 -1.4310 -0.8223
 5119TIP3    H236773   2.916   1.713  11.432 -0.3843 -0.4775 -0.0929
 5120TIP3   OH236774   5.910   0.088   1.207 -0.2629  0.0000  0.2057
 5120TIP3    H136775   5.836   0.055   1.258 -1.3377  0.3386 -1.0690
 5120TIP3    H236776   5.917   0.180   1.233 -1.6304  0.5178 -1.1176
 5121TIP3   OH236777   5.085   4.301   3.502  0.2905  0.3244  0.2410
 5121TIP3    H136778   5.052   4.381   3.461  1.0745  2.0879  2.7935
 5121TIP3    H236779   5.098   4.325   3.594  1.6835 -2.4309  0.8691
 5122TIP3   OH236780   5.313   6.512   1.084 -0.1250  0.3168 -0.0530
 5122TIP3    H136781   5.394   6.520   1.133 -0.3418  1.1568  0.1854
 5122TIP3    H236782   5.249   6.479   1.148  0.0139 -0.3043 -0.2299
 5123TIP3   OH236783   1.095   4.622  15.157  0.4543  0.1361 -0.2693
 5123TIP3    H136784   1.161   4.588  15.095  1.9572  0.0946  1.2840
 5123TIP3    H236785   1.090   4.716  15.137  0.1479 -0.0500 -1.1187
 5124TIP3   OH236786   5.566   4.618  11.285  0.2320 -0.1001  0.9819
 5124TIP3    H136787   5.587   4.626  11.378 -0.5276  0.3921  1.1173
 5124TIP3    H236788   5.474   4.642  11.279 -0.3323 -2.1451  0.4095
 5125TIP3   OH236789   4.592   0.779  14.559 -0.4344 -0.0753 -0.3211
 5125TIP3    H136790   4.602   0.872  14.537  0.6851 -0.0393  0.2809
 5125TIP3    H236791   4.637   0.769  14.643 -0.9282 -1.0799 -0.1594
 5126TIP3   OH236792   3.864   3.161   6.168 -0.1802 -0.4504  0.4249
 5126TIP3    H136793   3.816   3.142   6.248  2.5694 -1.3128  2.0153
 5126TIP3    H236794   3.861   3.257   6.160 -1.8843 -0.4734  0.5735
 5127TIP3   OH236795   4.150   1.883  11.363 -0.2640  0.1659  1.0336
 5127TIP3    H136796   4.174   1.791  11.362  1.1006  0.5025  0.6887
 5127TIP3    H236797   4.233   1.930  11.371 -0.6561  1.4301 -1.2320
 5128TIP3   OH236798   1.678   4.481   5.665 -0.7600 -0.1534 -0.4755
 5128TIP3    H136799   1.680   4.413   5.597 -1.5210 -0.9734  0.2845
 5128TIP3    H236800   1.591   4.519   5.659 -0.5963  0.2367 -0.3980
 5129TIP3   OH236801   3.289   3.109   5.123  0.5873 -0.3401 -0.0977
 5129TIP3    H136802   3.364   3.050   5.132  0.0071 -1.1127 -0.2416
 5129TIP3    H236803   3.263   3.128   5.213  0.8931 -0.1428 -0.0486
 5130TIP3   OH236804   1.235   2.457   5.893  0.2554  0.0003  0.6465
 5130TIP3    H136805   1.214   2.542   5.932  0.8106 -0.2501  1.4977
 5130TIP3    H236806   1.196   2.393   5.952 -0.1519 -0.3518  0.0135
 5131TIP3   OH236807   6.201   4.720  13.691 -0.4081  0.0064 -0.6678
 5131TIP3    H136808   6.185   4.814  13.700 -2.3222 -0.2810 -0.7291
 5131TIP3    H236809   6.124   4.679  13.730 -0.0709 -1.5167 -1.5519
 5132TIP3   OH236810   5.909   2.840  16.671  0.5436 -0.0278  0.5713
 5132TIP3    H136811   5.919   2.748  16.645  1.5732 -0.1851  1.4837
 5132TIP3    H236812   5.817   2.859  16.653  0.3980 -1.1388  0.0453
 5133TIP3   OH236813   5.146   0.802  11.815 -0.2842  0.4036  0.1761
 5133TIP3    H136814   5.137   0.711  11.785 -1.8924  0.2995  0.8515
 5133TIP3    H236815   5.102   0.853  11.747  0.1968  0.6342  0.0378
 5134TIP3   OH236816   5.022   4.726   3.854 -0.4066  0.2602  0.0781
 5134TIP3    H136817   5.008   4.722   3.949  0.3742  1.2162  0.2441
 5134TIP3    H236818   5.064   4.811   3.839  1.0881 -0.6013 -0.9052
 5135TIP3   OH236819   0.231   1.697   4.636 -0.3512  0.5870 -0.0028
 5135TIP3    H136820   0.179   1.692   4.556 -1.5740  1.8863  0.6577
 5135TIP3    H236821   0.261   1.607   4.651  1.2292  0.5554 -2.7093
 5136TIP3   OH236822   0.057   1.231   0.608 -0.1054  0.1593 -0.4208
 5136TIP3    H136823   0.110   1.156   0.634 -0.2903 -0.1164 -0.8427
 5136TIP3    H236824   0.119   1.304   0.607  0.1112 -0.0169 -0.1941
 5137TIP3   OH236825   0.874   6.473  15.880 -0.3380 -0.8804  0.2360
 5137TIP3    H136826   0.929   6.404  15.842 -0.4876 -1.4279  0.9935
 5137TIP3    H236827   0.934   6.545  15.898 -0.0175 -1.1578  0.2815
 5138TIP3   OH236828   1.318   2.156   5.621  0.3063  0.1801 -0.5460
 5138TIP3    H136829   1.253   2.150   5.551 -2.4499 -1.0322  1.9043
 5138TIP3    H236830   1.388   2.097   5.594 -1.5702 -1.7766 -1.4788
 5139TIP3   OH236831   1.930   0.606   4.579 -0.4608  0.4963  0.1566
 5139TIP3    H136832   2.023   0.630   4.571  0.2238 -2.0769 -0.4111
 5139TIP3    H236833   1.884   0.690   4.580  1.8818  1.8701  0.7948
 5140TIP3   OH236834   0.586   5.775   3.705 -0.5416  0.4970 -0.4638
 5140TIP3    H136835   0.678   5.795   3.717 -0.8044  1.2097  0.4489
 5140TIP3    H236836   0.573   5.776   3.610  0.6605 -0.9225 -0.6894
 5141TIP3   OH236837   5.701   4.633  15.087 -0.0475 -0.9453 -0.6115
 5141TIP3    H136838   5.736   4.678  15.010 -1.0957 -0.8379 -1.0411
 5141TIP3    H236839   5.632   4.690  15.120  1.1674 -0.3994  1.1641
 5142TIP3   OH236840   1.326   4.665  15.377 -0.4630 -0.1618 -0.5461
 5142TIP3    H136841   1.384   4.733  15.344 -1.3206 -0.0435 -1.9327
 5142TIP3    H236842   1.244   4.678  15.328 -1.5439 -0.5335  1.0840
 5143TIP3   OH236843   1.258   6.693  14.315 -0.4259 -0.0863  0.0878
 5143TIP3    H136844   1.291   6.613  14.274 -2.9249  0.0531 -2.4760
 5143TIP3    H236845   1.229   6.665  14.401  1.1345 -1.3296  0.2732
 5144TIP3   OH236846   3.063   6.173   6.245  0.3027 -0.1374  0.5627
 5144TIP3    H136847   3.044   6.160   6.152  0.5369 -0.4942  0.5633
 5144TIP3    H236848   3.107   6.258   6.250 -2.4995  1.4560  0.7108
 5145TIP3   OH236849   3.907   5.034  13.036 -0.4619  0.0993  1.4533
 5145TIP3    H136850   3.905   4.946  12.998  0.6217  1.0880 -1.1310
 5145TIP3    H236851   3.937   5.020  13.126 -1.1819 -2.2224  1.4084
 5146TIP3   OH236852   3.601   6.000   2.540 -0.7250  0.4013  0.3472
 5146TIP3    H136853   3.671   6.022   2.478  0.5460 -1.0223  1.2172
 5146TIP3    H236854   3.522   5.999   2.487  0.0160  1.3286 -0.8215
 5147TIP3   OH236855   1.939   3.078  15.724 -0.2143 -0.9211  0.3050
 5147TIP3    H136856   1.984   3.148  15.677  1.8449 -2.4166 -0.1053
 5147TIP3    H236857   1.927   3.112  15.812 -0.5209  0.4414 -0.2339
 5148TIP3   OH236858   4.019   2.447  12.874 -0.0395  0.1141 -0.0891
 5148TIP3    H136859   4.000   2.375  12.934  1.5344 -0.0812  0.2210
 5148TIP3    H236860   3.966   2.520  12.906 -1.1666 -0.6990 -0.0293
 5149TIP3   OH236861   3.636   0.962  16.892 -0.5326 -0.5200 -0.1252
 5149TIP3    H136862   3.610   1.030  16.954 -1.7734 -0.9762 -0.1261
 5149TIP3    H236863   3.560   0.904  16.886  0.4233 -1.8152 -0.2579
 5150TIP3   OH236864   6.486   0.547  16.666 -0.1133 -0.1212 -0.3924
 5150TIP3    H136865   6.430   0.587  16.732 -0.0901  0.4179 -0.6863
 5150TIP3    H236866   6.514   0.621  16.611  0.1824 -0.5043 -0.7631
 5151TIP3   OH236867   1.923   0.587  15.602  0.2217  0.2273  0.4917
 5151TIP3    H136868   1.945   0.680  15.609  1.8786 -0.2311  2.6656
 5151TIP3    H236869   1.984   0.544  15.663 -0.0739 -2.3547 -0.9076
 5152TIP3   OH236870   2.176   2.306  16.153  0.2041 -0.0082  0.2433
 5152TIP3    H136871   2.270   2.304  16.137  0.2772 -1.1406  0.7615
 5152TIP3    H236872   2.155   2.220  16.188 -0.9797  0.3350  0.4336
 5153TIP3   OH236873   6.076   0.007  11.085  0.0700 -0.1919 -0.1440
 5153TIP3    H136874   6.058   0.071  11.016 -0.1677 -1.2732 -1.1203
 5153TIP3    H236875   6.130  -0.059  11.042  0.7622 -0.3863  0.9914
 5154TIP3   OH236876   2.035   1.607  16.616 -1.1330 -0.5681 -0.7465
 5154TIP3    H136877   2.035   1.645  16.704  1.8346 -0.9962 -0.4643
 5154TIP3    H236878   2.014   1.681  16.558  0.5900  0.6831  0.1032
 5155TIP3   OH236879   5.299   3.756   4.959  0.3681 -0.4155  0.8661
 5155TIP3    H136880   5.367   3.691   4.940 -0.4236 -1.4471  1.4378
 5155TIP3    H236881   5.346   3.830   4.995  1.3916 -0.3083 -0.5777
 5156TIP3   OH236882   1.367   3.271  15.820 -0.0779  0.4654  0.2684
 5156TIP3    H136883   1.320   3.204  15.870 -0.0123 -0.6494 -1.1140
 5156TIP3    H236884   1.419   3.318  15.886 -1.7597  0.5847  1.5711
 5157TIP3   OH236885   0.811   2.029   0.530  0.3678 -0.3836  0.1656
 5157TIP3    H136886   0.763   2.040   0.612  0.3811  0.4629  0.0728
 5157TIP3    H236887   0.890   2.083   0.542  0.9232 -1.1532  0.0257
 5158TIP3   OH236888   6.319   5.197   3.180 -0.0136 -0.2821 -0.2492
 5158TIP3    H136889   6.351   5.249   3.107  0.2683  0.8163  0.6241
 5158TIP3    H236890   6.391   5.139   3.202  0.3281  0.1927 -0.1073
 5159TIP3   OH236891   4.683   3.040   5.059  0.3082  0.3205  0.6221
 5159TIP3    H136892   4.639   3.099   5.120 -0.4980  0.5006 -0.1169
 5159TIP3    H236893   4.616   2.977   5.034  0.4121  0.6856 -0.6369
 5160TIP3   OH236894   0.325   0.906  11.624  0.8647  0.2907 -0.4811
 5160TIP3    H136895   0.372   0.973  11.573 -0.7831  1.0752 -1.0238
 5160TIP3    H236896   0.236   0.906  11.588 -0.0534  0.0584  1.6607
 5161TIP3   OH236897   6.724   2.524  12.879  0.8373 -0.1453 -0.2575
 5161TIP3    H136898   6.727   2.515  12.975  1.9174 -1.4544 -0.3962
 5161TIP3    H236899   6.803   2.481  12.848  1.3151  1.6455 -1.6688
 5162TIP3   OH236900   0.191   6.227  17.120  0.3899  0.2410 -0.3198
 5162TIP3    H136901   0.280   6.260  17.137  1.0537 -1.0667 -1.1108
 5162TIP3    H236902   0.182   6.152  17.179  0.1574 -0.1830 -0.8904
 5163TIP3   OH236903   0.162   0.611  15.416 -0.2503 -0.3509 -0.1598
 5163TIP3    H136904   0.219   0.686  15.431 -0.7772  0.1441 -0.5894
 5163TIP3    H236905   0.116   0.600  15.499 -0.3470 -0.0387 -0.1682
 5164TIP3   OH236906   4.900   4.773  14.640  0.2150  0.3556 -0.0401
 5164TIP3    H136907   4.927   4.739  14.554  0.9579 -1.0052  0.6954
 5164TIP3    H236908   4.979   4.812  14.676 -0.0223  0.6549  0.1602
 5165TIP3   OH236909   3.310   6.584  14.427 -0.8344 -0.5797 -0.3375
 5165TIP3    H136910   3.281   6.507  14.376  0.3342 -1.9647  0.9839
 5165TIP3    H236911   3.360   6.637  14.364 -1.7695 -0.8180 -1.3086
 5166TIP3   OH236912   4.769   4.434   0.795  0.4992  0.9957 -0.3725
 5166TIP3    H136913   4.779   4.371   0.867 -1.0888  1.1396  0.0230
 5166TIP3    H236914   4.819   4.511   0.823  1.8721  0.1921 -0.5417
 5167TIP3   OH236915   2.908   5.168   0.418 -0.1498  0.3287  0.3977
 5167TIP3    H136916   2.890   5.117   0.497 -1.0325  0.2889  0.1795
 5167TIP3    H236917   2.828   5.219   0.403  0.4327  1.2065  0.1762
 5168TIP3   OH236918   6.309   0.084   1.578 -0.5745  0.1858  0.1742
 5168TIP3    H136919   6.378   0.149   1.568  0.0002 -0.3205  0.6857
 5168TIP3    H236920   6.337   0.032   1.654 -1.7850  0.2999  0.7224
 5169TIP3   OH236921   5.404   1.629  11.449  0.3200  0.2761  0.2315
 5169TIP3    H136922   5.404   1.600  11.358  2.0046 -0.1064  0.3210
 5169TIP3    H236923   5.346   1.705  11.450 -0.0947 -0.0045 -1.0613
 5170TIP3   OH236924   1.028   2.621  16.214  0.6819 -0.1855 -0.0177
 5170TIP3    H136925   0.987   2.695  16.168  0.5445  0.9278  1.7903
 5170TIP3    H236926   0.955   2.576  16.256  0.6594 -1.9296 -1.7783
 5171TIP3   OH236927   4.028   2.504  16.348 -0.2091 -0.5500  0.1980
 5171TIP3    H136928   4.076   2.424  16.365 -0.3294 -0.7993 -0.6358
 5171TIP3    H236929   3.936   2.476  16.341 -0.1483 -0.4778 -1.0003
 5172TIP3   OH236930   0.967   5.278  14.327 -0.1003  0.0347 -0.1277
 5172TIP3    H136931   0.876   5.261  14.301 -0.2462  1.3774 -0.6145
 5172TIP3    H236932   0.963   5.283  14.423 -0.5523  0.1138 -0.1436
 5173TIP3   OH236933   2.925   5.078   3.516  0.0024  0.1498  0.3200
 5173TIP3    H136934   2.975   5.036   3.585  0.8745  0.0215 -0.3753
 5173TIP3    H236935   2.945   5.171   3.525 -0.1585  0.1732  0.4503
 5174TIP3   OH236936   1.600   0.386   1.722 -0.2032 -0.1371  1.0212
 5174TIP3    H136937   1.690   0.408   1.694 -0.0932 -0.1399  1.3723
 5174TIP3    H236938   1.599   0.290   1.726 -0.6683 -0.2194 -0.4603
 5175TIP3   OH236939   4.018   1.901   1.961 -0.0064 -0.2844  0.0197
 5175TIP3    H136940   3.968   1.865   2.035 -1.2207  0.6153 -0.3342
 5175TIP3    H236941   3.968   1.876   1.884 -0.4676  1.4340 -0.2889
 5176TIP3   OH236942   6.479   4.743   5.281 -0.8629 -0.1976 -0.5450
 5176TIP3    H136943   6.529   4.817   5.249  0.0656 -0.4146  0.3642
 5176TIP3    H236944   6.453   4.767   5.370  2.1668 -2.1360  1.0405
 5177TIP3   OH236945   4.792   0.079   4.022  0.2202 -0.3924  0.3371
 5177TIP3    H136946   4.810   0.007   4.083 -0.2180 -0.7711  0.0246
 5177TIP3    H236947   4.871   0.133   4.024  0.3528 -0.6011  0.9647
 5178TIP3   OH236948   2.518   1.870  11.413 -0.4412 -0.0903  0.5046
 5178TIP3    H136949   2.556   1.799  11.465 -1.1978 -0.5060  0.5033
 5178TIP3    H236950   2.430   1.881  11.448 -0.5871  0.3422  0.0145
 5179TIP3   OH236951   4.662   4.165   5.247  0.0207 -0.2728  0.0743
 5179TIP3    H136952   4.749   4.191   5.215 -1.1291 -0.0443 -3.2212
 5179TIP3    H236953   4.640   4.232   5.313  0.9930  1.7052 -1.4896
 5180TIP3   OH236954   1.416   6.117   3.678  0.2546 -0.0461  0.0630
 5180TIP3    H136955   1.338   6.118   3.734  0.1776 -0.7037 -0.0194
 5180TIP3    H236956   1.489   6.100   3.739  0.2568 -0.0472  0.0601
 5181TIP3   OH236957   6.732   6.619   1.300 -0.0703  0.1642  0.3780
 5181TIP3    H136958   6.732   6.602   1.394  1.4090  0.7003  0.5075
 5181TIP3    H236959   6.822   6.603   1.273  0.0164  2.0029 -0.5586
 5182TIP3   OH236960   3.075   1.736  14.656 -0.0181 -0.2270 -0.0500
 5182TIP3    H136961   3.159   1.741  14.609 -0.7475 -1.0974 -1.5213
 5182TIP3    H236962   3.076   1.649  14.697 -0.1002 -0.1379  0.1402
 5183TIP3   OH236963   0.141   5.427  14.916 -0.5775 -0.1727 -0.2844
 5183TIP3    H136964   0.156   5.343  14.871 -1.4613 -0.8677  0.6705
 5183TIP3    H236965   0.199   5.423  14.993  0.4229  0.7188 -0.9588
 5184TIP3   OH236966   5.874   2.486  16.658 -0.2542 -0.7449 -0.2210
 5184TIP3    H136967   5.850   2.519  16.572 -0.2306  0.8076  0.3365
 5184TIP3    H236968   5.791   2.463  16.699 -0.1979 -2.7289 -1.0759
 5185TIP3   OH236969   1.401   0.087  17.063 -0.2621 -0.2907 -0.5227
 5185TIP3    H136970   1.382   0.171  17.020  1.3199 -0.0993 -0.9051
 5185TIP3    H236971   1.496   0.088  17.077 -0.5132 -0.9847  1.6687
 5186TIP3   OH236972   2.346   0.717  16.215  0.0828  0.1927  0.0356
 5186TIP3    H136973   2.266   0.705  16.268 -0.9144  0.2069 -1.4136
 5186TIP3    H236974   2.399   0.640  16.235 -0.5504 -0.1168  0.5931
 5187TIP3   OH236975   3.095   3.413  11.783 -0.1575  0.1820 -0.1119
 5187TIP3    H136976   3.070   3.341  11.840  0.8582  0.6660  0.9793
 5187TIP3    H236977   3.184   3.436  11.810 -0.1425  1.2768 -1.0140
 5188TIP3   OH236978   0.533   2.564   4.318  0.0055  0.2147 -0.2713
 5188TIP3    H136979   0.468   2.502   4.285  1.4849 -1.3688 -0.3634
 5188TIP3    H236980   0.572   2.601   4.239  0.3328 -0.0942 -0.2619
 5189TIP3   OH236981   2.765   4.929   4.764 -0.5049  0.1656  0.4862
 5189TIP3    H136982   2.821   4.857   4.794  0.6270  1.6417  2.0944
 5189TIP3    H236983   2.818   4.976   4.700 -0.2322  1.0663  1.3646
 5190TIP3   OH236984   5.207   2.470   2.036 -0.3623  0.1149  0.9263
 5190TIP3    H136985   5.159   2.437   1.961  0.8644 -0.2373  0.2788
 5190TIP3    H236986   5.157   2.440   2.112 -1.7817  0.7367  0.2613
 5191TIP3   OH236987   0.396   4.393  11.738  0.1382 -0.0916 -0.4386
 5191TIP3    H136988   0.453   4.433  11.803  1.1536  0.3762 -1.5899
 5191TIP3    H236989   0.411   4.443  11.658  2.3895 -3.3864 -2.3358
 5192TIP3   OH236990   5.943   6.651   4.684 -0.1633 -0.5283 -0.2503
 5192TIP3    H136991   5.905   6.587   4.625 -0.7422 -0.0359 -0.4310
 5192TIP3    H236992   6.005   6.602   4.738  3.3646 -0.3738 -3.7801
 5193TIP3   OH236993   4.811   1.672  13.794  0.3057 -0.0595  0.1277
 5193TIP3    H136994   4.853   1.756  13.813 -0.4029  0.3689 -0.1757
 5193TIP3    H236995   4.819   1.623  13.876 -0.8597  0.9843  0.8923
 5194TIP3   OH236996   0.829   2.540  11.710  1.3257  0.4453 -0.2711
 5194TIP3    H136997   0.834   2.475  11.781 -1.8538  1.7724  1.3550
 5194TIP3    H236998   0.824   2.624  11.755  0.9165  1.4861 -2.1782
 5195TIP3   OH236999   5.302   1.506  16.087 -0.0038 -0.2735  0.2655
 5195TIP3    H137000   5.211   1.535  16.084 -0.5271 -1.8858 -1.2685
 5195TIP3    H237001   5.298   1.416  16.121  1.0129 -0.3687  0.1818
 5196TIP3   OH237002   0.990   0.839   4.868  0.1391  0.3269 -0.1990
 5196TIP3    H137003   0.929   0.820   4.940  1.7868 -2.5770  0.6259
 5196TIP3    H237004   0.982   0.933   4.853 -2.2774  0.5529  1.9179
 5197TIP3   OH237005   4.282   4.697   3.030 -0.4355  0.3872 -0.6101
 5197TIP3    H137006   4.291   4.736   2.943  1.6416  0.4535 -0.4299
 5197TIP3    H237007   4.194   4.720   3.059 -0.3933  2.2099 -1.8092
 5198TIP3   OH237008   1.962   2.226  13.131 -0.3001 -0.1782  0.0175
 5198TIP3    H137009   2.016   2.245  13.054  0.5799 -0.8310  0.4496
 5198TIP3    H237010   1.974   2.302  13.188 -1.3569  0.5471 -0.6689
 5199TIP3   OH237011   3.486   0.136   3.410 -0.5310  0.8964 -0.6955
 5199TIP3    H137012   3.545   0.211   3.419 -0.4117  0.9453 -1.7420
 5199TIP3    H237013   3.522   0.070   3.470  0.6350  0.9035 -1.3430
 5200TIP3   OH237014   2.056   4.905   0.251  0.0619 -0.1118  0.0451
 5200TIP3    H137015   1.982   4.854   0.218 -1.6013  1.7709  0.7098
 5200TIP3    H237016   2.103   4.843   0.307 -0.6361 -1.5290 -0.8722
 5201TIP3   OH237017   2.182   3.405  16.474 -0.5449 -0.4744 -0.8971
 5201TIP3    H137018   2.153   3.314  16.466 -0.6338 -0.6484  1.0097
 5201TIP3    H237019   2.261   3.401  16.528 -1.1876  0.6641  0.1676
 5202TIP3   OH237020   3.234   6.479  12.221 -0.1268  0.1766 -0.1225
 5202TIP3    H137021   3.277   6.556  12.257  1.8314 -0.2605 -1.3740
 5202TIP3    H237022   3.140   6.496  12.233  0.3127  1.7275  1.5976
 5203TIP3   OH237023   5.691   0.136  15.409 -0.0705 -0.2213  0.3759
 5203TIP3    H137024   5.740   0.180  15.340 -1.8172  0.2868 -0.5942
 5203TIP3    H237025   5.739   0.157  15.490 -0.3414  2.8009 -0.1351
 5204TIP3   OH237026   2.966   4.192  11.783  0.2957 -0.2162  0.4891
 5204TIP3    H137027   3.058   4.216  11.767  0.1325 -0.9776 -1.9985
 5204TIP3    H237028   2.916   4.244  11.721 -1.0618  0.5033  2.1069
 5205TIP3   OH237029   0.978   0.060  16.641 -0.7755  0.1631 -0.0066
 5205TIP3    H137030   1.057   0.103  16.607 -1.5177  1.3788 -0.2614
 5205TIP3    H237031   0.914   0.131  16.650 -1.2760 -0.4831  1.9525
 5206TIP3   OH237032   0.185   0.413   5.742  0.2934  0.0290 -0.5899
 5206TIP3    H137033   0.268   0.424   5.694  0.1543  0.4995 -0.7292
 5206TIP3    H237034   0.118   0.409   5.674  0.1959 -0.3553 -0.4768
 5207TIP3   OH237035   5.474   2.614  16.958 -0.2305  0.1129 -0.2058
 5207TIP3    H137036   5.529   2.553  16.909  0.4132  0.7308 -0.2807
 5207TIP3    H237037   5.385   2.584  16.943 -0.0365  0.1197 -1.5433
 5208TIP3   OH237038   4.108   0.569   2.812  0.1668 -0.4759 -0.5534
 5208TIP3    H137039   4.020   0.549   2.778  0.3534 -1.2693 -0.5990
 5208TIP3    H237040   4.094   0.581   2.906 -0.1762  0.6231 -0.7361
 5209TIP3   OH237041   0.837   5.883   4.196  0.6352 -0.5567  0.2326
 5209TIP3    H137042   0.824   5.881   4.101 -1.9197 -0.5176  0.5071
 5209TIP3    H237043   0.771   5.823   4.230  0.5730  0.4853  2.0617
 5210TIP3   OH237044   3.034   2.048  15.824 -0.3773  0.3885  0.2708
 5210TIP3    H137045   3.123   2.044  15.789 -0.5405 -0.3414 -0.0830
 5210TIP3    H237046   2.978   2.050  15.747 -0.7230 -0.6984  0.4770
 5211TIP3   OH237047   0.796   4.264   1.939 -0.8681 -0.3298 -0.5659
 5211TIP3    H137048   0.827   4.173   1.935 -0.7952 -0.4139  1.1198
 5211TIP3    H237049   0.865   4.310   1.987 -1.2480  0.4732 -0.7841
 5212TIP3   OH237050   6.611   1.603  12.138  0.0431 -0.7546  0.0688
 5212TIP3    H137051   6.703   1.629  12.145 -0.2642  0.1153  1.1276
 5212TIP3    H237052   6.602   1.571  12.049  1.0146  0.5846 -0.5392
 5213TIP3   OH237053   3.804   4.774   3.458  0.2687  0.1760  0.0573
 5213TIP3    H137054   3.769   4.823   3.532  0.4141  0.3971 -0.0209
 5213TIP3    H237055   3.782   4.826   3.381  0.3271  0.0656 -0.0347
 5214TIP3   OH237056   3.404   0.126  16.077 -0.0510 -0.1173 -0.4504
 5214TIP3    H137057   3.409   0.113  15.982  0.3326 -1.0023 -0.3155
 5214TIP3    H237058   3.454   0.206  16.092  0.6988 -0.4901 -0.8961
 5215TIP3   OH237059   1.656   3.500   5.771  0.7368 -0.3781  0.2166
 5215TIP3    H137060   1.737   3.454   5.748  1.4204  0.8742  0.0660
 5215TIP3    H237061   1.666   3.521   5.864  1.1937  0.9327 -0.1058
 5216TIP3   OH237062   0.476   2.025  10.400  0.2869  0.3157 -0.3066
 5216TIP3    H137063   0.537   1.953  10.382  1.3779 -0.2158  4.2610
 5216TIP3    H237064   0.389   1.986  10.389  0.8333 -2.1750  2.6172
 5217TIP3   OH237065   4.544   4.951   5.617  0.3721 -1.0999 -0.3864
 5217TIP3    H137066   4.633   4.986   5.608 -0.2517  0.6253 -0.2757
 5217TIP3    H237067   4.519   4.970   5.707 -0.8721  0.4423 -1.0055
 5218TIP3   OH237068   1.658   2.974  13.534  0.5297  0.2919  0.3967
 5218TIP3    H137069   1.592   2.936  13.476  0.6307  1.2910 -0.4125
 5218TIP3    H237070   1.742   2.947  13.497  0.5869  0.3512  0.4816
 5219TIP3   OH237071   1.490   4.288  10.786 -0.0496 -0.1196  0.1180
 5219TIP3    H137072   1.522   4.207  10.747  1.9039 -0.2643  1.8606
 5219TIP3    H237073   1.488   4.271  10.880 -0.7226  1.4840  0.4383
 5220TIP3   OH237074   2.891   3.565  13.480  0.2654 -0.2101  0.1950
 5220TIP3    H137075   2.962   3.503  13.465 -0.0904 -0.9175  1.2666
 5220TIP3    H237076   2.833   3.520  13.542 -1.0956  0.3654 -0.6170
 5221TIP3   OH237077   1.460   0.550   3.605 -0.4600  0.1842  0.3523
 5221TIP3    H137078   1.489   0.479   3.547 -0.4874 -0.5635  1.2220
 5221TIP3    H237079   1.370   0.568   3.577 -1.1598 -1.4896  1.3384
 5222TIP3   OH237080   5.785   4.866   4.666 -0.2173 -0.1695 -0.2492
 5222TIP3    H137081   5.764   4.862   4.760 -2.4719 -1.9896 -0.7560
 5222TIP3    H237082   5.807   4.958   4.651 -3.2129  0.9836  1.4606
 5223TIP3   OH237083   2.270   4.385   1.032 -0.5945 -0.3777 -0.4583
 5223TIP3    H137084   2.177   4.379   1.008 -0.7821  0.7374 -0.0770
 5223TIP3    H237085   2.274   4.458   1.094 -0.0659 -2.7565  2.5791
 5224TIP3   OH237086   3.976   4.941  16.312  0.2731 -0.2686 -0.3404
 5224TIP3    H137087   4.024   4.915  16.391 -0.5183  1.0763  0.6316
 5224TIP3    H237088   4.038   4.994  16.262  1.1291 -1.9879 -1.1990
 5225TIP3   OH237089   3.725   3.716  14.585  0.8007  0.0113 -0.0370
 5225TIP3    H137090   3.744   3.794  14.533  1.7828 -0.8102 -0.9648
 5225TIP3    H237091   3.638   3.689  14.558  0.9511  0.1036 -0.6239
 5226TIP3   OH237092   0.901   2.890  15.850  0.1664  0.3052  0.1596
 5226TIP3    H137093   0.897   2.972  15.801 -0.9120  0.7829  1.0147
 5226TIP3    H237094   0.899   2.822  15.783  0.5627  0.9656 -0.5344
 5227TIP3   OH237095   0.337   5.747   5.918 -0.5167  0.2609 -0.1013
 5227TIP3    H137096   0.387   5.686   5.971  2.1463  2.8671  0.6726
 5227TIP3    H237097   0.256   5.762   5.968  0.8645  0.8295  2.1179
 5228TIP3   OH237098   5.254   5.667  14.483  0.2378 -0.0282 -0.2782
 5228TIP3    H137099   5.236   5.582  14.444  2.2872 -1.4477  1.5665
 5228TIP3    H237100   5.322   5.705  14.428 -1.5826  1.1087 -1.8660
 5229TIP3   OH237101   5.513   2.450  11.947 -0.0871 -0.2498 -0.0210
 5229TIP3    H137102   5.482   2.494  11.868 -0.8765 -1.2811 -0.3074
 5229TIP3    H237103   5.475   2.499  12.019 -0.0122  0.2229 -0.2972
 5230TIP3   OH237104   6.092   4.249   5.480 -0.6046 -0.3870  0.0131
 5230TIP3    H137105   6.064   4.173   5.429 -0.6745  0.2951 -0.9929
 5230TIP3    H237106   6.014   4.303   5.488 -0.4740 -0.2590  0.4325
 5231TIP3   OH237107   2.938   3.968  13.321  0.0699 -0.1363 -0.1632
 5231TIP3    H137108   2.880   4.044  13.331  2.5638  1.7421  1.0985
 5231TIP3    H237109   2.940   3.928  13.409 -0.3509 -1.0398 -0.5476
 5232TIP3   OH237110   5.722   5.583   3.538 -0.3898 -0.1459  0.5215
 5232TIP3    H137111   5.744   5.505   3.486 -0.6236 -0.8267  1.4258
 5232TIP3    H237112   5.782   5.650   3.505  1.3058 -1.2669  1.1679
 5233TIP3   OH237113   5.609   2.868   6.006 -0.2125 -0.3943  0.1974
 5233TIP3    H137114   5.545   2.881   6.076 -1.2917 -1.0506 -0.6403
 5233TIP3    H237115   5.686   2.917   6.035 -1.5832  1.6959  0.5525
 5234TIP3   OH237116   4.546   2.379   4.717  0.3320 -0.2909 -0.3854
 5234TIP3    H137117   4.532   2.298   4.766  1.1237  0.3209  0.9200
 5234TIP3    H237118   4.641   2.394   4.723  0.0265  1.4685  0.6469
 5235TIP3   OH237119   1.906   6.009  13.011 -0.2470 -0.5733 -0.5905
 5235TIP3    H137120   1.872   5.920  13.011  0.2570 -0.7752  0.5501
 5235TIP3    H237121   1.886   6.042  12.923  0.3325 -2.0919 -1.3150
 5236TIP3   OH237122   2.272   4.839  15.058  0.3746  0.1221 -0.8490
 5236TIP3    H137123   2.249   4.930  15.041  0.4135 -0.0153 -1.6534
 5236TIP3    H237124   2.223   4.789  14.993  0.3246 -0.4402 -0.3891
 5237TIP3   OH237125   2.440   5.273  12.746 -0.2382 -0.2827 -0.2808
 5237TIP3    H137126   2.365   5.257  12.802 -0.9082  1.3337 -0.6844
 5237TIP3    H237127   2.434   5.206  12.678 -0.9863 -0.5067  0.0019
 5238TIP3   OH237128   3.340   4.823   1.899  0.3950 -0.1494 -0.2879
 5238TIP3    H137129   3.406   4.755   1.914  1.1315  0.7249  0.5123
 5238TIP3    H237130   3.276   4.809   1.969  1.6245  1.2512  1.1748
 5239TIP3   OH237131   3.548   1.530  11.904 -0.3035  0.6374  0.2827
 5239TIP3    H137132   3.490   1.454  11.910 -1.5246  1.6406  3.4161
 5239TIP3    H237133   3.514   1.580  11.830 -1.2105 -0.5117 -0.1161
 5240TIP3   OH237134   6.522   6.125   4.482 -0.1700 -0.0438  0.3707
 5240TIP3    H137135   6.485   6.043   4.448  0.1513 -0.7990  1.7665
 5240TIP3    H237136   6.449   6.167   4.527 -0.5645  0.9014 -1.0665
 5241TIP3   OH237137   3.491   0.037   4.766  0.8533  0.1785 -0.3339
 5241TIP3    H137138   3.568   0.077   4.727  2.2827 -1.7168  0.3869
 5241TIP3    H237139   3.507   0.043   4.861  0.6483 -1.1784 -0.2020
 5242TIP3   OH237140   6.420   1.145  15.696  0.1291 -0.2779 -0.5360
 5242TIP3    H137141   6.372   1.087  15.636  0.6278  0.4349 -1.6455
 5242TIP3    H237142   6.353   1.202  15.733 -0.0457 -0.0692 -1.1720
 5243TIP3   OH237143   4.987   5.120  14.370 -0.0171 -0.4752  0.2785
 5243TIP3    H137144   5.063   5.087  14.419 -0.6190 -0.8453  0.9711
 5243TIP3    H237145   4.912   5.095  14.423 -0.5972  0.3682 -0.1399
 5244TIP3   OH237146   4.113   1.870  13.357 -0.4773 -0.4915  0.2290
 5244TIP3    H137147   4.116   1.783  13.318  1.0116 -0.3650 -0.0072
 5244TIP3    H237148   4.160   1.860  13.440 -0.5774  0.0135  0.3481
 5245TIP3   OH237149   1.505   4.047   1.749 -0.6183 -0.0357 -0.8122
 5245TIP3    H137150   1.473   4.114   1.808 -0.4995 -0.1762 -0.5871
 5245TIP3    H237151   1.455   3.968   1.771  0.9464 -0.6881  0.6251
 5246TIP3   OH237152   5.737   4.557  14.717 -0.1603 -0.2718  0.1341
 5246TIP3    H137153   5.815   4.555  14.773  0.3801  0.8531 -0.5332
 5246TIP3    H237154   5.771   4.543  14.629 -0.8256 -0.5942 -0.0763
 5247TIP3   OH237155   1.240   5.708  10.910 -0.1798  0.1101  0.3469
 5247TIP3    H137156   1.242   5.623  10.866  1.3112 -0.1839  0.8960
 5247TIP3    H237157   1.148   5.733  10.911 -0.4434 -0.6760 -1.3724
 5248TIP3   OH237158   1.934   5.049   2.046  0.6750  0.1696  0.2371
 5248TIP3    H137159   1.972   5.137   2.054  1.3770 -0.2433  1.8915
 5248TIP3    H237160   1.858   5.051   2.103  1.2037 -0.5480  0.9821
 5249TIP3   OH237161   3.301   3.769   1.531 -0.4607  0.3812 -0.1465
 5249TIP3    H137162   3.388   3.786   1.568 -0.4258  1.3122 -0.6182
 5249TIP3    H237163   3.267   3.695   1.581 -0.3565  1.5079  1.6719
 5250TIP3   OH237164   4.146   3.888  17.018 -0.3194 -0.5609  0.0779
 5250TIP3    H137165   4.061   3.888  17.061 -0.0748 -1.1048  0.5730
 5250TIP3    H237166   4.175   3.980  17.022 -0.4926 -0.5268  0.6893
 5251TIP3   OH237167   0.660   4.945  13.139  0.0174 -0.4304 -0.6062
 5251TIP3    H137168   0.699   5.031  13.154  1.1822 -1.1544  0.8489
 5251TIP3    H237169   0.565   4.961  13.139  0.1814  0.7197  0.6670
 5252TIP3   OH237170   1.591   1.013   4.207 -0.1172  0.1036 -0.7979
 5252TIP3    H137171   1.685   0.997   4.220 -0.1856 -0.3980 -0.8959
 5252TIP3    H237172   1.583   1.108   4.202  0.7965  0.1279 -3.8833
 5253TIP3   OH237173   3.999   0.325   0.236 -0.0492 -0.3674  0.4542
 5253TIP3    H137174   4.068   0.291   0.294  0.4506  1.3591  0.9316
 5253TIP3    H237175   3.918   0.313   0.286  0.2164 -0.1097  0.9503
 5254TIP3   OH237176   3.418   4.358  12.581  0.5878 -0.0001 -0.1457
 5254TIP3    H137177   3.324   4.354  12.599  0.7953 -0.1867  0.9790
 5254TIP3    H237178   3.459   4.318  12.657  1.6110  0.5901 -0.3580
 5255TIP3   OH237179   3.050   3.917  15.476  0.2442 -0.5222  0.0580
 5255TIP3    H137180   2.981   3.957  15.422 -1.8241 -2.1152  1.3425
 5255TIP3    H237181   3.055   3.971  15.554 -2.0271 -2.1539  1.4607
 5256TIP3   OH237182   2.801   0.548  12.178 -0.1376  0.5616  0.4319
 5256TIP3    H137183   2.821   0.463  12.140  0.4114  0.9319 -0.1309
 5256TIP3    H237184   2.834   0.542  12.268 -0.7761 -0.0677  0.6315
 5257TIP3   OH237185   1.009   2.474   1.015 -0.5595 -0.3162  0.0190
 5257TIP3    H137186   0.982   2.551   0.966  0.0758 -0.2968 -0.3097
 5257TIP3    H237187   1.087   2.501   1.063 -0.1375 -0.8468 -0.3580
 5258TIP3   OH237188   0.230   6.560  14.054  0.0932 -0.2375 -0.6518
 5258TIP3    H137189   0.187   6.529  13.974  0.0923  2.3416 -1.7424
 5258TIP3    H237190   0.314   6.595  14.024  0.6851 -0.4242  0.6967
 5259TIP3   OH237191   6.642   1.048  17.040  0.1049  0.0877 -0.4440
 5259TIP3    H137192   6.576   0.988  17.073 -0.4289 -0.7364 -2.8425
 5259TIP3    H237193   6.594   1.129  17.020  0.2869  0.3181  0.0237
 5260TIP3   OH237194   1.395   2.542  13.948  0.0503  0.1119  0.2043
 5260TIP3    H137195   1.448   2.462  13.952  1.3987  1.0010  1.7415
 5260TIP3    H237196   1.369   2.549  13.857 -0.1770 -2.1058  0.0344
 5261TIP3   OH237197   0.024   3.395  15.496 -0.1093  0.2057  0.2141
 5261TIP3    H137198   0.050   3.485  15.476  0.7376 -0.2445 -0.8020
 5261TIP3    H237199   0.107   3.347  15.501 -0.5973 -0.7110 -0.2542
 5262TIP3   OH237200   0.754   2.441  12.777  0.1787 -0.1753 -0.0878
 5262TIP3    H137201   0.659   2.452  12.780  0.3724  1.6972  0.3467
 5262TIP3    H237202   0.780   2.427  12.868  0.3142 -1.0894 -0.2484
 5263TIP3   OH237203   2.934   5.567  16.621  0.2613 -0.8284 -0.1689
 5263TIP3    H137204   2.918   5.516  16.700 -1.5532 -0.1959 -0.0965
 5263TIP3    H237205   2.889   5.518  16.552  0.0374 -0.2663 -0.4234
 5264TIP3   OH237206   4.902   0.847   6.304 -0.5476 -0.3171 -0.1883
 5264TIP3    H137207   4.879   0.876   6.215  0.9944  1.9576  0.0570
 5264TIP3    H237208   4.986   0.889   6.321 -2.1914  1.9455  3.4851
 5265TIP3   OH237209   1.958   2.455   1.530  0.0862  0.2408 -0.3595
 5265TIP3    H137210   1.978   2.545   1.503  1.4811 -0.5737 -2.2036
 5265TIP3    H237211   1.908   2.418   1.458  1.3012 -1.0819 -0.5572
 5266TIP3   OH237212   0.912   4.149  14.680  0.4064 -0.2093 -0.8842
 5266TIP3    H137213   0.912   4.081  14.613  0.8410 -1.8452  0.7239
 5266TIP3    H237214   0.895   4.103  14.762 -0.4309  1.7830  0.1227
 5267TIP3   OH237215   4.336   5.276  10.578 -0.0977 -0.1284  0.5423
 5267TIP3    H137216   4.431   5.285  10.564  0.1377 -0.1729  1.9785
 5267TIP3    H237217   4.310   5.357  10.621 -0.2999 -1.0102  2.1251
 5268TIP3   OH237218   1.542   5.303   1.726  0.0900 -0.3293  0.3961
 5268TIP3    H137219   1.518   5.388   1.762 -3.5244 -1.2752  0.6190
 5268TIP3    H237220   1.612   5.271   1.784  0.0941  1.5915  1.5179
 5269TIP3   OH237221   5.064   0.488   2.698  0.4303 -0.3216  0.6915
 5269TIP3    H137222   5.067   0.544   2.620 -1.5066  0.6257  1.2357
 5269TIP3    H237223   5.119   0.534   2.762  1.0151 -0.4635  0.3077
 5270TIP3   OH237224   4.253   2.853   1.180  0.3218 -0.3643 -0.1501
 5270TIP3    H137225   4.325   2.913   1.201 -0.5667  0.1732  1.5925
 5270TIP3    H237226   4.267   2.778   1.238 -1.0679  0.2268  1.0221
 5271TIP3   OH237227   0.984   4.799   2.191 -0.2168  0.1399  0.5392
 5271TIP3    H137228   1.029   4.740   2.252  0.4025  0.2774  0.2262
 5271TIP3    H237229   1.044   4.805   2.116 -1.4354 -0.8677 -0.5587
 5272TIP3   OH237230   2.826   4.451  16.097  0.5768 -0.6780  0.6136
 5272TIP3    H137231   2.774   4.417  16.169 -0.6153  0.0871  0.1344
 5272TIP3    H237232   2.861   4.534  16.130  1.8516 -1.3755  1.0756
 5273TIP3   OH237233   4.938   3.833   5.597 -0.3976 -0.0296  0.3135
 5273TIP3    H137234   4.950   3.864   5.508 -1.1899 -1.4751 -0.3421
 5273TIP3    H237235   4.992   3.753   5.602 -0.9167 -0.3574  0.8835
 5274TIP3   OH237236   4.211   6.556  17.116  0.2496 -0.1322 -0.3266
 5274TIP3    H137237   4.181   6.575  17.027 -0.2589  1.9442  0.2379
 5274TIP3    H237238   4.131   6.534  17.164  0.1646  1.1102  0.1461
 5275TIP3   OH237239   1.231   3.379  11.718 -0.0343  0.3488 -0.0545
 5275TIP3    H137240   1.256   3.302  11.769 -0.2940  1.2693  1.5116
 5275TIP3    H237241   1.235   3.350  11.627  1.7008 -0.9821  0.4016
 5276TIP3   OH237242   0.001   5.558  12.812  0.3109  0.3973 -0.0510
 5276TIP3    H137243  -0.092   5.574  12.832  0.3377 -0.9601  1.3316
 5276TIP3    H237244   0.016   5.468  12.842  2.3740  0.9955  0.8393
 5277TIP3   OH237245   2.494   2.492   4.482  0.3318 -0.4414  0.2661
 5277TIP3    H137246   2.488   2.409   4.528  0.2355 -1.5295 -1.6012
 5277TIP3    H237247   2.568   2.482   4.422  0.1199  0.6952 -0.2229
 5278TIP3   OH237248   3.917   4.103   2.512  0.7179  0.4649 -0.2115
 5278TIP3    H137249   3.847   4.167   2.502 -0.6907 -0.8492  0.7636
 5278TIP3    H237250   3.875   4.029   2.557  2.3230 -1.0517 -1.1126
 5279TIP3   OH237251   0.543   4.975   2.092  0.2482 -0.0472 -0.3027
 5279TIP3    H137252   0.550   4.883   2.117 -2.4813  0.0588  1.2547
 5279TIP3    H237253   0.484   4.976   2.016  1.3269  0.3668 -1.1749
 5280TIP3   OH237254   6.295   4.576  15.974  0.3348  0.1650  0.1426
 5280TIP3    H137255   6.351   4.623  16.035  0.4607 -0.9268  0.8979
 5280TIP3    H237256   6.329   4.599  15.887  0.9807  0.7003  0.5301
 5281TIP3   OH237257   3.009   1.302  13.911 -0.0456 -0.2235 -0.0659
 5281TIP3    H137258   3.052   1.255  13.840 -0.0820 -1.5390  0.7492
 5281TIP3    H237259   3.080   1.343  13.959  0.1322 -0.7377  0.1159
 5282TIP3   OH237260   0.164   5.243  10.949 -0.2625  0.6125 -0.3412
 5282TIP3    H137261   0.246   5.195  10.959 -0.0032  1.0866 -0.1358
 5282TIP3    H237262   0.104   5.202  11.011 -0.6891 -0.7843 -1.6149
 5283TIP3   OH237263   5.899   5.669  12.422  0.4812  0.3432  0.3668
 5283TIP3    H137264   5.853   5.622  12.492  1.0436  0.5681  0.9024
 5283TIP3    H237265   5.991   5.645  12.434  0.5541  0.1379 -0.4975
 5284TIP3   OH237266   4.212   1.062   0.196 -0.1844 -0.0368 -0.1774
 5284TIP3    H137267   4.125   1.066   0.234 -0.4457  1.1446 -0.8600
 5284TIP3    H237268   4.267   1.024   0.266 -1.3200 -1.3299  0.0520
 5285TIP3   OH237269   1.522   2.453  11.103  0.4662 -0.6749 -0.0468
 5285TIP3    H137270   1.520   2.380  11.166  0.3565  0.2183  1.0067
 5285TIP3    H237271   1.439   2.498  11.116  1.4795  0.9996  0.9780
 5286TIP3   OH237272   5.301   2.914   0.003  0.1741 -0.8337 -0.1160
 5286TIP3    H137273   5.234   2.974   0.037  0.7687 -0.2686  0.0698
 5286TIP3    H237274   5.267   2.887  -0.083 -0.6319 -1.1171  0.2796
 5287TIP3   OH237275   5.205   5.305  12.623 -0.1074  0.6164 -0.3789
 5287TIP3    H137276   5.145   5.306  12.548 -1.5798 -0.7967  0.7014
 5287TIP3    H237277   5.187   5.387  12.669  0.2962  1.1644 -1.1854
 5288TIP3   OH237278   5.596   5.128  11.466 -0.0917  0.1235 -0.0376
 5288TIP3    H137279   5.654   5.052  11.457  0.1723  0.2345  0.7102
 5288TIP3    H237280   5.642   5.198  11.419 -1.4398 -0.7302 -2.8378
 5289TIP3   OH237281   5.251   3.520  12.321  0.2436  0.4007  0.1092
 5289TIP3    H137282   5.214   3.497  12.236 -1.6238  3.2207  0.0344
 5289TIP3    H237283   5.198   3.472  12.384 -1.1772  1.5517 -0.1721
 5290TIP3   OH237284   3.390   0.362   0.352  1.4193  0.0445  0.0004
 5290TIP3    H137285   3.333   0.422   0.398  0.9308 -1.0955  0.9338
 5290TIP3    H237286   3.449   0.327   0.419  1.7933 -0.4089 -0.5450
 5291TIP3   OH237287   0.047   4.155   1.865 -0.2286  0.0723  0.1882
 5291TIP3    H137288  -0.048   4.153   1.876 -0.1456  1.1672  1.2945
 5291TIP3    H237289   0.062   4.107   1.784 -1.6330 -1.0124  0.5283
 5292TIP3   OH237290   1.670   4.841  15.061  0.4244  0.2144  0.1295
 5292TIP3    H137291   1.671   4.833  14.966  0.0936  1.1361  0.0348
 5292TIP3    H237292   1.759   4.867  15.084 -0.0515  2.3117 -0.1846
 5293TIP3   OH237293   4.130   6.490  16.784 -0.5252 -0.3654  0.2726
 5293TIP3    H137294   4.203   6.431  16.765 -1.0039 -0.3896 -1.7476
 5293TIP3    H237295   4.168   6.577  16.784 -0.2560 -0.4758  0.7494
 5294TIP3   OH237296   6.763   2.029   3.250 -0.1941  0.2219 -0.1382
 5294TIP3    H137297   6.764   2.103   3.310  0.3091  0.9581 -1.0185
 5294TIP3    H237298   6.712   2.060   3.175  0.9721  0.1122 -1.0166
 5295TIP3   OH237299   3.602   2.775  11.575 -0.2513  0.6434 -0.4739
 5295TIP3    H137300   3.638   2.846  11.627 -0.4786  0.2950  0.1737
 5295TIP3    H237301   3.657   2.771  11.497  0.5187  0.7317  0.0608
 5296TIP3   OH237302   5.738   5.335   0.425  0.1015 -0.4199  0.3040
 5296TIP3    H137303   5.652   5.312   0.459  0.4898 -2.7921 -0.1520
 5296TIP3    H237304   5.789   5.254   0.431  1.8852  0.5529 -0.7219
 5297TIP3   OH237305   2.551   6.401  12.996 -0.3885 -0.1646  0.0950
 5297TIP3    H137306   2.503   6.341  12.939  0.9577  1.2141 -2.7029
 5297TIP3    H237307   2.492   6.476  13.007  0.2847  0.6966 -1.7583
 5298TIP3   OH237308   0.720   0.594   0.393  0.5131 -0.1787 -0.2802
 5298TIP3    H137309   0.780   0.667   0.406 -0.8068  0.9501 -0.3055
 5298TIP3    H237310   0.633   0.635   0.387 -0.5126 -1.8728  1.6647
 5299TIP3   OH237311   4.963   3.990  13.300  0.1512  0.9336 -0.2913
 5299TIP3    H137312   4.901   3.991  13.373  0.0489  2.2640 -0.3729
 5299TIP3    H237313   5.025   4.059  13.320  1.9055 -0.6635  0.0060
 5300TIP3   OH237314   5.669   5.310  14.404 -0.3211  0.4173 -0.3573
 5300TIP3    H137315   5.685   5.289  14.312  1.7561 -1.4653  0.3391
 5300TIP3    H237316   5.597   5.373  14.402 -0.2058  0.6023 -3.2612
 5301TIP3   OH237317   6.366   0.649   3.700 -0.6663  0.4960  0.4594
 5301TIP3    H137318   6.397   0.616   3.616  0.7759  0.4244  0.9930
 5301TIP3    H237319   6.274   0.673   3.685 -1.1952 -1.9106 -0.4526
 5302TIP3   OH237320   4.336   6.405   3.679  0.3922 -0.3117 -0.5083
 5302TIP3    H137321   4.353   6.492   3.716 -2.5859  0.3381 -0.4367
 5302TIP3    H237322   4.364   6.344   3.748  1.3219  0.6278 -0.0323
 5303TIP3   OH237323   2.431   2.248  16.918  0.2209 -0.1648 -0.1557
 5303TIP3    H137324   2.347   2.205  16.902  0.4035 -0.5859  0.0180
 5303TIP3    H237325   2.407   2.338  16.941 -0.1665 -0.1972 -0.4167
 5304TIP3   OH237326   6.573   1.515  14.449 -0.9561 -0.0183 -0.3072
 5304TIP3    H137327   6.486   1.479  14.463 -0.4627 -1.0433  0.2287
 5304TIP3    H237328   6.568   1.604  14.485 -1.9052  0.1139 -0.7298
 5305TIP3   OH237329   5.476   6.454   4.657  0.1611  0.4592 -0.3800
 5305TIP3    H137330   5.387   6.487   4.666 -0.4917 -1.3409  0.3465
 5305TIP3    H237331   5.516   6.469   4.743  0.4489  0.9365 -0.5936
 5306TIP3   OH237332   1.807   5.722  16.180  0.1536 -0.3456 -0.0409
 5306TIP3    H137333   1.752   5.675  16.243  0.2899 -0.1222  0.2467
 5306TIP3    H237334   1.857   5.783  16.233  0.6157 -0.4853 -0.3150
 5307TIP3   OH237335   0.055   2.032  16.544 -0.2678 -0.4669 -0.0391
 5307TIP3    H137336   0.053   2.006  16.636  0.1477 -3.3624 -0.7459
 5307TIP3    H237337  -0.026   1.997  16.507 -1.8919  3.1474 -0.3102
 5308TIP3   OH237338   6.292   6.626   4.398  0.1222  0.1420 -0.1704
 5308TIP3    H137339   6.305   6.599   4.308 -0.0273  0.4229 -0.2781
 5308TIP3    H237340   6.231   6.700   4.393  0.6930  0.6450  0.0921
 5309TIP3   OH237341   2.218   4.036  16.388  0.9220 -0.0091 -0.1509
 5309TIP3    H137342   2.271   3.956  16.384 -0.3690 -1.0125  1.5108
 5309TIP3    H237343   2.156   4.020  16.459  0.7326  2.5580  0.3504
 5310TIP3   OH237344   2.592   3.851  17.001  0.1754  0.5869 -0.1245
 5310TIP3    H137345   2.636   3.872  16.919  2.5170 -1.6641  0.4596
 5310TIP3    H237346   2.578   3.756  16.998 -4.1586  0.9874  0.0680
 5311TIP3   OH237347   1.598   1.959   0.250 -0.1694 -0.3930  0.2075
 5311TIP3    H137348   1.525   1.974   0.310 -0.6454  1.1492 -0.7117
 5311TIP3    H237349   1.652   1.894   0.295 -1.0104 -0.0157  1.8617
 5312TIP3   OH237350   0.219   2.079   0.583 -0.1285  0.2345 -0.1910
 5312TIP3    H137351   0.173   2.156   0.616 -0.8891 -0.4418  0.3850
 5312TIP3    H237352   0.171   2.005   0.621  2.3668 -0.5326  1.7301
 5313TIP3   OH237353   3.914   0.056   3.169  0.8135 -0.1429  0.4745
 5313TIP3    H137354   3.944   0.069   3.259  1.1281 -0.6053  0.4399
 5313TIP3    H237355   3.837   0.112   3.162  0.8610 -0.0004  0.9925
 5314TIP3   OH237356   2.516   3.996  14.005 -0.2989  0.3300  0.3546
 5314TIP3    H137357   2.532   4.042  13.923 -1.4118  2.2355  1.1539
 5314TIP3    H237358   2.551   4.054  14.072  0.4644 -1.1380  1.2612
 5315TIP3   OH237359   4.384   0.629  15.214 -0.1721 -0.7044  0.0792
 5315TIP3    H137360   4.472   0.668  15.212  0.3466 -1.8662 -0.4555
 5315TIP3    H237361   4.326   0.704  15.231  0.8670  0.1581 -0.0119
 5316TIP3   OH237362   1.126   5.281   4.026  0.3512  0.2434 -0.1603
 5316TIP3    H137363   1.121   5.352   3.962 -0.5775  0.1643 -0.1952
 5316TIP3    H237364   1.165   5.322   4.103 -0.8536  1.0151  0.0815
 5317TIP3   OH237365   2.792   0.276   4.497 -0.1484 -0.3704 -0.1593
 5317TIP3    H137366   2.781   0.278   4.401  2.5103  0.6297 -0.5352
 5317TIP3    H237367   2.772   0.365   4.525 -0.7999 -0.6314  0.2221
 5318TIP3   OH237368   4.373   4.003  10.682  0.1582 -0.6532  0.1058
 5318TIP3    H137369   4.414   3.989  10.596 -1.0131  1.1063 -0.8122
 5318TIP3    H237370   4.441   4.047  10.734  0.1124  0.5194 -0.7768
 5319TIP3   OH237371   3.458   4.287  15.915 -0.2578 -0.1405  0.7067
 5319TIP3    H137372   3.510   4.242  15.981 -0.0981 -1.6212 -0.3597
 5319TIP3    H237373   3.521   4.314  15.848 -0.7088 -1.1833 -0.1781
 5320TIP3   OH237374   5.470   4.159  14.359 -0.2316  0.9252  0.3113
 5320TIP3    H137375   5.471   4.065  14.338 -2.6962  0.6041  1.2211
 5320TIP3    H237376   5.410   4.197  14.295 -0.3937  1.6145  0.8628
 5321TIP3   OH237377   2.746   0.850  16.606  0.0272  0.0551 -0.2781
 5321TIP3    H137378   2.713   0.813  16.524  0.6264  1.3773 -1.1414
 5321TIP3    H237379   2.801   0.923  16.579 -1.2714  1.7233  1.3691
 5322TIP3   OH237380   3.749   4.970   5.651  0.4202 -0.1687 -0.2140
 5322TIP3    H137381   3.681   4.977   5.584 -0.0921 -1.7362  0.0993
 5322TIP3    H237382   3.805   5.046   5.636 -1.3384  1.1328 -0.5330
 5323TIP3   OH237383   5.821   5.669   4.028  0.2229 -0.3682 -0.6070
 5323TIP3    H137384   5.782   5.752   4.000  0.9572 -0.1107 -0.9039
 5323TIP3    H237385   5.768   5.601   3.987  0.8847 -0.0084 -2.1113
 5324TIP3   OH237386   2.706   1.577   5.361  0.4773 -0.1603 -0.1771
 5324TIP3    H137387   2.793   1.560   5.399  1.0044  2.5702  0.0710
 5324TIP3    H237388   2.689   1.669   5.381 -1.7442 -0.1550 -1.7332
 5325TIP3   OH237389   2.587   4.238   4.319 -1.0675 -0.0151 -0.1814
 5325TIP3    H137390   2.497   4.253   4.293 -1.5409  0.3724  1.5570
 5325TIP3    H237391   2.596   4.284   4.402  1.0792  0.9361 -0.8773
 5326TIP3   OH237392   0.246   4.550   2.084 -0.5003  0.0843 -0.3995
 5326TIP3    H137393   0.261   4.593   2.000 -1.1444  0.0441 -0.5434
 5326TIP3    H237394   0.243   4.456   2.063  0.8567 -0.0466 -0.0941
 5327TIP3   OH237395   1.222   0.144   5.342  0.2350 -0.0658 -0.5716
 5327TIP3    H137396   1.211   0.075   5.408 -2.0682  0.3462 -0.4307
 5327TIP3    H237397   1.239   0.223   5.394 -2.5935  0.4602 -0.2856
 5328TIP3   OH237398   3.971   2.868   6.199  0.7000  0.2444  0.0580
 5328TIP3    H137399   3.964   2.962   6.181 -1.0584  0.8685  3.1995
 5328TIP3    H237400   3.917   2.826   6.131  1.7927  1.4060 -1.5994
 5329TIP3   OH237401   3.229   6.765   1.854 -0.2888 -0.4112  0.1692
 5329TIP3    H137402   3.292   6.694   1.860  0.2812  0.1629  4.0379
 5329TIP3    H237403   3.167   6.748   1.925 -0.9546  2.1748  0.3176
 5330TIP3   OH237404   0.476   3.040   1.877 -0.6213 -0.1385  0.3241
 5330TIP3    H137405   0.443   2.994   1.799 -0.6938 -0.2683  0.4308
 5330TIP3    H237406   0.479   2.973   1.945  0.0386 -0.1723  0.2696
 5331TIP3   OH237407   2.822   1.982   5.926  0.5000 -0.0111 -0.4972
 5331TIP3    H137408   2.780   1.899   5.952 -0.6164  0.3851 -0.9537
 5331TIP3    H237409   2.916   1.966   5.937  0.2926 -1.2623 -0.3578
 5332TIP3   OH237410   0.781   6.074   4.406  0.4119 -0.1313  0.1451
 5332TIP3    H137411   0.707   6.038   4.357  0.5229  0.5536 -0.5449
 5332TIP3    H237412   0.849   6.086   4.340  0.7223  0.3807  0.5558
 5333TIP3   OH237413   5.832   0.119  13.606 -0.4669  0.1107 -0.8362
 5333TIP3    H137414   5.915   0.159  13.580 -0.4888  0.2715 -0.6576
 5333TIP3    H237415   5.803   0.071  13.528  0.4525 -1.0457 -0.4790
 5334TIP3   OH237416   1.129   1.728  10.490 -0.1444  0.0435  0.3050
 5334TIP3    H137417   1.121   1.767  10.402 -1.4943 -0.6734  0.0859
 5334TIP3    H237418   1.049   1.755  10.535 -0.6099 -1.5737  0.5024
 5335TIP3   OH237419   3.632   5.228   2.345 -0.2502  0.2121  0.0603
 5335TIP3    H137420   3.562   5.164   2.328  0.7733 -0.7728 -0.5818
 5335TIP3    H237421   3.586   5.306   2.376 -1.5263 -0.9579  1.2770
 5336TIP3   OH237422   2.236   0.140   3.966  0.3183 -0.0785 -0.0893
 5336TIP3    H137423   2.152   0.124   3.924  1.3337  0.2036 -2.4298
 5336TIP3    H237424   2.299   0.140   3.894  2.0610  1.7474  1.2934
 5337TIP3   OH237425   0.179   5.564   3.192 -0.2185 -0.0319  0.6093
 5337TIP3    H137426   0.273   5.553   3.178  0.0857  0.5558  2.0212
 5337TIP3    H237427   0.164   5.657   3.181 -0.6055 -0.0967  0.5887
 5338TIP3   OH237428   4.650   5.457  16.003 -0.8731  0.8185  0.4779
 5338TIP3    H137429   4.651   5.450  16.098 -0.3339  0.3290  0.4419
 5338TIP3    H237430   4.714   5.393  15.973 -2.1226 -0.1498 -0.2729
 5339TIP3   OH237431   1.239   0.314   3.586  0.1206  0.0903  0.4077
 5339TIP3    H137432   1.182   0.251   3.630 -0.4414 -0.5866 -1.1885
 5339TIP3    H237433   1.325   0.272   3.586 -0.2900 -0.8330 -0.8241
 5340TIP3   OH237434   1.840   2.960   1.280  0.3766 -0.1241  0.0371
 5340TIP3    H137435   1.794   3.016   1.342 -0.5945 -1.2603  0.3853
 5340TIP3    H237436   1.876   2.890   1.333 -0.5953 -1.1961 -0.6620
 5341TIP3   OH237437   6.203   1.168   1.472 -0.1327 -0.4766  0.2908
 5341TIP3    H137438   6.230   1.240   1.415  0.1046 -1.0305 -0.3136
 5341TIP3    H237439   6.244   1.090   1.434 -2.3054 -1.3157 -0.5025
 5342TIP3   OH237440   4.344   4.102  16.979 -0.2068 -0.6897 -0.0542
 5342TIP3    H137441   4.433   4.072  16.960 -0.7334 -3.1098  1.0073
 5342TIP3    H237442   4.314   4.140  16.896  1.1243 -1.6333 -1.0193
 5343TIP3   OH237443   2.012   4.528   3.924 -0.1421  0.4337 -0.0179
 5343TIP3    H137444   2.089   4.550   3.977  0.4262 -1.8774  0.2163
 5343TIP3    H237445   1.952   4.602   3.937  2.0552  2.3919 -0.3453
 5344TIP3   OH237446   0.724   5.819  15.728 -0.1211 -0.2293  0.3688
 5344TIP3    H137447   0.683   5.787  15.808  1.0237  1.6110  1.7770
 5344TIP3    H237448   0.818   5.811  15.744  0.1446 -1.2030 -1.4181
 5345TIP3   OH237449   2.582   5.195   0.133 -0.0826 -0.1909 -1.2335
 5345TIP3    H137450   2.522   5.265   0.106 -0.0511  0.0044 -0.8010
 5345TIP3    H237451   2.637   5.235   0.200 -0.5045 -0.8194 -0.5075
 5346TIP3   OH237452   4.649   1.434  16.056  0.2231 -0.2880  0.3003
 5346TIP3    H137453   4.594   1.421  16.134  0.3229  0.8310  0.5635
 5346TIP3    H237454   4.641   1.351  16.008 -1.7542 -0.1481  0.3022
 5347TIP3   OH237455   5.537   5.528  16.587  0.2556 -0.3048 -0.3385
 5347TIP3    H137456   5.544   5.485  16.502  1.1647 -0.9633  0.0461
 5347TIP3    H237457   5.604   5.596  16.585  1.4264 -1.3849  0.4231
 5348TIP3   OH237458   0.469   0.909  12.259 -0.6421 -0.0032  0.0251
 5348TIP3    H137459   0.453   0.869  12.345  0.4495 -1.0930 -0.2470
 5348TIP3    H237460   0.425   0.994  12.263 -0.9362 -0.2024  1.5173
 5349TIP3   OH237461   5.064   3.069  15.475 -0.1709 -0.0589  0.0126
 5349TIP3    H137462   5.129   3.047  15.409  1.8397  1.8148  1.2412
 5349TIP3    H237463   5.021   3.148  15.441  0.5760  0.6631  0.6994
 5350TIP3   OH237464   4.564   6.103   5.981  0.7318 -0.5532 -0.1098
 5350TIP3    H137465   4.515   6.071   6.058 -0.0897 -0.6731 -0.6641
 5350TIP3    H237466   4.509   6.077   5.907  0.2615  1.7254 -0.6203
 5351TIP3   OH237467   1.254   2.880  12.935  0.5396  0.2512  0.2232
 5351TIP3    H137468   1.325   2.940  12.913  1.1361 -0.8929 -1.2086
 5351TIP3    H237469   1.201   2.876  12.855  0.7267 -1.3666  0.1479
 5352TIP3   OH237470   0.789   1.714   6.464 -0.0307  0.3973  0.2190
 5352TIP3    H137471   0.838   1.661   6.526 -1.0394  0.0432  0.7357
 5352TIP3    H237472   0.732   1.768   6.518 -1.1377 -0.1249 -0.3966
 5353TIP3   OH237473   5.717   0.269   4.687  0.1303  0.7841  0.3731
 5353TIP3    H137474   5.628   0.304   4.682 -0.2968 -0.1119  1.4351
 5353TIP3    H237475   5.728   0.224   4.603 -0.3578  1.0147  0.1741
 5354TIP3   OH237476   1.182   2.455  15.503 -0.0009  0.2358 -0.1334
 5354TIP3    H137477   1.092   2.424  15.491  0.5148 -1.2751 -0.3984
 5354TIP3    H237478   1.198   2.448  15.597 -0.1481  0.4911 -0.0879
 5355TIP3   OH237479   5.187   5.036   3.159 -0.5165 -0.2774 -0.2097
 5355TIP3    H137480   5.186   5.131   3.161  2.1374 -0.1814  1.3675
 5355TIP3    H237481   5.278   5.013   3.141 -0.4646 -2.4493  2.2128
 5356TIP3   OH237482   3.113   4.216  11.034  0.0818  0.8488 -0.1604
 5356TIP3    H137483   3.174   4.211  10.960  1.7620 -0.9087  1.2344
 5356TIP3    H237484   3.109   4.309  11.056  0.5185  1.2467 -1.6552
 5357TIP3   OH237485   5.220   2.613  13.549  0.4465  0.5572  0.0806
 5357TIP3    H137486   5.214   2.610  13.453 -0.1991  1.2839  0.0893
 5357TIP3    H237487   5.139   2.572  13.579  1.0337 -0.4443  0.3353
 5358TIP3   OH237488   2.477   2.445   2.232  0.3222  0.1385  0.1397
 5358TIP3    H137489   2.387   2.424   2.252  0.1408  2.0109  1.5695
 5358TIP3    H237490   2.476   2.539   2.211  2.0388  0.4446  1.1569
 5359TIP3   OH237491   2.324   2.882  11.295  0.4731  0.0307 -0.3055
 5359TIP3    H137492   2.236   2.858  11.268  0.0667  0.4339  0.6156
 5359TIP3    H237493   2.377   2.872  11.216 -0.7511  1.7447 -1.4117
 5360TIP3   OH237494   6.056   2.389   0.188  0.4549 -0.0623  0.2704
 5360TIP3    H137495   6.032   2.443   0.113  0.6818 -0.5416 -0.1493
 5360TIP3    H237496   5.973   2.350   0.217  0.5540 -0.9307 -0.5654
 5361TIP3   OH237497   5.834   6.605   5.019  0.0948 -0.2218  0.1590
 5361TIP3    H137498   5.758   6.630   5.071  0.9584  1.3804  0.7243
 5361TIP3    H237499   5.888   6.684   5.014 -0.2011 -0.0365 -3.7343
 5362TIP3   OH237500   3.602   1.303   2.078 -0.0280  0.5032  0.3762
 5362TIP3    H137501   3.627   1.248   2.152  1.0362 -0.1052 -0.4099
 5362TIP3    H237502   3.674   1.294   2.016 -0.1378  2.2635 -0.0667
 5363TIP3   OH237503   2.637   4.599  14.419 -0.2982  0.3611 -0.3345
 5363TIP3    H137504   2.630   4.506  14.397 -0.3257  0.2676  0.0600
 5363TIP3    H237505   2.728   4.622  14.400 -0.1652  0.1326  0.0120
 5364TIP3   OH237506   1.561   0.529   3.033 -0.7217 -0.5114  0.1046
 5364TIP3    H137507   1.650   0.507   3.006  0.1777  0.3250  2.2412
 5364TIP3    H237508   1.531   0.452   3.081  0.1035  0.3895  2.1711
 5365TIP3   OH237509   2.895   4.894  15.078 -0.0092  0.3237  0.2665
 5365TIP3    H137510   2.834   4.874  15.007  0.5359  0.4399 -0.2384
 5365TIP3    H237511   2.982   4.890  15.037  0.1973  2.9205  0.2874
 5366TIP3   OH237512   6.591   1.541   1.291  0.0452 -0.2280 -0.3341
 5366TIP3    H137513   6.639   1.476   1.240 -0.1109 -0.4179 -0.2395
 5366TIP3    H237514   6.499   1.513   1.284 -0.1687  0.6370 -1.2772
 5367TIP3   OH237515   6.284   3.403  11.330 -0.6083 -0.8477  0.0539
 5367TIP3    H137516   6.319   3.405  11.241 -0.0555  2.0666  0.2596
 5367TIP3    H237517   6.301   3.313  11.360  0.1599 -1.5837 -2.3679
 5368TIP3   OH237518   6.386   4.188   5.090 -0.1594  0.0799 -0.8335
 5368TIP3    H137519   6.402   4.253   5.159 -0.9671  0.4482 -0.9786
 5368TIP3    H237520   6.362   4.240   5.013  0.2455 -0.3505 -1.2570
 5369TIP3   OH237521   5.775   0.437   5.578 -0.0106 -0.0353  0.0757
 5369TIP3    H137522   5.870   0.426   5.584  0.0738 -0.0266 -0.9802
 5369TIP3    H237523   5.752   0.493   5.652  0.7609 -0.2987  0.5290
 5370TIP3   OH237524   5.639   4.704   0.007 -0.5070 -0.1888  0.4552
 5370TIP3    H137525   5.684   4.757   0.073  0.1194 -0.9592  0.6617
 5370TIP3    H237526   5.593   4.767  -0.047  0.3322  0.5790  0.6189
 5371TIP3   OH237527   5.773   5.591   6.066  0.5731 -0.3396 -0.8428
 5371TIP3    H137528   5.770   5.651   6.140 -2.1806  0.8321 -1.8145
 5371TIP3    H237529   5.701   5.530   6.082  1.6546 -1.7802 -1.2417
 5372TIP3   OH237530   4.606   1.447   5.204 -0.4254 -0.1193  0.2835
 5372TIP3    H137531   4.537   1.506   5.235 -0.6387 -0.2909  0.1387
 5372TIP3    H237532   4.620   1.387   5.277 -0.1206  0.1838  0.4777
 5373TIP3   OH237533   2.722   4.085   6.515 -0.5468 -0.3123 -0.6117
 5373TIP3    H137534   2.662   4.138   6.568  1.0733 -0.7242  1.7936
 5373TIP3    H237535   2.670   4.009   6.489 -1.2517 -0.4384  1.0335
 5374TIP3   OH237536   2.803   2.776   1.024  0.0673  1.0702  0.2729
 5374TIP3    H137537   2.747   2.853   1.021 -0.6177  0.5547 -1.2965
 5374TIP3    H237538   2.752   2.708   0.979  1.2057  0.0782  0.4396
 5375TIP3   OH237539   4.328   4.399   1.369  0.1423  0.2248  0.1897
 5375TIP3    H137540   4.331   4.304   1.362 -0.7585  0.0713  1.6238
 5375TIP3    H237541   4.271   4.426   1.296  1.9127 -0.1277 -1.4089
 5376TIP3   OH237542   5.060   2.315  10.871 -0.1496 -0.4784  0.3896
 5376TIP3    H137543   5.008   2.392  10.894 -0.1562 -0.2292 -0.4269
 5376TIP3    H237544   5.111   2.342  10.795 -1.6084 -1.8502 -1.1833
 5377TIP3   OH237545   3.031   6.399  11.255  0.1650 -0.1469 -0.1353
 5377TIP3    H137546   3.110   6.417  11.306 -1.5132 -0.9146  2.9390
 5377TIP3    H237547   3.056   6.421  11.165  3.0815  2.0194  1.0303
 5378TIP3   OH237548   6.237   0.283  11.953 -0.2275 -0.6365  0.2270
 5378TIP3    H137549   6.219   0.318  11.865  0.6001 -1.3936 -0.2635
 5378TIP3    H237550   6.246   0.361  12.008 -0.0929 -0.1294 -0.4923
 5379TIP3   OH237551   1.534   5.748  11.797  0.4440  0.1343  0.5236
 5379TIP3    H137552   1.495   5.813  11.855 -0.1513  0.0229  0.2510
 5379TIP3    H237553   1.623   5.780  11.781 -0.2660  1.5841 -0.6793
 5380TIP3   OH237554   6.566   1.461  11.839 -0.3953  0.0022  0.2931
 5380TIP3    H137555   6.590   1.376  11.800  0.6517 -1.4166  3.6005
 5380TIP3    H237556   6.608   1.526  11.783 -1.1254 -1.6186 -2.2964
 5381TIP3   OH237557   5.023   5.985   1.436 -0.4251 -0.2050 -0.5155
 5381TIP3    H137558   5.117   5.967   1.439 -0.3194  0.4414  1.3514
 5381TIP3    H237559   4.991   5.937   1.359  1.5613  0.2764 -1.6865
 5382TIP3   OH237560   0.560   5.975  11.199 -0.2131 -0.0751  0.6039
 5382TIP3    H137561   0.627   6.037  11.226 -0.9644  1.0868 -0.0711
 5382TIP3    H237562   0.496   6.029  11.152 -1.5452 -1.1583  1.1132
 5383TIP3   OH237563   5.718   4.461   5.858 -0.8055  0.1334 -0.5187
 5383TIP3    H137564   5.774   4.512   5.917  1.8934 -0.8315 -2.0631
 5383TIP3    H237565   5.652   4.422   5.916  0.1006  1.3142  1.4291
 5384TIP3   OH237566   4.380   2.179  16.918  0.7306 -0.3314 -0.0456
 5384TIP3    H137567   4.307   2.184  16.856  0.3786  1.0994  0.4387
 5384TIP3    H237568   4.379   2.089  16.950 -0.6247 -0.4151 -0.2790
 5385TIP3   OH237569   4.833   1.773   1.076 -0.0713  0.1912 -0.3456
 5385TIP3    H137570   4.886   1.839   1.033  0.5480  0.6477  1.0889
 5385TIP3    H237571   4.807   1.812   1.159 -0.9088 -0.8163 -0.1055
 5386TIP3   OH237572   3.072   0.687  16.858  0.1979 -0.4707 -0.6362
 5386TIP3    H137573   3.129   0.749  16.812  0.3244 -0.1200 -0.0258
 5386TIP3    H237574   3.012   0.655  16.791  1.5083 -1.3457 -1.4386
 5387TIP3   OH237575   1.738   2.468   0.354 -0.1448 -0.8915 -0.3711
 5387TIP3    H137576   1.653   2.495   0.389 -0.2299  1.7940 -2.3163
 5387TIP3    H237577   1.717   2.406   0.285 -0.5305 -0.4398 -0.6691
 5388TIP3   OH237578   1.157   5.083   3.564  1.1730  0.5331  0.3117
 5388TIP3    H137579   1.077   5.108   3.610  1.3721  1.1640  0.3236
 5388TIP3    H237580   1.127   5.032   3.489  0.6995  1.5062 -0.1827
 5389TIP3   OH237581   2.542   6.430   3.006  0.4193  0.5359  0.5204
 5389TIP3    H137582   2.506   6.382   2.932  0.2173  1.7427 -0.1940
 5389TIP3    H237583   2.633   6.402   3.011  0.5700  0.7899 -0.5055
 5390TIP3   OH237584   2.257   3.146  16.002 -0.1699  0.0894 -0.3367
 5390TIP3    H137585   2.175   3.179  15.966 -0.1202 -0.2542 -0.7843
 5390TIP3    H237586   2.322   3.213  15.979 -0.2958  0.2878 -0.1174
 5391TIP3   OH237587   3.330   6.255  16.670 -0.3842  0.2659  0.0720
 5391TIP3    H137588   3.413   6.223  16.634  1.1588  1.6317  2.1818
 5391TIP3    H237589   3.313   6.336  16.622  0.4880  0.9189  0.8319
 5392TIP3   OH237590   4.214   3.527  14.336  0.0879  0.0162 -0.0488
 5392TIP3    H137591   4.138   3.512  14.392 -0.0332  0.0326 -0.2090
 5392TIP3    H237592   4.184   3.504  14.248  0.1540  0.3888 -0.1692
 5393TIP3   OH237593   6.037   5.883  15.202  0.1498  0.2371  0.2311
 5393TIP3    H137594   5.956   5.860  15.248 -0.5869 -2.4107 -2.1436
 5393TIP3    H237595   6.020   5.970  15.167 -0.5271  0.9130  2.0741
 5394TIP3   OH237596   3.706   0.821  12.437  0.0378 -0.5033  0.2205
 5394TIP3    H137597   3.709   0.909  12.475 -1.2908 -0.9217  1.3848
 5394TIP3    H237598   3.785   0.816  12.382  0.7620  0.9869  1.0508
 5395TIP3   OH237599   2.196   5.584  10.766 -0.3811 -0.3198 -0.2606
 5395TIP3    H137600   2.220   5.501  10.725 -0.2720 -0.1044 -0.6345
 5395TIP3    H237601   2.114   5.609  10.724 -0.5667 -0.3823  0.0615
 5396TIP3   OH237602   1.301   0.257   1.830  0.4114 -0.3255  0.3375
 5396TIP3    H137603   1.228   0.269   1.769  1.0482 -0.5488 -0.4878
 5396TIP3    H237604   1.284   0.319   1.901 -1.0115 -0.9640  0.5782
 5397TIP3   OH237605   3.594   4.922  12.565  0.0724 -0.6039 -0.7748
 5397TIP3    H137606   3.553   4.964  12.490 -0.6032  1.2837  0.5816
 5397TIP3    H237607   3.557   4.834  12.566 -0.1344 -0.5675 -2.4378
 5398TIP3   OH237608   5.109   2.116   1.785  0.0798 -0.2130  0.0175
 5398TIP3    H137609   5.161   2.057   1.841  1.4570  0.2105 -0.7708
 5398TIP3    H237610   5.084   2.062   1.710 -2.3509 -0.9797  1.2798
 5399TIP3   OH237611   4.035   5.333  15.216  0.1324 -0.0094 -0.0365
 5399TIP3    H137612   3.968   5.399  15.198  0.6568  0.8695  1.0890
 5399TIP3    H237613   4.012   5.297  15.301  0.8506  0.0075  0.1716
 5400TIP3   OH237614   1.768   6.552  14.781 -0.0384 -0.0599 -0.4174
 5400TIP3    H137615   1.697   6.615  14.767  1.3737  1.0387 -3.4033
 5400TIP3    H237616   1.823   6.593  14.847 -1.5725 -0.4945  1.2318
 5401TIP3   OH237617   1.828   5.113  15.987  0.1173 -0.1545  0.0155
 5401TIP3    H137618   1.806   5.151  15.902 -0.0746  1.2584  0.6663
 5401TIP3    H237619   1.743   5.093  16.027  0.1137  0.8831  0.5860
 5402TIP3   OH237620   5.488   4.619  13.281  0.0986  0.1886 -0.4834
 5402TIP3    H137621   5.405   4.653  13.248 -0.4482 -1.4322 -0.8696
 5402TIP3    H237622   5.552   4.644  13.215 -0.5375 -0.7539 -1.4780
 5403TIP3   OH237623   6.685   1.710  12.511  0.0427 -0.4781  0.1694
 5403TIP3    H137624   6.597   1.672  12.511  1.1380 -3.2425 -1.0160
 5403TIP3    H237625   6.733   1.662  12.578  0.7569  0.8597  0.6675
 5404TIP3   OH237626   2.248   5.713  17.165 -0.1857 -0.5638  0.3462
 5404TIP3    H137627   2.216   5.799  17.195  1.7022 -0.0582  1.0321
 5404TIP3    H237628   2.249   5.659  17.244  1.7580 -0.1955  0.6096
 5405TIP3   OH237629   6.762   0.082   6.495  0.5854  0.1765  0.0054
 5405TIP3    H137630   6.722   0.062   6.410  1.3681 -0.7972 -0.1559
 5405TIP3    H237631   6.717   0.161   6.525  0.4102  0.6313 -1.3955
 5406TIP3   OH237632   1.606   5.078   6.693 -0.3568  0.0312  0.1535
 5406TIP3    H137633   1.531   5.121   6.651 -1.1178 -1.0428  0.3560
 5406TIP3    H237634   1.567   5.006   6.742  1.0000 -2.0660 -1.6650
 5407TIP3   OH237635   5.062   0.396  14.544  0.2430  0.0007 -0.2415
 5407TIP3    H137636   5.013   0.320  14.575  0.5368  0.7206  2.2430
 5407TIP3    H237637   5.019   0.421  14.463 -0.5168 -2.1596 -0.5835
 5408TIP3   OH237638   6.259   4.237  17.131  0.5079 -0.0507  0.2861
 5408TIP3    H137639   6.340   4.288  17.142 -0.4930  2.0819 -1.4524
 5408TIP3    H237640   6.248   4.230  17.036 -0.8576 -1.1493  0.4980
 5409TIP3   OH237641   3.154   0.429  16.981 -0.9025 -0.5262  0.0626
 5409TIP3    H137642   3.195   0.481  17.050 -0.0874 -0.5227 -0.4138
 5409TIP3    H237643   3.093   0.489  16.939 -1.2521 -0.4694  0.6465
 5410TIP3   OH237644   2.858   4.379   1.591 -0.1906 -0.6283  0.2784
 5410TIP3    H137645   2.871   4.398   1.498  2.0497  0.4270  0.7274
 5410TIP3    H237646   2.816   4.293   1.592  0.3858 -1.0049 -1.7035
 5411TIP3   OH237647   1.856   5.943  14.481  0.0210  0.0535  0.0779
 5411TIP3    H137648   1.777   5.984  14.518  0.1764  1.6369 -1.1996
 5411TIP3    H237649   1.928   5.984  14.528  0.1347  0.2035 -0.2247
 5412TIP3   OH237650   1.485   6.610  14.035 -0.4422  0.1836  0.7041
 5412TIP3    H137651   1.503   6.655  13.952 -0.4426  0.2171  0.7226
 5412TIP3    H237652   1.570   6.604  14.079 -0.1432 -1.2635 -0.0031
 5413TIP3   OH237653   3.063   0.449  11.255  0.0535  0.8457 -0.1843
 5413TIP3    H137654   3.035   0.540  11.261 -1.7815  0.6258 -3.1271
 5413TIP3    H237655   3.139   0.451  11.197 -0.9607  0.4457 -1.5953
 5414TIP3   OH237656   4.028   5.498  15.805 -0.3000  0.1518  0.3402
 5414TIP3    H137657   4.014   5.532  15.893 -1.2950  1.6309 -0.3401
 5414TIP3    H237658   3.978   5.416  15.802  2.0451 -1.4482  1.9815
 5415TIP3   OH237659   2.250   3.642  13.146 -0.4156  0.1718  0.3129
 5415TIP3    H137660   2.251   3.547  13.160 -1.3440  0.1533  0.3165
 5415TIP3    H237661   2.182   3.656  13.080  1.2639  0.6404 -1.3660
 5416TIP3   OH237662   0.041   5.930  10.713 -0.6724 -0.3824 -0.3832
 5416TIP3    H137663   0.049   5.975  10.628  1.4464 -0.8124 -0.4761
 5416TIP3    H237664   0.076   5.992  10.776  0.4085 -1.1085 -0.2389
 5417TIP3   OH237665   5.688   6.736   1.288  0.0353 -0.0220  0.2589
 5417TIP3    H137666   5.613   6.793   1.270  0.2255  0.7010  1.6395
 5417TIP3    H237667   5.653   6.648   1.278 -1.2772  0.2787  1.8081
 5418TIP3   OH237668   4.756   6.501  15.984 -0.1776  0.0146  0.5107
 5418TIP3    H137669   4.754   6.445  16.062 -1.0838  0.7595  1.0349
 5418TIP3    H237670   4.764   6.590  16.018 -2.2044  0.4998 -0.1373
 5419TIP3   OH237671   4.824   1.920  14.318 -0.8465  0.6329 -0.5354
 5419TIP3    H137672   4.879   1.851  14.281 -1.5115  0.7290 -1.7557
 5419TIP3    H237673   4.883   1.994  14.332 -0.1320 -0.1406  0.7655
 5420TIP3   OH237674   0.084   4.257   4.532  0.4280 -0.5467  0.3226
 5420TIP3    H137675   0.172   4.283   4.560  0.4419 -0.3204  0.0750
 5420TIP3    H237676   0.080   4.283   4.440  0.1326 -0.6358  0.3116
 5421TIP3   OH237677   3.507   2.745   3.306  0.0649  0.4996  0.0236
 5421TIP3    H137678   3.531   2.792   3.226 -0.4689  0.4457 -0.1668
 5421TIP3    H237679   3.415   2.723   3.295  0.7833 -2.4848 -0.8338
 5422TIP3   OH237680   5.324   1.761  12.984 -0.0778  0.0584  0.2202
 5422TIP3    H137681   5.419   1.771  12.989  0.0680  0.0034 -1.6751
 5422TIP3    H237682   5.291   1.810  13.059  1.3379  1.9299 -0.2918
 5423TIP3   OH237683   6.772   3.017  15.981  0.1140  0.6646 -0.6208
 5423TIP3    H137684   6.721   3.088  16.021  0.0320 -0.2010  0.8805
 5423TIP3    H237685   6.706   2.953  15.955  0.2575  0.7526 -1.2404
 5424TIP3   OH237686   1.103   0.689  16.748 -0.1985 -0.1635  0.1628
 5424TIP3    H137687   1.132   0.604  16.782  1.4868  0.1743 -0.3280
 5424TIP3    H237688   1.019   0.705  16.791 -1.5314 -2.9438 -1.1961
 5425TIP3   OH237689   4.862   1.162   0.021 -0.2624 -0.2751 -0.1222
 5425TIP3    H137690   4.860   1.174  -0.074  1.4149  0.7154 -0.0711
 5425TIP3    H237691   4.822   1.242   0.056 -0.1745 -0.2897  0.0168
 5426TIP3   OH237692   2.586   6.220  16.600 -0.0010 -0.4130  0.5259
 5426TIP3    H137693   2.569   6.216  16.694 -0.8472 -1.0257  0.3605
 5426TIP3    H237694   2.520   6.162  16.562 -0.2438  0.5150 -0.5159
 5427TIP3   OH237695   1.458   3.058   4.963  0.3368 -0.6626  0.3035
 5427TIP3    H137696   1.366   3.070   4.940  0.2669 -1.8868 -0.1305
 5427TIP3    H237697   1.457   3.019   5.051  0.4683 -0.0887  0.5652
 5428TIP3   OH237698   4.029   3.783   3.427 -0.4755 -0.0726 -0.1862
 5428TIP3    H137699   4.047   3.873   3.455 -1.7861 -0.1313  0.9621
 5428TIP3    H237700   4.001   3.792   3.336  1.7139  0.3746 -0.8703
 5429TIP3   OH237701   5.741   2.786   0.844 -0.2209  0.2261  0.1035
 5429TIP3    H137702   5.693   2.818   0.921 -1.2333  2.8754 -1.4701
 5429TIP3    H237703   5.801   2.720   0.879 -1.6095  0.2737  2.9153
 5430TIP3   OH237704   2.446   4.646  13.412  0.3045  0.3219  0.3416
 5430TIP3    H137705   2.505   4.648  13.487  1.3259  0.6925 -0.4370
 5430TIP3    H237706   2.360   4.626  13.449  0.4914  1.9550  1.7758
 5431TIP3   OH237707   6.150   3.416  14.812  0.0290  1.3697  0.2504
 5431TIP3    H137708   6.089   3.400  14.884 -1.1335  1.3987 -0.7008
 5431TIP3    H237709   6.094   3.441  14.738  0.9722 -0.8806 -1.3400
 5432TIP3   OH237710   5.724   3.850   6.283  0.4024 -0.1365  0.0923
 5432TIP3    H137711   5.816   3.879   6.282  0.5989 -0.7333  0.2982
 5432TIP3    H237712   5.724   3.773   6.340  0.1028 -1.2043 -1.2792
 5433TIP3   OH237713   3.030   5.633   3.284  0.4435 -0.3233 -0.4166
 5433TIP3    H137714   2.938   5.657   3.294  0.1932 -1.2254 -0.4463
 5433TIP3    H237715   3.059   5.682   3.207 -0.1975 -0.5241 -0.7999
 5434TIP3   OH237716   1.352   2.874  11.732  0.3039  0.3280 -0.3857
 5434TIP3    H137717   1.384   2.813  11.799 -1.1712  1.2733  1.2676
 5434TIP3    H237718   1.426   2.886  11.673  2.0256  0.1889  1.6316
 5435TIP3   OH237719   3.799   3.845  14.995  0.0618 -0.6005  0.0059
 5435TIP3    H137720   3.784   3.809  15.082 -2.9587 -2.8319 -1.2742
 5435TIP3    H237721   3.753   3.929  14.996  1.3205  0.1105  0.9483
 5436TIP3   OH237722   0.710   3.195   2.024  0.1164 -0.1974  0.5111
 5436TIP3    H137723   0.791   3.171   1.979 -0.3547 -0.9102  0.0339
 5436TIP3    H237724   0.642   3.186   1.958 -0.5899 -1.2671  1.3481
 5437TIP3   OH237725   1.620   0.279  17.159 -0.1710 -0.2459 -0.1167
 5437TIP3    H137726   1.696   0.319  17.117  0.4396 -2.4763 -1.3083
 5437TIP3    H237727   1.577   0.351  17.204  1.3027  1.5543 -1.4134
 5438TIP3   OH237728   2.706   4.091  15.970  0.0727  0.2443  0.3453
 5438TIP3    H137729   2.782   4.124  16.018 -0.8652  0.2757  1.9054
 5438TIP3    H237730   2.659   4.170  15.943 -0.4470  0.2243  1.1669
 5439TIP3   OH237731   0.835   6.421  15.028 -0.2333  0.5567 -0.3778
 5439TIP3    H137732   0.772   6.379  15.087  1.5038 -0.3612  0.9263
 5439TIP3    H237733   0.900   6.461  15.086  0.6597  1.0525 -1.6667
 5440TIP3   OH237734   2.487   0.006  11.405 -0.2046 -0.2815 -0.0090
 5440TIP3    H137735   2.392   0.004  11.404 -0.2252  0.2604 -1.5062
 5440TIP3    H237736   2.510   0.096  11.381  0.6916 -0.2776  0.7785
 5441TIP3   OH237737   5.430   0.167   5.287  0.1463 -0.1453 -0.2957
 5441TIP3    H137738   5.519   0.159   5.323 -0.1316  0.9232  0.6953
 5441TIP3    H237739   5.442   0.161   5.192  1.2909 -0.0172 -0.1734
 5442TIP3   OH237740   0.650   2.793  15.940  0.7625 -0.8288 -0.4152
 5442TIP3    H137741   0.738   2.823  15.918  0.8963 -1.4615 -0.7585
 5442TIP3    H237742   0.610   2.868  15.986  0.8467  0.1229 -1.8334
 5443TIP3   OH237743   1.593   2.540   0.710 -0.2977 -0.2873 -0.5217
 5443TIP3    H137744   1.608   2.610   0.774 -1.4873 -1.0184  0.6048
 5443TIP3    H237745   1.511   2.563   0.668 -0.4219 -0.7334 -0.5248
 5444TIP3   OH237746   5.297   3.482  11.044 -0.3087 -0.0981 -0.1874
 5444TIP3    H137747   5.265   3.405  11.091 -2.5040  0.2219 -1.0334
 5444TIP3    H237748   5.322   3.449  10.957 -0.3132 -0.0215 -0.2186
 5445TIP3   OH237749   1.452   6.626  12.345 -0.3786 -0.3384 -0.1270
 5445TIP3    H137750   1.456   6.697  12.280 -0.1067  1.5085  1.7820
 5445TIP3    H237751   1.378   6.649  12.400  0.5091 -0.7915  1.3124
 5446TIP3   OH237752   5.912   5.141  13.179  0.2648 -0.1712  0.2483
 5446TIP3    H137753   5.996   5.132  13.135  0.1775  1.5521 -0.3366
 5446TIP3    H237754   5.931   5.198  13.254 -0.3152 -0.0410  0.2973
 5447TIP3   OH237755   1.478   5.770   5.299 -0.0769 -1.0339  0.1898
 5447TIP3    H137756   1.499   5.783   5.391 -1.8634 -0.8136  0.6121
 5447TIP3    H237757   1.514   5.846   5.254 -1.0112 -0.0755  1.0347
 5448TIP3   OH237758   2.180   3.846  17.161 -0.4534 -0.4778  0.0416
 5448TIP3    H137759   2.096   3.813  17.129 -0.3043 -0.2237 -0.6339
 5448TIP3    H237760   2.246   3.797  17.111 -0.1931 -0.8901  0.7837
 5449TIP3   OH237761   0.974   3.382   5.176  0.0170 -0.4110 -0.3859
 5449TIP3    H137762   1.044   3.385   5.111 -0.8661  1.4046 -1.3545
 5449TIP3    H237763   0.907   3.327   5.136 -1.7172  2.8619 -2.4931
 5450TIP3   OH237764   3.338   4.688  13.242  0.0026  0.3936 -0.2891
 5450TIP3    H137765   3.273   4.642  13.296  0.7824 -0.7142 -0.2605
 5450TIP3    H237766   3.335   4.643  13.158  1.3317 -0.2430 -0.0167
 5451TIP3   OH237767   1.624   2.904   4.366 -0.8709 -1.2033 -0.5841
 5451TIP3    H137768   1.720   2.911   4.360 -1.0341  1.9773 -0.9832
 5451TIP3    H237769   1.591   2.982   4.322 -3.6560 -1.7445  0.3507
 5452TIP3   OH237770   5.654   6.083  16.553  0.1249 -0.1233  0.1358
 5452TIP3    H137771   5.690   6.016  16.495 -0.0858  0.2835 -0.4677
 5452TIP3    H237772   5.693   6.063  16.639  3.4235  1.4792 -0.8399
 5453TIP3   OH237773   2.436   3.183  10.530 -0.3230 -0.3934 -0.8506
 5453TIP3    H137774   2.451   3.106  10.476  0.7976  0.0498 -1.1897
 5453TIP3    H237775   2.493   3.172  10.605 -1.6806 -0.8750  0.1535
 5454TIP3   OH237776   0.585   1.384  13.461 -0.1876 -0.2343 -0.0620
 5454TIP3    H137777   0.674   1.378  13.424 -0.2886 -1.8403 -0.1174
 5454TIP3    H237778   0.598   1.410  13.552  0.2037  1.4268 -0.5558
 5455TIP3   OH237779   3.439   3.735  12.941 -0.0363  0.4444 -0.1107
 5455TIP3    H137780   3.375   3.760  12.874 -1.0912  1.0804  1.1009
 5455TIP3    H237781   3.420   3.643  12.960 -1.4599  0.9543  1.1252
 5456TIP3   OH237782   5.006   3.646  11.432 -0.1336 -0.8026  0.2925
 5456TIP3    H137783   5.029   3.718  11.373 -0.3712 -0.3713  0.7258
 5456TIP3    H237784   4.968   3.688  11.509  0.1946 -1.3628  0.7718
 5457TIP3   OH237785   3.127   0.715   2.454 -0.6289  0.1365  0.3268
 5457TIP3    H137786   3.195   0.775   2.486 -0.1929  0.2050 -0.7089
 5457TIP3    H237787   3.045   0.765   2.462 -0.5993  0.0031  1.7106
 5458TIP3   OH237788   2.175   0.692   3.541 -0.0500 -0.3099 -0.2907
 5458TIP3    H137789   2.243   0.652   3.597 -0.7355 -2.1273 -0.6776
 5458TIP3    H237790   2.122   0.743   3.602 -0.7613 -2.2272  0.8035
 5459TIP3   OH237791   6.720   6.339  12.764 -0.3482  0.8873  0.2434
 5459TIP3    H137792   6.776   6.299  12.699  0.9846 -1.4581  2.6158
 5459TIP3    H237793   6.734   6.433  12.755  1.8668  0.4886 -1.0511
 5460TIP3   OH237794   6.431   6.384   1.849  0.8758 -0.0699 -0.5643
 5460TIP3    H137795   6.458   6.302   1.891 -1.0586 -1.7055 -2.3016
 5460TIP3    H237796   6.386   6.433   1.918  1.0798 -0.9548  0.2232
 5461TIP3   OH237797   0.626   6.157   0.072 -0.3229  0.1801  0.4232
 5461TIP3    H137798   0.689   6.198   0.131 -0.1536  1.1874 -0.4031
 5461TIP3    H237799   0.615   6.221   0.001 -2.6582  0.2660  0.7742
 5462TIP3   OH237800   5.731   4.628   5.413 -0.1420  0.3293 -0.5282
 5462TIP3    H137801   5.738   4.691   5.484 -0.8567  0.1353 -0.2718
 5462TIP3    H237802   5.637   4.624   5.394 -0.1442 -0.8430 -0.3581
 5463TIP3   OH237803   4.983   6.114  14.496  0.7275 -0.0793 -0.6590
 5463TIP3    H137804   5.064   6.105  14.445  1.3594  0.8250  0.1452
 5463TIP3    H237805   5.007   6.173  14.568 -0.2805 -0.8945  0.3762
 5464TIP3   OH237806   5.465   2.632  14.119  0.1419  0.0328 -0.0911
 5464TIP3    H137807   5.382   2.586  14.105  0.6979 -0.6076 -1.4538
 5464TIP3    H237808   5.471   2.695  14.048 -0.6691  2.4478  1.8284
 5465TIP3   OH237809   5.350   5.082   2.575 -0.0846  0.2253  0.1952
 5465TIP3    H137810   5.295   5.146   2.620  0.5035  0.2574  0.8877
 5465TIP3    H237811   5.389   5.030   2.646 -0.2199 -0.6270 -0.3358
 5466TIP3   OH237812   5.930   3.609  16.188  0.2272 -0.5249 -0.0802
 5466TIP3    H137813   5.967   3.692  16.158 -0.4029 -0.4991 -0.8349
 5466TIP3    H237814   5.956   3.545  16.122  1.0527 -1.0261  0.7083
 5467TIP3   OH237815   5.345   3.513  16.301 -0.2664  1.0207  0.1409
 5467TIP3    H137816   5.324   3.467  16.219 -2.7171  0.5310  0.9607
 5467TIP3    H237817   5.380   3.444  16.358  1.4563  1.3649 -0.4408
 5468TIP3   OH237818   2.159   6.427   3.537  0.2007 -0.1472 -0.6187
 5468TIP3    H137819   2.148   6.402   3.445  0.5748  0.8852 -0.9579
 5468TIP3    H237820   2.094   6.495   3.551  0.4866  0.0549 -0.2602
 5469TIP3   OH237821   2.975   5.710   6.053  0.0835  0.0930 -0.2052
 5469TIP3    H137822   3.044   5.649   6.076  0.9434  1.0852 -0.1102
 5469TIP3    H237823   2.952   5.753   6.135 -0.1572  0.2724 -0.3646
 5470TIP3   OH237824   2.133   1.946  12.587  0.4979  0.1214  0.4090
 5470TIP3    H137825   2.216   1.899  12.574  0.1541 -1.1621  2.4140
 5470TIP3    H237826   2.159   2.032  12.619  1.0980  0.7352 -1.6127
 5471TIP3   OH237827   4.552   1.610  15.856  0.7819 -0.4433  0.0664
 5471TIP3    H137828   4.583   1.581  15.770  2.4348 -0.7289  0.7122
 5471TIP3    H237829   4.599   1.554  15.918 -2.3667 -2.1550  1.1598
 5472TIP3   OH237830   6.724   0.922  14.390  0.2777  0.0652  0.5021
 5472TIP3    H137831   6.718   0.861  14.316 -1.1459  0.2731  0.4262
 5472TIP3    H237832   6.654   0.986  14.375  0.9464  0.9970  1.2406
 5473TIP3   OH237833   2.582   4.606   2.439  0.0508 -0.0558  0.2205
 5473TIP3    H137834   2.644   4.664   2.484  0.2760  0.4419 -0.6999
 5473TIP3    H237835   2.496   4.635   2.469  0.1145  1.3605 -0.8933
 5474TIP3   OH237836   6.680   5.685   3.001  0.3828  0.1201 -0.0052
 5474TIP3    H137837   6.639   5.770   3.013  1.4307  0.2827  3.9435
 5474TIP3    H237838   6.773   5.704   2.989  0.6097 -0.4151  0.7989
 5475TIP3   OH237839   3.532   4.567  13.961 -0.2749  0.2050 -0.5582
 5475TIP3    H137840   3.551   4.550  13.869 -1.8598 -1.8766 -0.5758
 5475TIP3    H237841   3.531   4.480  14.002  2.2198  1.1392  1.8910
 5476TIP3   OH237842   4.650   6.426   5.966  0.2484 -0.4800  0.1384
 5476TIP3    H137843   4.645   6.478   6.046  0.9857  0.9941 -0.7403
 5476TIP3    H237844   4.558   6.413   5.940  0.0491  0.7231  0.1796
 5477TIP3   OH237845   0.360   3.426  14.417 -1.0490 -0.1494 -0.4037
 5477TIP3    H137846   0.379   3.514  14.450  0.0252  0.4771 -2.5333
 5477TIP3    H237847   0.308   3.386  14.487  0.5102  1.2727  1.7257
 5478TIP3   OH237848   2.967   1.283  11.581  0.3476  0.3427  0.1534
 5478TIP3    H137849   2.905   1.210  11.581  0.9703 -0.2676  2.0651
 5478TIP3    H237850   3.024   1.268  11.506 -1.4874  0.6586 -1.3574
 5479TIP3   OH237851   4.779   2.550   0.333 -0.2651 -0.4172  0.2533
 5479TIP3    H137852   4.820   2.636   0.345  0.4667 -0.7661  0.3543
 5479TIP3    H237853   4.706   2.549   0.395  1.1630 -0.7532  2.0205
 5480TIP3   OH237854   0.451   0.866  11.863 -0.6169  0.1974  0.0527
 5480TIP3    H137855   0.528   0.811  11.869 -1.5588 -1.1659  0.1206
 5480TIP3    H237856   0.434   0.875  11.769 -1.2339 -0.7759  0.0602
 5481TIP3   OH237857   3.891   4.045  16.589 -0.5351 -0.6101 -0.4845
 5481TIP3    H137858   3.864   4.019  16.677 -0.1704  2.4768  0.6786
 5481TIP3    H237859   3.980   4.010  16.581 -0.5425 -0.8782  0.4022
 5482TIP3   OH237860   3.258   4.350   2.922 -0.3834  0.1577  0.2398
 5482TIP3    H137861   3.202   4.365   2.998 -1.6527 -0.2547 -0.5841
 5482TIP3    H237862   3.222   4.407   2.854  0.3490  0.0602 -0.2353
 5483TIP3   OH237863   4.440   0.084  11.584  0.4231  0.1086  0.5055
 5483TIP3    H137864   4.424   0.058  11.493 -0.9433  3.5252 -0.3856
 5483TIP3    H237865   4.353   0.092  11.623  0.8344  1.4182  1.2121
 5484TIP3   OH237866   2.405   6.186  16.272  0.4180  0.0082 -0.2018
 5484TIP3    H137867   2.496   6.211  16.289  0.0548  1.0077  0.3483
 5484TIP3    H237868   2.364   6.186  16.358 -0.1031 -0.4495 -0.4462
 5485TIP3   OH237869   3.562   1.136  13.724 -0.2276  0.1123 -0.2847
 5485TIP3    H137870   3.473   1.155  13.694 -0.6418  0.7935  1.2951
 5485TIP3    H237871   3.614   1.211  13.695 -0.1355 -0.3156 -1.2639
 5486TIP3   OH237872   3.839   1.860  12.104  0.1877  0.1274 -0.2763
 5486TIP3    H137873   3.757   1.829  12.065 -0.3682 -0.2762  1.1534
 5486TIP3    H237874   3.820   1.951  12.129  0.0363 -0.0870  0.4062
 5487TIP3   OH237875   4.681   1.079  10.806 -0.1703  0.3657  0.3923
 5487TIP3    H137876   4.613   1.029  10.761  0.8009  0.6807 -1.5629
 5487TIP3    H237877   4.763   1.041  10.773  0.6105  0.7402  1.8179
 5488TIP3   OH237878   3.987   4.216  11.719 -0.0261 -0.3682  0.2892
 5488TIP3    H137879   3.954   4.155  11.653 -0.1625 -1.1299  1.0383
 5488TIP3    H237880   4.081   4.223  11.702 -0.0285 -0.7135  0.1369
 5489TIP3   OH237881   1.220   6.417  13.877 -0.3693 -0.0341 -0.2898
 5489TIP3    H137882   1.133   6.420  13.917 -0.2603 -0.1054 -0.0452
 5489TIP3    H237883   1.264   6.495  13.911  0.1750 -0.7854  0.7789
 5490TIP3   OH237884   0.828   2.074   2.337  0.2125 -0.0653  0.0452
 5490TIP3    H137885   0.735   2.090   2.350  0.7295  3.1664  0.6198
 5490TIP3    H237886   0.872   2.137   2.395  2.7492 -0.6552 -1.0860
 5491TIP3   OH237887   4.036   0.057   5.831  0.2236 -0.0017 -0.2961
 5491TIP3    H137888   3.946   0.076   5.803  0.5513  2.5249  0.0926
 5491TIP3    H237889   4.028   0.031   5.923 -0.0076  2.3738  0.4254
 5492TIP3   OH237890   4.462   2.472   0.924 -0.8517 -0.2670  0.2903
 5492TIP3    H137891   4.400   2.544   0.910 -1.4358 -0.7543  0.3511
 5492TIP3    H237892   4.422   2.397   0.879 -0.8124 -0.8506  1.2205
 5493TIP3   OH237893   0.887   5.169  16.592 -0.6991 -0.1168  0.6492
 5493TIP3    H137894   0.814   5.128  16.637 -0.7378 -0.5803  0.1780
 5493TIP3    H237895   0.930   5.097  16.545 -0.4654  0.2958  0.2170
 5494TIP3   OH237896   1.480   6.392   1.387 -0.2885 -0.8062  0.1840
 5494TIP3    H137897   1.546   6.452   1.420 -0.1071 -1.2521  0.6253
 5494TIP3    H237898   1.485   6.315   1.443 -0.2834 -1.3884 -0.5937
 5495TIP3   OH237899   6.104   2.932   2.919 -0.1589  0.1442  0.1649
 5495TIP3    H137900   6.024   2.926   2.867 -1.0339  0.1045  1.4704
 5495TIP3    H237901   6.079   2.984   2.996  1.0746  0.1567  0.5822
 5496TIP3   OH237902   3.937   4.824  16.700 -0.0705 -0.7911 -0.0613
 5496TIP3    H137903   3.912   4.901  16.752  1.0742  0.5672 -1.3935
 5496TIP3    H237904   3.990   4.771  16.759 -1.3873 -0.9067  1.0782
 5497TIP3   OH237905   1.014   0.395   0.186  0.3609  0.4613  0.2808
 5497TIP3    H137906   1.071   0.383   0.110 -1.3713  1.3524 -1.2371
 5497TIP3    H237907   0.949   0.325   0.178 -1.2062  1.9196 -0.4432
 5498TIP3   OH237908   6.292   4.318   0.740  0.3284  0.8147 -0.1431
 5498TIP3    H137909   6.313   4.342   0.650  0.5730  0.2200 -0.2481
 5498TIP3    H237910   6.223   4.252   0.732  0.4626  0.6442  0.1018
 5499TIP3   OH237911   5.550   3.092   3.375  0.4350 -0.2158 -0.1227
 5499TIP3    H137912   5.550   3.168   3.316 -1.1882  0.3106  0.4930
 5499TIP3    H237913   5.641   3.063   3.377  0.5752 -0.2954 -2.9117
 5500TIP3   OH237914   4.693   1.414   4.450 -0.1908 -0.2510 -0.3768
 5500TIP3    H137915   4.632   1.363   4.396 -1.5286 -0.4193  1.1991
 5500TIP3    H237916   4.775   1.414   4.401 -0.0336 -4.1344 -0.4031
 5501TIP3   OH237917   1.634   3.838   0.380  0.1047 -0.3047 -0.5159
 5501TIP3    H137918   1.644   3.903   0.311  0.5133 -1.1858 -1.3041
 5501TIP3    H237919   1.545   3.804   0.369 -0.3665  0.5907  0.3386
 5502TIP3   OH237920   1.004   4.726   4.082  0.4849  0.2112  0.5335
 5502TIP3    H137921   0.987   4.664   4.152  1.6434  0.6933  1.2772
 5502TIP3    H237922   1.010   4.673   4.003 -0.4269 -0.3879  0.8650
 5503TIP3   OH237923   0.745   0.101  12.348 -0.6722 -0.1635 -0.3393
 5503TIP3    H137924   0.716   0.036  12.283 -0.2292  0.1479 -0.8532
 5503TIP3    H237925   0.749   0.052  12.430 -1.0947 -0.5983 -0.5723
 5504TIP3   OH237926   0.403   5.755   0.272 -0.1348  0.0163 -0.3846
 5504TIP3    H137927   0.437   5.821   0.211  0.5103 -0.1249 -0.1867
 5504TIP3    H237928   0.481   5.721   0.316 -0.6075  0.3398  0.7523
 5505TIP3   OH237929   5.804   1.769   6.368  0.4804 -0.0898 -0.0510
 5505TIP3    H137930   5.811   1.673   6.370  0.6971 -0.0685  0.1592
 5505TIP3    H237931   5.715   1.785   6.335  0.6716 -0.3597 -0.7272
 5506TIP3   OH237932   5.882   0.596   6.469  0.3725 -0.1965  0.4532
 5506TIP3    H137933   5.801   0.639   6.496  0.2282  0.1402 -0.4534
 5506TIP3    H237934   5.872   0.505   6.498 -1.3177 -0.7163 -1.5139
 5507TIP3   OH237935   5.362   1.139   5.639  0.7744 -0.1643 -0.0031
 5507TIP3    H137936   5.313   1.135   5.720 -0.4977  0.3136 -0.7242
 5507TIP3    H237937   5.377   1.047   5.615 -0.4748 -0.3348 -0.1756
 5508TIP3   OH237938   3.462   3.491  13.627 -0.1467  0.0405  0.5392
 5508TIP3    H137939   3.458   3.398  13.604  0.0936  0.0561  0.4277
 5508TIP3    H237940   3.390   3.530  13.577  0.6042  0.1314 -0.4987
 5509TIP3   OH237941   0.954   1.777  13.674 -0.1865  0.1275  0.1671
 5509TIP3    H137942   1.039   1.737  13.693  0.8571  2.8539  1.9556
 5509TIP3    H237943   0.972   1.842  13.606 -1.3331 -0.7509 -1.0190
 5510TIP3   OH237944   1.411   4.205  16.712  0.1695 -0.4111  0.1669
 5510TIP3    H137945   1.505   4.205  16.696  0.1259 -0.4784 -0.0916
 5510TIP3    H237946   1.393   4.119  16.750  0.3584 -0.0516  1.1078
 5511TIP3   OH237947   0.555   3.098   0.416  0.3539 -0.6744 -0.2152
 5511TIP3    H137948   0.618   3.165   0.392  0.0048 -0.0280  0.6522
 5511TIP3    H237949   0.562   3.033   0.346  0.4624  0.4105 -1.2391
 5512TIP3   OH237950   2.941   5.699  16.928  0.0658  0.1871  0.5301
 5512TIP3    H137951   2.937   5.695  17.023 -0.6117  0.0042  0.4966
 5512TIP3    H237952   2.850   5.715  16.901  0.1438 -0.4302 -0.1150
 5513TIP3   OH237953   4.703   2.082   0.186  0.2416 -0.6061 -0.0240
 5513TIP3    H137954   4.690   2.142   0.259 -2.2157  0.8584 -1.5423
 5513TIP3    H237955   4.766   2.126   0.129 -1.1216  0.3475 -0.8507
 5514TIP3   OH237956   5.543   5.303  14.796 -0.3323  0.0152  0.1298
 5514TIP3    H137957   5.566   5.214  14.822 -0.6543  0.4367  2.0367
 5514TIP3    H237958   5.625   5.352  14.801 -0.4866  0.2122  0.9817
 5515TIP3   OH237959   0.085   2.158  12.994 -0.3023  0.0728 -0.2220
 5515TIP3    H137960   0.152   2.159  12.926  0.2715 -2.4525  0.1867
 5515TIP3    H237961   0.002   2.164  12.947  0.1319  2.8813 -0.7587
 5516TIP3   OH237962   0.780   4.631   4.574 -0.7114 -0.0634  0.4760
 5516TIP3    H137963   0.687   4.611   4.573 -0.7921  0.1575  1.6835
 5516TIP3    H237964   0.790   4.700   4.640  0.0377  1.4439 -1.1299
 5517TIP3   OH237965   2.715   2.316  11.223  0.2877 -0.1555 -0.0112
 5517TIP3    H137966   2.703   2.405  11.191 -1.6438 -1.1422 -2.3835
 5517TIP3    H237967   2.807   2.297  11.209  0.0726  0.4041 -2.6468
 5518TIP3   OH237968   3.029   0.390  14.612 -0.5165  0.1557  0.1339
 5518TIP3    H137969   2.948   0.435  14.635 -1.2913 -1.0908 -0.0814
 5518TIP3    H237970   3.063   0.356  14.694 -1.3812 -1.1845 -0.0302
 5519TIP3   OH237971   5.383   1.329   3.328 -0.2241 -0.0596  0.0113
 5519TIP3    H137972   5.463   1.320   3.380 -0.6596 -0.5862  0.6226
 5519TIP3    H237973   5.314   1.340   3.394 -0.6084  0.8130 -0.5187
 5520TIP3   OH237974   1.713   2.019  11.684 -0.1199 -0.6023  0.0458
 5520TIP3    H137975   1.696   2.065  11.765  0.1545  0.2660 -0.3782
 5520TIP3    H237976   1.740   1.931  11.711 -2.5528 -1.1693  0.8035
 5521TIP3   OH237977   2.586   4.476  15.176  0.7606 -0.1765  0.7347
 5521TIP3    H137978   2.522   4.493  15.107 -0.7532  0.5795  2.2616
 5521TIP3    H237979   2.657   4.538  15.159  0.6715 -0.3802 -0.4322
 5522TIP3   OH237980   5.507   5.939   2.124 -0.0249 -0.0307  0.3374
 5522TIP3    H137981   5.558   5.871   2.080  0.8665  0.6814  0.2406
 5522TIP3    H237982   5.490   5.904   2.211  1.5174  0.1043  0.7286
 5523TIP3   OH237983   2.039   3.642   3.537  0.4194 -0.2796 -0.8115
 5523TIP3    H137984   2.037   3.576   3.606 -0.8886  1.2841  0.7595
 5523TIP3    H237985   2.129   3.675   3.537  0.0639  0.8520  1.3862
 5524TIP3   OH237986   5.862   6.314  16.747 -0.4000  0.1714 -0.2230
 5524TIP3    H137987   5.830   6.336  16.660 -1.6891 -0.0787  0.1706
 5524TIP3    H237988   5.821   6.378  16.805 -0.1303 -0.1060  0.2861
 5525TIP3   OH237989   3.383   4.023  11.925 -0.1054  0.4369  0.6851
 5525TIP3    H137990   3.430   3.998  12.005 -1.2856 -0.9055  0.9949
 5525TIP3    H237991   3.309   3.963  11.920 -0.2980  0.7478 -1.2134
 5526TIP3   OH237992   5.814   2.711   4.979 -0.6285  0.2247  0.2314
 5526TIP3    H137993   5.743   2.649   4.966  0.5158 -1.0287 -0.2537
 5526TIP3    H237994   5.839   2.701   5.071 -0.2012 -0.3086  0.0590
 5527TIP3   OH237995   1.246   4.505  16.034 -0.3386 -0.5704  0.5161
 5527TIP3    H137996   1.216   4.585  16.077  2.1350 -0.9569  3.2412
 5527TIP3    H237997   1.340   4.517  16.023  0.2256 -3.2780  1.6135
 5528TIP3   OH237998   0.376   4.032   6.227  0.1970 -0.2723 -0.2637
 5528TIP3    H137999   0.285   4.012   6.206  0.4465 -0.1213 -1.5502
 5528TIP3    H238000   0.401   3.967   6.293 -1.2568  0.5701  1.1809
 5529TIP3   OH238001   1.584   5.513   2.576  0.5099 -0.0264  0.9843
 5529TIP3    H138002   1.528   5.436   2.572  0.9913 -0.3425 -0.6453
 5529TIP3    H238003   1.537   5.575   2.632 -0.1504 -1.2798  1.8379
 5530TIP3   OH238004   6.092   0.027   3.493  0.1157  0.2795  0.5505
 5530TIP3    H138005   6.029   0.098   3.503 -0.3119  0.1016 -0.7217
 5530TIP3    H238006   6.045  -0.052   3.520  0.0604  0.2584  0.3921
 5531TIP3   OH238007   1.876   3.867  17.113  0.5164 -0.5662  0.3423
 5531TIP3    H138008   1.781   3.860  17.110  0.5667 -1.1817 -2.2009
 5531TIP3    H238009   1.895   3.904  17.199 -1.9629 -1.0579  1.1712
 5532TIP3   OH238010   2.046   2.905  11.674 -0.4213  0.3929 -0.0443
 5532TIP3    H138011   2.133   2.885  11.708 -0.1360  2.3220  0.5387
 5532TIP3    H238012   2.062   2.970  11.605 -1.2592 -0.9619 -1.5712
 5533TIP3   OH238013   5.738   3.122  11.914  0.0814  0.8039 -0.0354
 5533TIP3    H138014   5.770   3.211  11.930  1.3089  0.2452  0.7145
 5533TIP3    H238015   5.681   3.104  11.989  0.5153  0.6445  0.2562
 5534TIP3   OH238016   4.105   2.522   4.564 -0.5936 -0.0855 -0.1727
 5534TIP3    H138017   4.200   2.531   4.566 -0.6169  0.2443 -0.4478
 5534TIP3    H238018   4.086   2.449   4.623  0.0348 -1.7459 -1.9139
 5535TIP3   OH238019   2.003   0.873   5.338  0.2822  0.2306 -0.8328
 5535TIP3    H138020   1.930   0.877   5.401 -0.8956 -1.0091 -2.0450
 5535TIP3    H238021   2.030   0.964   5.327 -0.8603  0.6875 -0.0792
 5536TIP3   OH238022   4.392   4.369   5.553  0.3315 -0.0522  0.1812
 5536TIP3    H138023   4.309   4.348   5.596  0.6889 -0.7628  0.5534
 5536TIP3    H238024   4.455   4.307   5.592  0.7198 -0.5634 -1.2105
 5537TIP3   OH238025   1.211   0.249   4.344  0.3100 -0.0897 -0.5209
 5537TIP3    H138026   1.181   0.162   4.371  0.0176 -0.1020 -0.8898
 5537TIP3    H238027   1.192   0.304   4.420  1.7323 -0.6006  0.2520
 5538TIP3   OH238028   6.669   1.705  15.560 -0.2078 -0.1813  0.1839
 5538TIP3    H138029   6.710   1.624  15.591  0.7777  0.1368 -0.2416
 5538TIP3    H238030   6.626   1.741  15.637 -1.2636 -1.4519  0.2314
 5539TIP3   OH238031   5.778   6.580  13.673 -0.1567 -0.3712 -0.9753
 5539TIP3    H138032   5.839   6.567  13.601  2.4432 -2.4526  1.3900
 5539TIP3    H238033   5.692   6.556  13.636  0.7579  0.2013 -3.7367
 5540TIP3   OH238034   0.165   3.058   1.707 -0.0571  0.0528 -0.3406
 5540TIP3    H138035   0.226   3.076   1.635  0.2055 -0.9230 -0.3795
 5540TIP3    H238036   0.141   3.144   1.741 -0.1886  0.5276 -1.5961
 5541TIP3   OH238037   4.679   2.862   1.966 -0.5540 -0.0132 -0.4141
 5541TIP3    H138038   4.741   2.826   2.030 -0.0835  0.5781 -0.5242
 5541TIP3    H238039   4.715   2.837   1.881  0.4454  1.6813 -0.5475
 5542TIP3   OH238040   5.248   5.940  11.551  0.2823  0.3900 -0.2899
 5542TIP3    H138041   5.266   6.018  11.603 -0.5603 -0.3660  1.2007
 5542TIP3    H238042   5.327   5.886  11.559  0.2215  0.3531  0.0810
 5543TIP3   OH238043   0.753   6.696  16.520  0.0958 -0.0807  0.2763
 5543TIP3    H138044   0.738   6.780  16.476 -2.2774 -1.1670 -1.1812
 5543TIP3    H238045   0.836   6.707  16.565  1.0346  2.2544 -1.8084
 5544TIP3   OH238046   3.087   5.754   5.379  0.6147  0.0642  0.0541
 5544TIP3    H138047   3.102   5.826   5.441 -1.1618  0.5246  0.0249
 5544TIP3    H238048   3.037   5.795   5.308  1.6513 -0.7038 -1.1530
 5545TIP3   OH238049   3.229   2.046   0.419 -0.7265  0.9524 -0.5216
 5545TIP3    H138050   3.219   2.008   0.506 -1.0193  0.9552 -0.5551
 5545TIP3    H238051   3.313   2.012   0.388 -0.3353  1.4162 -0.0045
 5546TIP3   OH238052   5.995   1.325   0.957 -0.0006 -0.1080  0.0893
 5546TIP3    H138053   6.040   1.400   0.997  1.5019 -1.4789  1.0736
 5546TIP3    H238054   5.904   1.334   0.986  0.1512  1.2899  0.2276
 5547TIP3   OH238055   4.629   6.771  17.111 -0.0958 -0.0487  0.0616
 5547TIP3    H138056   4.592   6.698  17.159  1.1205 -0.5662  0.2413
 5547TIP3    H238057   4.695   6.808  17.170  0.3911  0.2079 -0.6286
 5548TIP3   OH238058   6.000   0.071   4.497 -0.0853 -0.0511  0.0146
 5548TIP3    H138059   6.095   0.078   4.488 -0.0891  1.1988  0.6995
 5548TIP3    H238060   5.987  -0.003   4.556  0.6452  1.6194  2.4282
 5549TIP3   OH238061   5.152   4.288   1.466 -0.1607 -0.1910  0.0771
 5549TIP3    H138062   5.231   4.238   1.486 -0.8370 -1.7223 -0.9062
 5549TIP3    H238063   5.175   4.379   1.485  1.8826 -0.5846 -0.3509
 5550TIP3   OH238064   0.477   0.001   1.792  0.2884  0.6430  0.3354
 5550TIP3    H138065   0.532   0.035   1.863  0.8907 -0.3020  0.3521
 5550TIP3    H238066   0.394   0.046   1.802  0.4186  0.6482  1.5558
 5551TIP3   OH238067   1.341   1.387  16.039 -0.1322 -0.2774  0.1650
 5551TIP3    H138068   1.328   1.348  16.125  0.1226  0.8103  0.7144
 5551TIP3    H238069   1.329   1.481  16.053 -0.3134 -0.1061 -1.0308
 5552TIP3   OH238070   1.664   1.109  13.843  0.1758 -0.3639  0.9445
 5552TIP3    H138071   1.587   1.154  13.811 -0.8269 -2.1821  0.6417
 5552TIP3    H238072   1.711   1.083  13.763  0.6696  0.0291  1.1059
 5553TIP3   OH238073   2.884   4.898   3.046 -0.0190 -0.6428  0.1397
 5553TIP3    H138074   2.910   4.953   2.972  1.4668 -0.4046  0.8024
 5553TIP3    H238075   2.844   4.959   3.108 -0.1724 -0.6376  0.0346
 5554TIP3   OH238076   3.067   5.602  12.516 -0.1018 -0.3806 -0.4044
 5554TIP3    H138077   3.124   5.667  12.558 -0.6734  0.2348 -0.5570
 5554TIP3    H238078   2.984   5.608  12.564 -0.1446 -1.0410 -0.3860
 5555TIP3   OH238079   3.743   6.684  11.374  0.0988  0.3188  0.3959
 5555TIP3    H138080   3.692   6.707  11.296  0.0642  0.1598  0.3718
 5555TIP3    H238081   3.808   6.620  11.342 -1.5738 -1.7977  0.9800
 5556TIP3   OH238082   5.778   5.057   0.491  0.0490  0.4672  0.7027
 5556TIP3    H138083   5.860   5.008   0.492  1.0669  2.0871  0.3396
 5556TIP3    H238084   5.713   4.994   0.459  1.7368 -0.0583 -2.0402
 5557TIP3   OH238085   5.210   1.830  14.714 -0.5439  0.6986 -0.5247
 5557TIP3    H138086   5.159   1.873  14.645  0.6848  0.7346 -1.4546
 5557TIP3    H238087   5.244   1.902  14.767 -0.5196  0.7453 -0.6031
 5558TIP3   OH238088   0.199   6.547   1.259 -0.1134 -0.0650  0.4500
 5558TIP3    H138089   0.274   6.555   1.319  1.2602  0.5853 -1.2730
 5558TIP3    H238090   0.238   6.535   1.173 -1.9876  0.8699 -0.5915
 5559TIP3   OH238091   4.044   3.850   3.738  0.4019  0.1620  0.2066
 5559TIP3    H138092   4.018   3.909   3.809  1.1249 -0.5487  1.0851
 5559TIP3    H238093   3.961   3.817   3.703  0.0433 -0.0156  1.1885
 5560TIP3   OH238094   3.294   6.136   3.578 -0.2640  0.0521 -0.3071
 5560TIP3    H138095   3.306   6.214   3.524 -1.3258  0.6432  0.2596
 5560TIP3    H238096   3.228   6.085   3.532  1.4999 -1.2985 -1.4578
 5561TIP3   OH238097   3.544   4.330   2.850 -0.0620  0.1656 -0.0203
 5561TIP3    H138098   3.588   4.411   2.874 -0.0294  0.6768 -1.7243
 5561TIP3    H238099   3.453   4.344   2.875 -0.0510  0.7163 -0.2839
 5562TIP3   OH238100   2.446   6.272   0.872 -0.7536  0.5243  0.0875
 5562TIP3    H138101   2.443   6.316   0.786 -0.9309  1.5653  0.6073
 5562TIP3    H238102   2.538   6.279   0.899 -0.8162  0.7406  0.2487
 5563TIP3   OH238103   6.592   4.473  14.555 -0.6069  0.0020  0.3219
 5563TIP3    H138104   6.648   4.514  14.621 -0.2661 -0.8141  0.5592
 5563TIP3    H238105   6.508   4.460  14.599  0.2192 -2.4475  1.3570
 5564TIP3   OH238106   6.570   3.430   0.601 -0.2274 -0.1440 -0.0447
 5564TIP3    H138107   6.515   3.484   0.544 -0.2057 -1.4043 -1.3025
 5564TIP3    H238108   6.640   3.489   0.629 -1.6094  1.2017  0.7541
 5565TIP3   OH238109   1.690   5.072  14.727 -0.3168  0.2882 -0.3117
 5565TIP3    H138110   1.607   5.118  14.737 -0.5125 -0.4120  1.8014
 5565TIP3    H238111   1.665   4.984  14.698  0.0404  1.2627 -4.0954
 5566TIP3   OH238112   4.256   5.241   0.525 -0.6999 -0.4665  0.6463
 5566TIP3    H138113   4.261   5.336   0.532 -1.4176 -0.1620 -1.8997
 5566TIP3    H238114   4.165   5.221   0.545 -0.9801 -0.3861 -0.4732
 5567TIP3   OH238115   5.562   5.586  14.438 -0.2213  0.0332  0.2045
 5567TIP3    H138116   5.653   5.579  14.409 -0.4780 -1.0424 -0.4044
 5567TIP3    H238117   5.567   5.631  14.523  0.8452  0.2067  0.0644
 5568TIP3   OH238118   0.942   5.859   1.642 -0.0002  0.3443  0.0306
 5568TIP3    H138119   1.012   5.879   1.581 -1.5256  0.2021 -1.8791
 5568TIP3    H238120   0.878   5.929   1.629 -1.1918 -0.6900  0.0866
 5569TIP3   OH238121   5.131   1.218  15.734 -0.4244  0.4944 -0.2607
 5569TIP3    H138122   5.210   1.170  15.761 -0.0708  2.0554  1.6896
 5569TIP3    H238123   5.107   1.270  15.810 -2.2303  1.5532 -1.4749
 5570TIP3   OH238124   4.594   5.520   1.418 -0.5260 -0.4894  0.2004
 5570TIP3    H138125   4.686   5.511   1.443 -0.4507 -1.4274 -0.3773
 5570TIP3    H238126   4.562   5.430   1.410 -1.3384 -0.1803 -0.1860
 5571TIP3   OH238127   4.359   1.850   4.546  0.7873  0.1604  0.8347
 5571TIP3    H138128   4.439   1.800   4.562  0.4494 -1.5006 -2.0620
 5571TIP3    H238129   4.389   1.940   4.531  1.9498 -0.1515  1.2152
 5572TIP3   OH238130   4.859   1.999   2.238  0.6923 -0.4100  0.0957
 5572TIP3    H138131   4.853   2.030   2.147  0.7100 -0.4174  0.0918
 5572TIP3    H238132   4.944   2.032   2.268 -0.1546  1.2941  0.7583
 5573TIP3   OH238133   2.083   0.594   5.527  0.1380 -0.3004 -0.5594
 5573TIP3    H138134   1.989   0.576   5.534  0.4088 -1.5823  0.0182
 5573TIP3    H238135   2.116   0.584   5.616  0.7362  0.8096 -0.6381
 5574TIP3   OH238136   6.123   0.975  14.648 -0.1725 -0.3863  0.4797
 5574TIP3    H138137   6.085   1.043  14.591  0.8173  0.3213  0.6403
 5574TIP3    H238138   6.077   0.985  14.731  1.3070  1.4312  1.1339
 5575TIP3   OH238139   4.233   2.097   3.383  0.6364 -0.6061 -0.0473
 5575TIP3    H138140   4.213   2.182   3.345  3.1690 -0.7179 -1.8861
 5575TIP3    H238141   4.280   2.117   3.465  2.1933 -0.1258 -1.0059
 5576TIP3   OH238142   5.890   4.495   4.060  0.1049 -0.0876  0.4241
 5576TIP3    H138143   5.907   4.577   4.106  0.8723 -0.3572  0.6403
 5576TIP3    H238144   5.798   4.475   4.079  0.4255 -0.2583  1.9767
 5577TIP3   OH238145   0.037   0.789   3.722 -0.0670  0.3568  0.3772
 5577TIP3    H138146  -0.039   0.783   3.664  0.0964 -0.2703  0.2170
 5577TIP3    H238147   0.078   0.872   3.699 -0.1809  0.2607 -0.1950
 5578TIP3   OH238148   2.048   5.847  15.628 -0.4033 -0.2794 -0.4043
 5578TIP3    H138149   2.041   5.779  15.561 -2.6243  1.0318 -1.6335
 5578TIP3    H238150   1.993   5.815  15.700 -1.4652  0.1518 -0.9905
 5579TIP3   OH238151   5.718   3.113   5.381  0.4030  0.1394 -0.2311
 5579TIP3    H138152   5.753   3.132   5.293  2.9728 -1.2902  0.3888
 5579TIP3    H238153   5.754   3.182   5.436 -1.5563  1.2871 -0.2755
 5580TIP3   OH238154   1.031   3.019  13.659  0.1275  0.7456 -0.7194
 5580TIP3    H138155   0.947   3.062  13.641 -0.7915 -0.6830 -0.0487
 5580TIP3    H238156   1.065   2.996  13.573 -1.0052 -0.1424 -0.9602
 5581TIP3   OH238157   6.186   3.654  15.303  0.1381  0.1907  0.1304
 5581TIP3    H138158   6.184   3.722  15.371 -1.5423  0.9067 -0.5873
 5581TIP3    H238159   6.094   3.632  15.288  0.5430 -0.7903 -1.1040
 5582TIP3   OH238160   0.612   6.573  13.620  0.1768  0.3320 -0.3430
 5582TIP3    H138161   0.544   6.507  13.616 -0.8721  1.3878 -0.3712
 5582TIP3    H238162   0.694   6.523  13.622 -0.5759 -0.9443 -0.5503
 5583TIP3   OH238163   3.971   3.446  13.793 -0.5264  0.9279  0.7221
 5583TIP3    H138164   3.888   3.414  13.759  0.7232 -1.8313 -0.0741
 5583TIP3    H238165   3.969   3.423  13.886  0.9639 -3.5315 -0.0913
 5584TIP3   OH238166   1.100   1.557  17.048 -0.5604 -0.1616  0.6584
 5584TIP3    H138167   1.165   1.625  17.035  0.1333 -1.3405 -3.6233
 5584TIP3    H238168   1.150   1.482  17.081  0.1243 -0.6869 -1.4471
 5585TIP3   OH238169   6.689   3.385  13.623  0.3825  0.3674  0.0596
 5585TIP3    H138170   6.716   3.320  13.688  0.0127 -0.6580 -0.7782
 5585TIP3    H238171   6.601   3.359  13.598  1.2320 -0.4875 -2.2921
 5586TIP3   OH238172   1.755   0.667   6.491  0.1992  0.2737 -0.3913
 5586TIP3    H138173   1.682   0.724   6.466  0.2130  0.3923 -0.1600
 5586TIP3    H238174   1.831   0.706   6.450  0.1204  0.1038 -0.7014
 5587TIP3   OH238175   1.182   5.329   3.284 -0.4751  0.1141  0.2402
 5587TIP3    H138176   1.160   5.298   3.372  0.8471 -1.0816  0.1790
 5587TIP3    H238177   1.248   5.397   3.298 -0.3002 -0.0423  0.1775
 5588TIP3   OH238178   3.302   1.176   3.941 -0.3674  0.2481  0.3086
 5588TIP3    H138179   3.236   1.210   4.001 -0.2675  1.1198 -0.0576
 5588TIP3    H238180   3.288   1.082   3.941 -0.8016  0.3052  1.1823
 5589TIP3   OH238181   0.176   5.745   2.944 -0.0069  0.6294  0.2406
 5589TIP3    H138182   0.252   5.800   2.962  0.9791 -0.7635  0.4371
 5589TIP3    H238183   0.194   5.706   2.859  0.0779 -0.6486  0.8272
 5590TIP3   OH238184   4.649   3.847  16.176  0.2110 -0.0225 -0.1532
 5590TIP3    H138185   4.626   3.938  16.196 -3.7169 -1.2212  1.7945
 5590TIP3    H238186   4.609   3.831  16.091  1.2865  0.1028 -0.7079
 5591TIP3   OH238187   3.351   3.494   2.509 -0.3443  0.3205  0.1263
 5591TIP3    H138188   3.399   3.490   2.426  0.5716 -0.7903  0.6870
 5591TIP3    H238189   3.272   3.444   2.493 -0.7885  1.1641 -0.4396
 5592TIP3   OH238190   0.157   3.379  13.428 -0.0214 -0.0783  0.9663
 5592TIP3    H138191   0.067   3.396  13.454  0.0408  1.9658  0.0953
 5592TIP3    H238192   0.210   3.410  13.502  0.0078  1.4788  0.3438
 5593TIP3   OH238193   6.653   0.074   6.245 -0.4789  0.2520 -0.1125
 5593TIP3    H138194   6.658  -0.020   6.231 -0.4805  0.2506 -0.1051
 5593TIP3    H238195   6.613   0.108   6.165 -1.3811  0.1344  0.2782
 5594TIP3   OH238196   4.476   0.299   5.660 -0.0336 -0.3837 -0.5253
 5594TIP3    H138197   4.455   0.350   5.582  0.9265  0.2006 -0.4222
 5594TIP3    H238198   4.393   0.287   5.705 -0.6642 -1.0451 -1.8239
 5595TIP3   OH238199   4.483   2.028   0.841 -0.0998 -0.3099  0.2626
 5595TIP3    H138200   4.457   2.049   0.931 -0.3488  1.8195 -0.2633
 5595TIP3    H238201   4.401   2.023   0.793  0.0886 -0.4971 -0.0422
 5596TIP3   OH238202   5.571   5.205   2.488  0.1274 -0.5230  0.0716
 5596TIP3    H138203   5.493   5.173   2.533 -0.4813 -1.0927 -1.3144
 5596TIP3    H238204   5.548   5.294   2.461  0.3945 -0.2759  0.6490
 5597TIP3   OH238205   2.910   5.887  11.793 -0.0973 -0.5590  0.5489
 5597TIP3    H138206   2.912   5.821  11.863  0.5587 -0.8916  0.2195
 5597TIP3    H238207   2.837   5.861  11.737 -1.6808  0.6076  1.9535
 5598TIP3   OH238208   3.083   6.367  12.647  0.4078 -0.3453 -0.4767
 5598TIP3    H138209   3.006   6.324  12.610 -0.1937 -1.5952  1.9917
 5598TIP3    H238210   3.049   6.421  12.718  1.6130  0.9912 -0.8620
 5599TIP3   OH238211   1.313   3.252  16.359 -0.3717 -0.1524  0.7646
 5599TIP3    H138212   1.381   3.316  16.341 -1.0773  0.1347 -1.1151
 5599TIP3    H238213   1.356   3.167  16.351 -0.0201  0.0438  0.5814
 5600TIP3   OH238214   6.585   4.382   4.057 -0.1706 -0.3997  0.4088
 5600TIP3    H138215   6.495   4.395   4.028  0.6639  0.1646 -2.1930
 5600TIP3    H238216   6.601   4.453   4.119 -1.6163 -0.7500  1.2153
 5601TIP3   OH238217   1.761   1.864  16.869  0.5141 -0.0095 -0.1030
 5601TIP3    H138218   1.708   1.887  16.793  0.6099 -1.6562 -0.6957
 5601TIP3    H238219   1.761   1.943  16.923 -1.0446  0.6058 -0.9495
 5602TIP3   OH238220   0.285   6.685  11.675  0.3785 -0.1526  0.0135
 5602TIP3    H138221   0.277   6.737  11.594 -1.2747  1.8075  1.3193
 5602TIP3    H238222   0.207   6.630  11.675  0.5428 -0.3847  0.1402
 5603TIP3   OH238223   5.961   4.701   0.077  0.3355  0.2235 -0.2629
 5603TIP3    H138224   5.916   4.632   0.127  0.8870 -0.1642 -0.2909
 5603TIP3    H238225   5.921   4.782   0.108 -0.1373 -0.0887 -0.0312
 5604TIP3   OH238226   5.187   3.689  11.798  0.3380  0.1077 -0.2100
 5604TIP3    H138227   5.184   3.759  11.863 -0.8413 -1.0083  1.0017
 5604TIP3    H238228   5.103   3.693  11.753  0.1208 -0.7249  0.1007
 5605TIP3   OH238229   0.093   1.225  16.631 -0.1343 -0.2753 -0.3250
 5605TIP3    H138230   0.009   1.214  16.677 -0.1859 -1.0293 -0.5878
 5605TIP3    H238231   0.136   1.298  16.677 -0.5354 -0.4814  0.3978
 5606TIP3   OH238232   0.586   1.240  12.219  0.7813  0.1297  0.3089
 5606TIP3    H138233   0.542   1.187  12.152 -0.8962  2.4847 -0.6090
 5606TIP3    H238234   0.517   1.258  12.284  1.6981  0.0106  1.3441
 5607TIP3   OH238235   3.038   0.820  13.830 -0.2853 -0.2100  0.2626
 5607TIP3    H138236   3.027   0.738  13.878 -1.3626 -1.2172 -1.5903
 5607TIP3    H238237   2.987   0.884  13.879 -0.0539 -0.8048  1.3103
 5608TIP3   OH238238   1.477   3.027  16.425 -0.6842 -0.6389 -0.3224
 5608TIP3    H138239   1.546   3.089  16.451 -0.7561 -0.7760  0.2094
 5608TIP3    H238240   1.503   2.944  16.464 -0.2919 -1.0929 -1.5200
 5609TIP3   OH238241   4.073   2.433   5.327  0.4962 -0.4391  0.0649
 5609TIP3    H138242   3.985   2.396   5.333  0.4618 -0.2989  0.4540
 5609TIP3    H238243   4.058   2.525   5.304  0.4457  0.0691  1.9657
 5610TIP3   OH238244   3.541   0.465   3.922 -0.5097  0.1382 -0.5425
 5610TIP3    H138245   3.489   0.507   3.991  0.3194  0.4122 -0.0642
 5610TIP3    H238246   3.477   0.424   3.865 -1.3512  1.7565 -0.8197
 5611TIP3   OH238247   5.320   1.401   5.823  0.1325  0.3012  0.3097
 5611TIP3    H138248   5.371   1.395   5.742  1.2825 -0.6848  1.0832
 5611TIP3    H238249   5.259   1.474   5.807  0.7870  0.5616 -1.1818
 5612TIP3   OH238250   3.132   0.868  15.803  0.0108 -0.3587 -0.3859
 5612TIP3    H138251   3.190   0.931  15.847 -0.8302  0.5822 -0.5845
 5612TIP3    H238252   3.153   0.784  15.844  2.9708 -0.4826 -1.8555
 5613TIP3   OH238253   1.188   5.111   5.339  0.0750  0.5164  0.8197
 5613TIP3    H138254   1.191   5.113   5.435  2.2246  1.1743  0.7876
 5613TIP3    H238255   1.280   5.113   5.312 -0.4098 -1.3885 -1.2525
 5614TIP3   OH238256   1.939   4.761  15.079 -0.6059  0.2894 -0.2490
 5614TIP3    H138257   1.894   4.678  15.094  1.4877 -0.8574  0.0290
 5614TIP3    H238258   1.992   4.775  15.157  1.0319  0.5231 -1.3371
 5615TIP3   OH238259   3.533   1.044   3.198 -0.0486  0.0992 -0.1208
 5615TIP3    H138260   3.488   1.112   3.147 -2.8010 -0.8607  0.8439
 5615TIP3    H238261   3.538   0.969   3.138 -0.6662 -0.1107  0.0855
 5616TIP3   OH238262   5.266   3.851  14.062 -0.3984 -0.1560 -0.7658
 5616TIP3    H138263   5.303   3.938  14.055 -1.9273  0.4378 -1.9763
 5616TIP3    H238264   5.174   3.865  14.087 -1.5151 -1.1866 -3.8476
 5617TIP3   OH238265   4.355   4.213   3.543  0.0095  0.0434  0.6398
 5617TIP3    H138266   4.414   4.215   3.467  0.7488  0.7722  1.2185
 5617TIP3    H238267   4.385   4.139   3.595 -0.3604 -0.3244  0.3337
 5618TIP3   OH238268   0.207   2.150  12.211  0.0515 -0.3394 -1.0925
 5618TIP3    H138269   0.251   2.150  12.296  0.6975  1.3685 -1.3884
 5618TIP3    H238270   0.115   2.138  12.232 -0.0167  1.6709  0.0453
 5619TIP3   OH238271   5.582   6.258  15.397 -0.3365  0.0606 -0.1406
 5619TIP3    H138272   5.677   6.265  15.407  0.2748 -1.2904 -3.4805
 5619TIP3    H238273   5.550   6.348  15.405  1.5972  0.9195 -1.4011
 5620TIP3   OH238274   1.683   1.495   1.088 -0.3488  0.2355 -0.4221
 5620TIP3    H138275   1.659   1.441   1.012  0.8187 -2.1354  0.8063
 5620TIP3    H238276   1.772   1.525   1.069 -0.7462  1.2250 -0.7935
 5621TIP3   OH238277   1.042   5.972   5.927  0.1266 -0.3379  0.1729
 5621TIP3    H138278   0.996   5.888   5.920 -0.9156  0.0800  1.6084
 5621TIP3    H238279   0.979   6.031   5.968  0.4547  1.4809 -1.7858
 5622TIP3   OH238280   3.657   2.395   0.588  0.0213 -0.2424 -0.4718
 5622TIP3    H138281   3.653   2.463   0.521  3.5424 -0.1149 -0.7529
 5622TIP3    H238282   3.722   2.427   0.651 -0.0180 -2.2652  0.6946
 5623TIP3   OH238283   6.331   0.729  14.971 -0.4693 -0.7035 -0.5659
 5623TIP3    H138284   6.405   0.709  14.914 -0.4870 -0.2698 -0.7459
 5623TIP3    H238285   6.367   0.724  15.059  0.0718  0.6102 -0.6808
 5624TIP3   OH238286   6.362   1.912   5.135 -0.0406 -0.2447  0.4074
 5624TIP3    H138287   6.397   2.001   5.147 -0.6283  0.2064 -1.0196
 5624TIP3    H238288   6.319   1.892   5.218  1.4379  0.1650  1.3135
 5625TIP3   OH238289   4.236   6.228  13.019  0.0419  0.5946  0.0881
 5625TIP3    H138290   4.159   6.233  12.961 -1.3257  0.4278  1.7963
 5625TIP3    H238291   4.280   6.312  13.008 -0.9419  1.0879 -0.1910
 5626TIP3   OH238292   6.209   2.834  13.956 -0.2209 -0.2996  0.2871
 5626TIP3    H138293   6.277   2.858  14.019 -0.7449 -1.1726  1.2136
 5626TIP3    H238294   6.139   2.898  13.971 -0.3855 -0.5660  0.6676
 5627TIP3   OH238295   3.485   2.365  17.053 -0.6139  0.6765 -0.6015
 5627TIP3    H138296   3.531   2.388  17.134 -0.4264  0.9165 -0.7734
 5627TIP3    H238297   3.481   2.270  17.053 -1.4222  0.6968  0.1403
 5628TIP3   OH238298   4.739   0.215  13.265 -0.9084 -0.7128  0.2589
 5628TIP3    H138299   4.829   0.231  13.237 -1.0127  0.3532  0.4810
 5628TIP3    H238300   4.723   0.123  13.244  0.4043 -1.0655  0.7230
 5629TIP3   OH238301   3.570   3.712  16.346 -0.6664  0.0230  0.3432
 5629TIP3    H138302   3.576   3.679  16.256  1.6254 -0.7900  0.7227
 5629TIP3    H238303   3.499   3.661  16.384 -1.4785  0.1655 -0.9121
 5630TIP3   OH238304   6.442   5.703   2.668 -0.0098  0.0966  0.9539
 5630TIP3    H138305   6.433   5.781   2.614 -0.5798 -0.7051 -0.1409
 5630TIP3    H238306   6.353   5.686   2.700 -0.3925 -1.4587 -0.7858
 5631TIP3   OH238307   0.679   1.421   0.212  0.4477 -0.0243  0.0280
 5631TIP3    H138308   0.708   1.332   0.194  1.8079  0.1457  1.1598
 5631TIP3    H238309   0.708   1.437   0.302  1.0032  1.8479 -0.4443
 5632TIP3   OH238310   4.375   5.802   3.981  0.0242 -0.3197 -0.4779
 5632TIP3    H138311   4.427   5.860   4.036  0.5422 -1.0627 -0.1641
 5632TIP3    H238312   4.286   5.811   4.014  0.2521 -0.3861  0.1695
 5633TIP3   OH238313   1.702   4.880  14.455 -0.1963 -0.1443  0.2280
 5633TIP3    H138314   1.651   4.960  14.471 -0.4481 -0.3315  0.3709
 5633TIP3    H238315   1.767   4.906  14.389  1.2614  0.8070  1.9412
 5634TIP3   OH238316   5.031   3.656  16.922 -0.0991 -0.9423  0.0063
 5634TIP3    H138317   4.942   3.637  16.953 -0.1077 -0.0211  0.5903
 5634TIP3    H238318   5.024   3.656  16.827 -0.6855 -1.0841  0.0471
 5635TIP3   OH238319   5.125   0.819   1.060 -0.4710 -0.1545  0.1103
 5635TIP3    H138320   5.206   0.774   1.036  0.5189  1.5384  0.2175
 5635TIP3    H238321   5.095   0.860   0.978 -0.3207  0.6132  0.4360
 5636TIP3   OH238322   2.611   3.265   1.910 -0.0913  0.2166  0.2990
 5636TIP3    H138323   2.651   3.201   1.970 -0.7830  1.2233  1.9158
 5636TIP3    H238324   2.518   3.240   1.908 -0.0586  0.1383 -0.4523
 5637TIP3   OH238325   2.483   2.019   2.070 -0.6137 -0.4434  0.0402
 5637TIP3    H138326   2.531   2.092   2.107 -0.1268 -0.8721  0.2603
 5637TIP3    H238327   2.466   2.045   1.980 -2.0122  0.7104  0.5967
 5638TIP3   OH238328   5.936   0.552  11.899  0.1990  0.3752 -0.5183
 5638TIP3    H138329   5.973   0.637  11.924 -0.3188  0.2455  0.7917
 5638TIP3    H238330   5.877   0.530  11.971  0.2906 -1.0767 -0.8634
 5639TIP3   OH238331   4.781   5.124   1.526 -0.0743  0.3635  0.9047
 5639TIP3    H138332   4.785   5.164   1.439  2.5555 -2.4643 -0.4648
 5639TIP3    H238333   4.699   5.074   1.526  1.2600 -2.0748 -1.3180
 5640TIP3   OH238334   3.010   3.463  13.099 -0.3070  0.2177  0.0641
 5640TIP3    H138335   3.037   3.399  13.033  0.6942  1.6336 -0.9633
 5640TIP3    H238336   3.065   3.443  13.175  1.4483  1.0439 -0.9263
 5641TIP3   OH238337   6.598   1.572   0.176  0.0379  0.3433 -0.1664
 5641TIP3    H138338   6.590   1.603   0.267  0.2216  1.4170 -0.5103
 5641TIP3    H238339   6.692   1.563   0.162  0.0134  0.2967 -0.2983
 5642TIP3   OH238340   5.937   3.458   5.181 -0.0931 -0.7019  0.1278
 5642TIP3    H138341   6.022   3.422   5.156 -0.0961 -0.1183 -0.7823
 5642TIP3    H238342   5.956   3.513   5.257  0.1365 -1.4910  0.6529
 5643TIP3   OH238343   4.312   4.855   3.734 -0.5973  0.2201  0.7798
 5643TIP3    H138344   4.360   4.881   3.655 -1.7169 -0.1770 -0.0605
 5643TIP3    H238345   4.351   4.771   3.759 -0.3392  0.2687  0.5554
 5644TIP3   OH238346   3.497   1.426   2.431  0.8569 -0.4317  0.2747
 5644TIP3    H138347   3.468   1.344   2.390  0.2491 -0.7001  1.2189
 5644TIP3    H238348   3.493   1.409   2.525 -1.1606  1.2822  0.5638
 5645TIP3   OH238349   0.128   4.501   5.504 -0.4206 -0.7767 -0.1035
 5645TIP3    H138350   0.159   4.562   5.571 -0.4303 -1.5792  0.6434
 5645TIP3    H238351   0.208   4.471   5.460 -0.3781 -0.6273 -0.1300
 5646TIP3   OH238352   0.431   5.498  16.514  0.0488  0.3912 -0.0999
 5646TIP3    H138353   0.431   5.575  16.571 -2.3733 -0.0079  0.5672
 5646TIP3    H238354   0.456   5.426  16.571 -1.0940  0.1922  0.1754
 5647TIP3   OH238355   2.660   0.700   1.606  0.0018  0.0712  0.3871
 5647TIP3    H138356   2.692   0.614   1.580 -0.4164  0.6212 -2.2429
 5647TIP3    H238357   2.739   0.752   1.620  0.4124  0.4770 -2.7078
 5648TIP3   OH238358   2.909   4.518   2.632 -0.2231 -0.2213 -0.2980
 5648TIP3    H138359   2.939   4.607   2.615  2.8725 -1.0723  0.1347
 5648TIP3    H238360   2.904   4.478   2.546  2.2080 -0.6614 -0.3033
 5649TIP3   OH238361   2.627   1.527  15.209 -0.3332 -0.1098  0.5745
 5649TIP3    H138362   2.544   1.573  15.205 -0.3304 -0.2020 -0.7909
 5649TIP3    H238363   2.670   1.547  15.126  0.3042 -1.3769  0.5757
 5650TIP3   OH238364   4.144   0.272   1.406  0.7189  0.1291 -0.2806
 5650TIP3    H138365   4.218   0.252   1.463  0.6321  1.5467  0.3641
 5650TIP3    H238366   4.135   0.195   1.350  2.5451 -0.1566 -0.2311
 5651TIP3   OH238367   6.286   2.239   6.157  0.3378  0.1074  0.4109
 5651TIP3    H138368   6.301   2.331   6.181  0.1429 -0.2015  1.7903
 5651TIP3    H238369   6.357   2.191   6.198  0.5593 -0.3593 -0.4836
 5652TIP3   OH238370   4.200   4.998  16.707  0.2248  0.0117 -0.0598
 5652TIP3    H138371   4.247   5.074  16.672  0.4143  0.8885  2.0014
 5652TIP3    H238372   4.164   5.028  16.790 -1.5294 -1.5379 -0.2035
 5653TIP3   OH238373   5.638   6.660  14.050 -0.5072 -0.1971 -0.0400
 5653TIP3    H138374   5.722   6.694  14.020 -1.0247  1.4523  0.2704
 5653TIP3    H238375   5.590   6.641  13.969 -0.4396  0.4385 -0.2324
 5654TIP3   OH238376   2.839   0.894  15.872 -0.1280 -0.7525 -0.0878
 5654TIP3    H138377   2.934   0.899  15.883 -0.2475  0.2685  0.6598
 5654TIP3    H238378   2.826   0.872  15.780  0.8101  0.6432 -0.5820
 5655TIP3   OH238379   4.112   1.659   1.375  0.1483  0.0419 -0.1828
 5655TIP3    H138380   4.100   1.612   1.457  0.6266 -1.5082 -0.9616
 5655TIP3    H238381   4.036   1.717   1.369  0.4373  0.6714  1.6482
 5656TIP3   OH238382   4.318   0.579  13.759 -0.3268 -0.0231 -0.2335
 5656TIP3    H138383   4.355   0.500  13.799 -0.7248  0.0542  0.3069
 5656TIP3    H238384   4.267   0.548  13.685 -0.0567 -0.2237 -0.3358
 5657TIP3   OH238385   5.845   1.287  16.141  0.0731 -0.2980 -0.3614
 5657TIP3    H138386   5.863   1.208  16.193  0.8906 -0.8528 -1.4460
 5657TIP3    H238387   5.794   1.343  16.199 -1.6055 -2.1440  0.0556
 5658TIP3   OH238388   2.926   5.783   2.234 -0.0946 -0.1026 -0.4052
 5658TIP3    H138389   2.986   5.768   2.161 -1.5070 -1.9277 -1.2752
 5658TIP3    H238390   2.957   5.723   2.302  1.1960  1.5672  0.5285
 5659TIP3   OH238391   3.098   5.143  16.024 -0.1042  0.2082 -0.0887
 5659TIP3    H138392   3.107   5.152  16.119 -0.6678 -1.3303  0.1396
 5659TIP3    H238393   3.189   5.141  15.992  0.1340 -0.6883  0.5886
 5660TIP3   OH238394   1.287   6.225  13.390 -0.2385  0.0877 -0.0216
 5660TIP3    H138395   1.303   6.319  13.377 -0.8243  0.1018 -0.7055
 5660TIP3    H238396   1.311   6.210  13.481  1.1639  0.6130 -0.2739
 5661TIP3   OH238397   4.144   1.118  15.358  0.8721 -0.3385 -0.8036
 5661TIP3    H138398   4.125   1.143  15.448  1.8813 -0.1801 -0.6260
 5661TIP3    H238399   4.105   1.031  15.349 -2.0194  0.8860 -1.2069
 5662TIP3   OH238400   6.540   1.487  10.841  0.0775 -0.1986 -0.6463
 5662TIP3    H138401   6.526   1.396  10.816 -0.0822 -0.5412  0.6378
 5662TIP3    H238402   6.601   1.483  10.914 -0.8490  0.6206  0.2042
 5663TIP3   OH238403   4.034   4.435   1.790  0.3747  0.2884  0.0099
 5663TIP3    H138404   4.043   4.367   1.723  1.2038  0.6164 -0.2236
 5663TIP3    H238405   3.944   4.424   1.823 -0.1238  0.2515 -1.2891
 5664TIP3   OH238406   0.469   1.475  12.668  0.3279  0.4275  0.2849
 5664TIP3    H138407   0.540   1.530  12.702  1.6172  0.9359 -2.9194
 5664TIP3    H238408   0.395   1.535  12.659  0.4861  0.6723  0.5768
 5665TIP3   OH238409   1.367   0.220  12.952 -0.1789  0.4582  0.2898
 5665TIP3    H138410   1.351   0.194  13.043  0.2169 -1.5525 -0.1678
 5665TIP3    H238411   1.329   0.150  12.900  3.1162 -0.5712 -0.9888
 5666TIP3   OH238412   6.577   0.262   4.777 -0.4985  1.1209  0.4311
 5666TIP3    H138413   6.593   0.175   4.812 -0.3379  0.8806 -0.2239
 5666TIP3    H238414   6.489   0.257   4.739  0.2749  0.6232 -1.4124
 5667TIP3   OH238415   3.966   0.154   2.924 -0.3320  0.8334 -0.6083
 5667TIP3    H138416   3.943   0.100   2.999 -0.1974  1.9236  0.2399
 5667TIP3    H238417   4.001   0.235   2.962  0.0699  1.2619 -1.8439
 5668TIP3   OH238418   2.678   2.395   3.766 -0.2035  0.7034  0.7014
 5668TIP3    H138419   2.669   2.338   3.842  1.1450 -0.6886 -0.1311
 5668TIP3    H238420   2.766   2.433   3.775  1.0260 -1.4169 -1.3580
 5669TIP3   OH238421   3.880   0.374  13.129  0.3900 -0.1043 -0.1164
 5669TIP3    H138422   3.940   0.375  13.054  0.5624 -1.5347 -0.0112
 5669TIP3    H238423   3.851   0.283  13.136  0.0546  0.0889  1.3111
 5670TIP3   OH238424   4.827   3.868  14.474  0.5709  0.1142 -0.2440
 5670TIP3    H138425   4.767   3.942  14.468 -0.2786 -0.4935  0.5664
 5670TIP3    H238426   4.912   3.905  14.451 -0.2486  0.7702 -2.4879
 5671TIP3   OH238427   4.354   3.401   3.014  0.5777 -0.0076  0.2248
 5671TIP3    H138428   4.414   3.429   3.083 -1.2344  2.7307  0.8689
 5671TIP3    H238429   4.267   3.411   3.054 -0.5095  1.2236 -2.2670
 5672TIP3   OH238430   2.658   6.136   5.717 -0.1895 -0.2950 -0.2275
 5672TIP3    H138431   2.598   6.126   5.643  0.7139 -0.1291 -0.9964
 5672TIP3    H238432   2.698   6.222   5.705  1.1396 -0.9209 -0.4454
 5673TIP3   OH238433   2.586   5.870  17.061  0.1830 -0.2875 -0.3651
 5673TIP3    H138434   2.622   5.781  17.063 -0.4034 -0.5230 -0.0085
 5673TIP3    H238435   2.651   5.921  17.012  1.0167 -0.6888  0.2963
 5674TIP3   OH238436   0.619   1.403   6.379  0.0582  0.2900  0.4344
 5674TIP3    H138437   0.658   1.326   6.420  0.6581 -0.3511 -1.2368
 5674TIP3    H238438   0.694   1.449   6.341 -0.4562  0.9079  0.1594
 5675TIP3   OH238439   3.697   3.808   2.959  0.6185 -0.4620  0.0107
 5675TIP3    H138440   3.649   3.759   2.892  1.2061  1.6705 -2.1138
 5675TIP3    H238441   3.645   3.887   2.973  1.9862  0.4934 -0.1510
 5676TIP3   OH238442   5.590   0.139   0.948  0.1647 -0.7344 -0.0266
 5676TIP3    H138443   5.594   0.191   1.028  1.8574  0.6866 -0.9524
 5676TIP3    H238444   5.660   0.074   0.957 -1.5458 -2.5671  0.8546
 5677TIP3   OH238445   0.222   3.626   0.914  0.7256 -0.5780  0.1945
 5677TIP3    H138446   0.136   3.586   0.926  0.6418 -0.5803 -0.4029
 5677TIP3    H238447   0.208   3.695   0.849  0.5964  1.3213  2.1031
 5678TIP3   OH238448   6.732   5.131   5.544  0.5400  0.1571  0.0555
 5678TIP3    H138449   6.694   5.141   5.631 -0.1271 -0.1723 -0.1949
 5678TIP3    H238450   6.731   5.219   5.507  1.7316  0.4840  0.7368
 5679TIP3   OH238451   0.344   1.465  15.468  0.3297  0.0959  0.1247
 5679TIP3    H138452   0.413   1.520  15.431 -0.3970  0.0825 -1.3195
 5679TIP3    H238453   0.368   1.455  15.560  1.5361  1.1778 -0.0453
 5680TIP3   OH238454   0.533   5.063   2.363  0.5626  0.0340 -0.5596
 5680TIP3    H138455   0.517   5.023   2.277  1.2030 -1.3291 -0.0881
 5680TIP3    H238456   0.618   5.027   2.390  0.0705 -0.0738  0.9295
 5681TIP3   OH238457   5.900   1.699   0.341 -0.4710 -0.2544 -0.0289
 5681TIP3    H138458   5.926   1.622   0.290 -2.8583 -1.2027  0.0592
 5681TIP3    H238459   5.868   1.761   0.276 -0.2334 -0.0597  0.0404
 5682TIP3   OH238460   2.036   1.562   2.608 -0.6148  0.2302  0.0338
 5682TIP3    H138461   2.049   1.587   2.516 -2.0848 -0.7953 -0.4851
 5682TIP3    H238462   2.120   1.525   2.635 -0.0678  0.8242 -0.7891
 5683TIP3   OH238463   1.664   5.424  13.633 -0.5636  0.0603 -0.4329
 5683TIP3    H138464   1.691   5.441  13.542 -0.0758  0.7567 -0.1688
 5683TIP3    H238465   1.676   5.330  13.644  2.2216  0.3453 -0.2266
 5684TIP3   OH238466   2.426   2.186   3.457  0.1013 -0.0414 -0.4999
 5684TIP3    H138467   2.432   2.193   3.361  0.4027  0.3872 -0.4542
 5684TIP3    H238468   2.516   2.201   3.487 -0.3571  1.9173 -0.0264
 5685TIP3   OH238469   5.852   0.889   5.361  0.0741 -0.4327 -0.6804
 5685TIP3    H138470   5.774   0.910   5.310 -0.1552  1.6586  0.4083
 5685TIP3    H238471   5.920   0.871   5.296 -0.4894  1.0381 -1.7224
 5686TIP3   OH238472   1.787   0.138  11.205  0.5363  0.1026 -0.1333
 5686TIP3    H138473   1.800   0.153  11.111  0.1294  0.2041 -0.1738
 5686TIP3    H238474   1.721   0.069  11.210  0.1922  0.4416  0.0775
 5687TIP3   OH238475   6.731   6.596  14.952 -0.2137  0.6229 -0.2844
 5687TIP3    H138476   6.661   6.537  14.979 -0.6801  0.8787 -0.9135
 5687TIP3    H238477   6.746   6.575  14.860  1.5536 -0.4370  0.1996
 5688TIP3   OH238478   1.280   6.072   4.441  0.0353  0.5403  0.1737
 5688TIP3    H138479   1.338   6.046   4.514 -2.2155 -1.0585  1.5169
 5688TIP3    H238480   1.268   6.166   4.453  0.6312  0.5114  1.1758
 5689TIP3   OH238481   2.020   1.910  12.268  0.2650 -0.0841 -0.0965
 5689TIP3    H138482   2.015   1.916  12.363  0.9229  2.5580 -0.1544
 5689TIP3    H238483   2.023   2.001  12.238 -1.7622 -0.7685 -2.7842
 5690TIP3   OH238484   0.031   6.657  12.181 -0.6473 -0.0967 -0.6576
 5690TIP3    H138485  -0.056   6.621  12.162 -0.5341  0.2261 -1.8344
 5690TIP3    H238486   0.014   6.734  12.234 -1.0830 -0.0639 -0.8436
 5691TIP3   OH238487   0.817   5.084  12.402  0.4890 -0.0389  0.2278
 5691TIP3    H138488   0.907   5.079  12.434 -0.2306  1.4092  2.7108
 5691TIP3    H238489   0.774   5.148  12.459 -1.7481  0.4507 -1.8473
 5692TIP3   OH238490   4.111   4.100  14.969 -0.4187 -0.2817  0.0160
 5692TIP3    H138491   4.169   4.152  15.026 -0.7561 -0.0390  0.1388
 5692TIP3    H238492   4.035   4.082  15.023 -0.8900  0.2306 -0.4679
 5693TIP3   OH238493   5.043   3.630  14.447 -0.2691 -0.1171  0.6395
 5693TIP3    H138494   5.134   3.656  14.460 -0.4958  0.2414  1.5982
 5693TIP3    H238495   5.032   3.551  14.500 -0.4459 -0.3288  0.2963
 5694TIP3   OH238496   4.386   4.323  14.351  0.2515  0.4261  0.1660
 5694TIP3    H138497   4.442   4.371  14.413  0.8719  0.8497 -0.7070
 5694TIP3    H238498   4.340   4.391  14.303 -1.1580  0.0739  0.9681
 5695TIP3   OH238499   2.518   2.671   4.797 -0.2474 -0.4427  0.2353
 5695TIP3    H138500   2.461   2.635   4.865 -2.1256  1.0996 -0.4404
 5695TIP3    H238501   2.459   2.696   4.726  1.6777 -2.2388 -2.1587
 5696TIP3   OH238502   3.959   5.017   3.623  0.4908 -0.0521  0.0684
 5696TIP3    H138503   4.003   5.092   3.582 -0.5075  0.3421 -0.3475
 5696TIP3    H238504   3.866   5.041   3.621  0.2725 -0.7433  1.1204
 5697TIP3   OH238505   4.932   4.649  11.801 -0.2379  0.2404 -0.0602
 5697TIP3    H138506   4.995   4.659  11.872  0.4384  1.5499 -0.8041
 5697TIP3    H238507   4.976   4.593  11.737 -0.3014  0.1747 -0.0468
 5698TIP3   OH238508   0.554   4.514   1.959 -0.1230  0.6702 -0.2699
 5698TIP3    H138509   0.644   4.490   1.936 -0.0696 -0.3553  0.8950
 5698TIP3    H238510   0.502   4.492   1.882  0.7421  2.2289 -1.3475
 5699TIP3   OH238511   4.293   0.059  13.651 -0.1538  0.1315  0.0463
 5699TIP3    H138512   4.300   0.109  13.732 -0.4367 -0.3254  0.3563
 5699TIP3    H238513   4.374   0.008  13.646 -0.6144 -0.6823  0.6183
 5700TIP3   OH238514   4.608   4.411   3.161 -0.5040 -0.3235 -0.6405
 5700TIP3    H138515   4.564   4.476   3.216  0.2724 -1.0660  0.9066
 5700TIP3    H238516   4.623   4.456   3.078 -1.0454  1.0747 -0.0043
 5701TIP3   OH238517   0.773   0.327   1.819 -0.5346 -0.6411  0.5912
 5701TIP3    H138518   0.714   0.321   1.894  0.0366 -2.4823  0.9589
 5701TIP3    H238519   0.747   0.253   1.763  1.8658 -2.0238  1.1581
 5702TIP3   OH238520   2.891   0.614  16.661  0.0383 -0.1394 -0.0242
 5702TIP3    H138521   2.832   0.689  16.653  0.9103  0.6707  0.8668
 5702TIP3    H238522   2.924   0.601  16.572  0.3365  0.9236 -0.0819
 5703TIP3   OH238523   0.212   5.908  16.974  0.0215 -0.7155  0.0432
 5703TIP3    H138524   0.205   5.828  16.923 -2.1648 -0.2184 -0.5539
 5703TIP3    H238525   0.130   5.913  17.023  0.1919  1.0377  0.2225
 5704TIP3   OH238526   5.803   3.536  13.093 -0.2231  0.3890 -0.0346
 5704TIP3    H138527   5.731   3.519  13.033  1.3188 -2.3437 -1.2744
 5704TIP3    H238528   5.760   3.567  13.173 -2.7053 -0.4888 -0.9218
 5705TIP3   OH238529   3.477   5.430   2.415 -0.0124 -0.0359 -0.1509
 5705TIP3    H138530   3.433   5.465   2.337  1.4986  0.1059 -0.9768
 5705TIP3    H238531   3.431   5.471   2.489 -2.3898 -1.2260 -0.8673
 5706TIP3   OH238532   2.280   3.370  11.612 -0.1525  0.3459  0.3134
 5706TIP3    H138533   2.283   3.297  11.549 -5.7383  0.6804 -0.8623
 5706TIP3    H238534   2.228   3.336  11.685 -1.3797  2.5649  0.5507
 5707TIP3   OH238535   3.699   2.053   4.985  0.4690 -0.2862 -0.4451
 5707TIP3    H138536   3.747   2.098   5.055  1.1004  0.7565 -1.5219
 5707TIP3    H238537   3.615   2.098   4.981  0.3809 -0.4351 -0.2659
 5708TIP3   OH238538   4.018   2.423  12.000 -0.2767  0.1900  0.5668
 5708TIP3    H138539   4.045   2.512  12.023  1.5248 -0.1648  0.0142
 5708TIP3    H238540   4.100   2.374  11.993 -0.8067 -0.4663 -3.4963
 5709TIP3   OH238541   5.900   0.847  14.067  0.0838  0.3747 -0.3139
 5709TIP3    H138542   5.904   0.940  14.089 -1.2277  0.7628 -1.5633
 5709TIP3    H238543   5.936   0.841  13.978 -0.9045 -0.1154 -0.6994
 5710TIP3   OH238544   5.135   1.987   1.539 -0.4274  0.0687  0.3654
 5710TIP3    H138545   5.229   1.976   1.552 -0.2199  1.5063  0.2676
 5710TIP3    H238546   5.115   1.939   1.459  0.0910 -0.8058  0.7518
 5711TIP3   OH238547   6.299   0.172  11.130 -0.2563 -0.4373 -0.0399
 5711TIP3    H138548   6.244   0.094  11.144  1.3123 -1.7635 -0.9274
 5711TIP3    H238549   6.254   0.221  11.061 -1.7000 -0.0787  1.0989
 5712TIP3   OH238550   6.686   3.299  16.475  0.1212  0.3929 -0.2094
 5712TIP3    H138551   6.638   3.231  16.523  0.6435 -0.6274 -1.0867
 5712TIP3    H238552   6.618   3.356  16.439 -0.6530 -2.0144 -2.9342
 5713TIP3   OH238553   6.591   4.729   2.750  0.0401 -0.1151 -0.1347
 5713TIP3    H138554   6.617   4.797   2.688  0.4853  0.2464  0.4319
 5713TIP3    H238555   6.636   4.753   2.832 -0.9868 -0.2549  0.4905
 5714TIP3   OH238556   5.172   1.192  16.767 -0.5240 -0.2517 -0.2975
 5714TIP3    H138557   5.187   1.104  16.802 -1.9024 -0.0344  0.8876
 5714TIP3    H238558   5.094   1.223  16.812  0.6868  2.1156  0.3039
 5715TIP3   OH238559   4.669   3.115   1.744  0.1919  0.2103 -0.0088
 5715TIP3    H138560   4.748   3.117   1.798 -1.3829  0.6162  2.4866
 5715TIP3    H238561   4.607   3.063   1.796 -0.8237 -1.2430 -2.4912
 5716TIP3   OH238562   6.684   1.825   4.780  0.4642 -0.2110 -0.3349
 5716TIP3    H138563   6.721   1.737   4.775  0.5952 -0.1594 -0.3052
 5716TIP3    H238564   6.692   1.848   4.873  0.9593  0.0530 -0.4378
 5717TIP3   OH238565   1.199   4.505  15.771 -0.2561  0.2644 -0.0581
 5717TIP3    H138566   1.240   4.497  15.857  2.2805  1.3230 -1.0848
 5717TIP3    H238567   1.223   4.425  15.725 -0.4672  0.3127 -0.2566
 5718TIP3   OH238568   1.081   2.324   1.378 -0.0815  0.4081 -0.6055
 5718TIP3    H138569   1.026   2.246   1.371 -0.1294  0.3899 -0.0553
 5718TIP3    H238570   1.025   2.389   1.420  0.8406 -0.1397  1.6066
 5719TIP3   OH238571   4.261   6.296  15.010 -0.3736 -0.2017  0.2253
 5719TIP3    H138572   4.233   6.228  15.071 -1.2758  0.2919  0.3767
 5719TIP3    H238573   4.235   6.378  15.052 -0.3030  0.1788 -0.4679
 5720TIP3   OH238574   2.193   3.316   2.083 -0.6092 -0.3091  0.1954
 5720TIP3    H138575   2.136   3.240   2.069  0.6846 -1.5073  1.1741
 5720TIP3    H238576   2.133   3.386   2.106 -2.0080 -0.5152 -2.4737
 5721TIP3   OH238577   5.375   2.903   3.437 -0.0170 -0.1921 -0.1539
 5721TIP3    H138578   5.430   2.853   3.497  0.8458  1.1213  0.2093
 5721TIP3    H238579   5.421   2.987   3.427 -2.1640  1.1480  0.5128
 5722TIP3   OH238580   5.099   5.167   4.661 -0.2567 -0.3648 -0.5983
 5722TIP3    H138581   5.097   5.112   4.740 -1.3394  1.1237  0.4682
 5722TIP3    H238582   5.064   5.112   4.592 -1.3592 -1.0348  0.4518
 5723TIP3   OH238583   0.673   0.478   1.539  0.4411  0.2186  0.3415
 5723TIP3    H138584   0.718   0.454   1.620  0.2983  0.0347  0.3664
 5723TIP3    H238585   0.735   0.533   1.492 -1.0263  4.2000  2.5793
 5724TIP3   OH238586   1.369   1.345  13.198  0.4170 -0.0671 -0.3735
 5724TIP3    H138587   1.292   1.380  13.242  1.0503 -0.4932  1.1159
 5724TIP3    H238588   1.416   1.423  13.167  0.1941  0.2575  0.0928
 5725TIP3   OH238589   2.374   6.082  15.304 -0.0323  0.4981  0.0005
 5725TIP3    H138590   2.434   6.064  15.377 -0.3132 -0.6158 -0.0269
 5725TIP3    H238591   2.352   5.996  15.269 -1.5808  0.8854 -0.0409
 5726TIP3   OH238592   0.473   3.149  12.733 -0.4945 -0.0113 -0.0819
 5726TIP3    H138593   0.399   3.193  12.774 -1.1649 -0.8240 -0.4087
 5726TIP3    H238594   0.540   3.217  12.725 -1.2292  0.7451  0.1415
 5727TIP3   OH238595   0.598   4.034   1.323 -0.4279  0.6520 -0.5967
 5727TIP3    H138596   0.632   3.946   1.340 -3.6971 -0.7051 -0.2973
 5727TIP3    H238597   0.631   4.056   1.236  0.8145 -0.6717 -0.5013
 5728TIP3   OH238598   3.496   6.247  13.858  0.2587 -0.0044 -0.1572
 5728TIP3    H138599   3.549   6.213  13.786 -1.9401 -2.4199 -0.7806
 5728TIP3    H238600   3.537   6.210  13.936 -0.5297 -2.1133 -0.6511
 5729TIP3   OH238601   4.459   5.436  14.246 -0.0910  0.5439 -0.3390
 5729TIP3    H138602   4.527   5.391  14.196  2.8711  1.2320  2.6726
 5729TIP3    H238603   4.454   5.386  14.328 -1.7243  1.7735  0.3620
 5730TIP3   OH238604   4.161   2.624  10.394  0.9862 -0.3958  0.7809
 5730TIP3    H138605   4.200   2.677  10.325  0.7529 -0.2081  0.7897
 5730TIP3    H238606   4.193   2.536  10.378  0.2554 -0.5204 -0.0780
 5731TIP3   OH238607   4.615   4.283  11.654 -0.0760 -0.5966 -0.1107
 5731TIP3    H138608   4.686   4.230  11.691 -0.5935 -0.4891  1.0763
 5731TIP3    H238609   4.548   4.285  11.722 -0.7796  0.1897 -0.7977
 5732TIP3   OH238610   3.329   5.998   6.105  0.6679 -0.5939 -0.1336
 5732TIP3    H138611   3.306   5.907   6.085  2.3026 -0.8172 -1.0987
 5732TIP3    H238612   3.274   6.050   6.046  2.4801 -1.1149 -2.3967
 5733TIP3   OH238613   0.011   3.923   5.735  0.2792  0.6489  0.4259
 5733TIP3    H138614   0.013   3.982   5.810 -0.5111  1.6112 -0.2838
 5733TIP3    H238615  -0.030   3.974   5.665  0.3336 -0.4675 -0.4545
 5734TIP3   OH238616   2.625   1.016   2.918 -0.3346  0.0787 -0.3607
 5734TIP3    H138617   2.669   0.961   2.983  0.7100  0.9514 -0.3012
 5734TIP3    H238618   2.613   0.960   2.842  0.1429 -0.4094 -0.0768
 5735TIP3   OH238619   1.413   4.887  15.913  1.0743  0.3630 -0.0820
 5735TIP3    H138620   1.392   4.909  16.004 -2.6252  0.2942 -0.7279
 5735TIP3    H238621   1.448   4.968  15.876  0.3780  1.1214  0.8653
 5736TIP3   OH238622   3.766   4.870   2.242 -0.0439  0.2984 -0.0858
 5736TIP3    H138623   3.812   4.947   2.275 -0.4657 -0.6661  3.0993
 5736TIP3    H238624   3.677   4.881   2.274 -0.5253 -0.7299 -1.0415
 5737TIP3   OH238625   5.809   4.053   4.681 -0.1091  0.3922  0.0990
 5737TIP3    H138626   5.794   4.147   4.689  1.0683  0.5520  0.6938
 5737TIP3    H238627   5.902   4.045   4.657 -0.4588 -0.5856 -1.0325
 5738TIP3   OH238628   5.867   4.138  13.226  0.5131 -0.2212 -0.3622
 5738TIP3    H138629   5.799   4.205  13.227  0.8157  0.0896  0.2833
 5738TIP3    H238630   5.829   4.064  13.274  0.3147 -0.3830 -0.7600
 5739TIP3   OH238631   6.047   5.353   2.805  0.0994  0.5546 -0.1380
 5739TIP3    H138632   6.024   5.378   2.715  1.5066  1.4797 -0.2576
 5739TIP3    H238633   6.074   5.434   2.847 -0.7831  0.1820  1.2359
 5740TIP3   OH238634   1.008   1.451  11.488  0.1673  0.5794  0.6772
 5740TIP3    H138635   0.932   1.480  11.539  0.2823  1.6111  0.2896
 5740TIP3    H238636   1.063   1.529  11.481 -0.3337  0.7967 -1.8841
 5741TIP3   OH238637   2.266   5.525  13.502 -0.1833 -0.3611  0.0935
 5741TIP3    H138638   2.334   5.536  13.568  0.0889 -1.3344 -0.0119
 5741TIP3    H238639   2.251   5.613  13.469 -0.2432  0.1280  1.3671
 5742TIP3   OH238640   1.705   0.422  15.682 -0.1504 -0.0282  0.0495
 5742TIP3    H138641   1.681   0.342  15.636  0.6068  1.1038 -2.4964
 5742TIP3    H238642   1.781   0.455  15.634 -1.7515  3.3522 -0.4526
 5743TIP3   OH238643   5.043   1.933   4.195  0.2244 -0.2012  0.5142
 5743TIP3    H138644   5.049   1.969   4.284 -2.1346 -2.3186  1.6417
 5743TIP3    H238645   5.134   1.928   4.165  0.9889  1.8025  2.2347
 5744TIP3   OH238646   0.653   2.381   0.931  0.0004 -0.4836 -0.3051
 5744TIP3    H138647   0.632   2.308   0.872 -0.4139 -0.0739 -0.6680
 5744TIP3    H238648   0.636   2.459   0.879 -1.1788 -0.0945  0.6146
 5745TIP3   OH238649   4.778   1.419  15.460  0.0450 -0.5020  0.0433
 5745TIP3    H138650   4.843   1.357  15.429  0.5654  0.2243 -0.3438
 5745TIP3    H238651   4.826   1.502  15.470 -0.7719 -0.0062 -0.0644
 5746TIP3   OH238652   1.555   1.741  11.407 -0.6307 -0.1145  0.1557
 5746TIP3    H138653   1.510   1.662  11.437 -1.0330 -0.5297 -1.4321
 5746TIP3    H238654   1.648   1.720  11.416 -0.7384 -0.6504  0.0486
 5747TIP3   OH238655   1.501   2.806  13.897  0.0560  0.3524  0.2264
 5747TIP3    H138656   1.409   2.809  13.921 -0.0844 -2.3511  0.3780
 5747TIP3    H238657   1.548   2.814  13.980 -0.1312 -0.0448  0.3755
 5748TIP3   OH238658   5.921   0.848   4.346 -0.5719 -0.5561  0.7807
 5748TIP3    H138659   5.839   0.801   4.365 -1.1284 -0.7836 -1.8122
 5748TIP3    H238660   5.900   0.902   4.270  1.6132 -0.3278  0.2871
 5749TIP3   OH238661   0.587   2.132   4.932 -0.2086  0.2587 -0.0306
 5749TIP3    H138662   0.667   2.108   4.885 -0.6065  0.7679 -0.9845
 5749TIP3    H238663   0.617   2.188   5.004  0.3797 -0.3644  0.2272
 5750TIP3   OH238664   5.225   5.187   0.720  0.1018 -0.0736  0.0521
 5750TIP3    H138665   5.288   5.258   0.739  0.1599 -0.1593  0.1822
 5750TIP3    H238666   5.216   5.141   0.804  0.5580 -0.6156 -0.1866
 5751TIP3   OH238667   0.703   0.834  13.764  0.0928  0.2126  0.0306
 5751TIP3    H138668   0.690   0.744  13.793  0.6375  0.4813  1.1531
 5751TIP3    H238669   0.657   0.887  13.830  0.7340  0.8045  0.0106
 5752TIP3   OH238670   5.662   5.485  16.876 -0.8704  0.3206 -0.2995
 5752TIP3    H138671   5.705   5.480  16.790 -1.0209  0.5631 -0.3908
 5752TIP3    H238672   5.598   5.415  16.875  0.3934 -0.8837  0.3394
 5753TIP3   OH238673   0.462   4.898  12.501  0.4329 -0.4624 -0.2037
 5753TIP3    H138674   0.401   4.831  12.469  0.6027 -0.2881 -0.9068
 5753TIP3    H238675   0.547   4.871  12.468  0.8112 -0.9043  1.0940
 5754TIP3   OH238676   4.553   3.177  13.202  0.3432  0.2166  0.3360
 5754TIP3    H138677   4.527   3.133  13.121  0.3370  0.0601  0.4214
 5754TIP3    H238678   4.649   3.178  13.198  0.3595 -0.1562  0.5137
 5755TIP3   OH238679   1.300   2.596  11.135  0.0886  0.1278 -0.4238
 5755TIP3    H138680   1.220   2.646  11.149  0.2965  0.3462  0.0059
 5755TIP3    H238681   1.312   2.547  11.216 -0.7561 -1.5554 -1.2769
 5756TIP3   OH238682   5.439   0.761  14.611 -0.2505 -0.4195 -0.0262
 5756TIP3    H138683   5.372   0.706  14.653 -0.1736 -0.7985 -0.3956
 5756TIP3    H238684   5.439   0.734  14.520  0.5430 -0.5581  0.0057
 5757TIP3   OH238685   4.656   2.320  16.672 -0.7583  0.0715 -0.1042
 5757TIP3    H138686   4.627   2.367  16.751 -2.3204 -1.2070  0.1345
 5757TIP3    H238687   4.663   2.388  16.605 -0.6961  0.9813  0.7926
 5758TIP3   OH238688   6.219   0.589  15.761  0.3360  0.5481 -0.0567
 5758TIP3    H138689   6.143   0.642  15.736  1.9798  2.2256 -1.8089
 5758TIP3    H238690   6.280   0.651  15.801  0.9165 -0.7421  1.1790
 5759TIP3   OH238691   3.964   6.337   4.241  0.0542  0.3534 -0.2907
 5759TIP3    H138692   3.921   6.305   4.320  0.9426  0.7411  0.3711
 5759TIP3    H238693   4.054   6.354   4.268 -0.0920  2.3006 -0.8989
 5760TIP3   OH238694   5.198   6.739   5.566  0.2339 -0.2562 -0.2408
 5760TIP3    H138695   5.122   6.780   5.524 -0.9333 -0.3211  1.6795
 5760TIP3    H238696   5.171   6.727   5.658  2.0664 -1.5574  0.1817
 5761TIP3   OH238697   4.896   5.306  12.804 -0.3661  0.6318 -0.7340
 5761TIP3    H138698   4.826   5.253  12.842  0.5341 -0.3795 -0.4406
 5761TIP3    H238699   4.850   5.370  12.750 -1.5279  0.1447 -0.3670
 5762TIP3   OH238700   0.008   1.956   5.732 -0.4054 -0.1376  0.3438
 5762TIP3    H138701  -0.020   2.047   5.734  1.0633  0.3739 -0.2463
 5762TIP3    H238702   0.011   1.934   5.639  0.4741 -0.3576  0.4125
 5763TIP3   OH238703   4.478   5.565   2.513 -0.2588  0.2134 -0.6249
 5763TIP3    H138704   4.496   5.587   2.422  1.4340 -0.9017 -0.6004
 5763TIP3    H238705   4.525   5.632   2.563 -1.5338  1.0795 -0.5260
 5764TIP3   OH238706   4.076   4.466  11.283 -0.2250 -0.5529  0.9094
 5764TIP3    H138707   4.136   4.541  11.275 -0.1259 -0.6041  1.1648
 5764TIP3    H238708   4.043   4.452  11.194 -1.1114  0.5063  1.0523
 5765TIP3   OH238709   1.203   2.639   4.726  0.5428 -0.2456  0.0685
 5765TIP3    H138710   1.107   2.634   4.722  0.5087  0.7789 -1.2186
 5765TIP3    H238711   1.226   2.594   4.807 -0.8902 -2.1004 -0.4883
 5766TIP3   OH238712   0.356   4.699  12.055 -0.1739 -0.4087  1.0233
 5766TIP3    H138713   0.419   4.632  12.084  1.2948  0.4750  0.0294
 5766TIP3    H238714   0.381   4.718  11.965 -2.2546 -0.3960  0.4018
 5767TIP3   OH238715   1.455   5.745   4.320  0.2168 -0.2490  0.6966
 5767TIP3    H138716   1.515   5.817   4.340 -0.1012 -0.1593  1.3692
 5767TIP3    H238717   1.369   5.788   4.311  0.0483 -0.5249  0.9773
 5768TIP3   OH238718   2.258   1.628  11.667 -0.2253 -0.3296  0.1074
 5768TIP3    H138719   2.226   1.715  11.688 -0.5636 -0.7076  1.2801
 5768TIP3    H238720   2.180   1.577  11.647  0.0936  0.0337 -2.3227
 5769TIP3   OH238721   6.223   3.850  11.529  0.1740 -0.2728  0.0019
 5769TIP3    H138722   6.269   3.794  11.592 -1.9186 -0.2772  1.6353
 5769TIP3    H238723   6.190   3.789  11.464 -1.2479 -0.9011  1.2414
 5770TIP3   OH238724   6.143   0.849   0.788 -0.2510 -0.1155  0.3589
 5770TIP3    H138725   6.079   0.804   0.843  1.2218 -0.3260  1.9746
 5770TIP3    H238726   6.137   0.941   0.814  0.8641 -0.3052  1.3345
 5771TIP3   OH238727   4.812   2.894   4.245  0.0378  0.3191  0.0929
 5771TIP3    H138728   4.793   2.827   4.179  0.5875 -0.2559  0.5170
 5771TIP3    H238729   4.906   2.909   4.238  0.7388 -2.0065  2.8193
 5772TIP3   OH238730   2.594   5.524  14.716  0.1652 -0.3536  0.2045
 5772TIP3    H138731   2.610   5.606  14.763 -0.2581 -0.5137  0.6371
 5772TIP3    H238732   2.627   5.456  14.774  1.4432 -0.4481 -0.5830
 5773TIP3   OH238733   4.498   2.177  14.516 -0.0681 -0.0808  0.7773
 5773TIP3    H138734   4.477   2.227  14.594 -1.9410 -1.4480  1.2314
 5773TIP3    H238735   4.446   2.217  14.446  0.4890  0.2431  0.5420
 5774TIP3   OH238736   2.186   6.158   4.495 -0.5394 -0.0788  0.5113
 5774TIP3    H138737   2.144   6.125   4.574 -1.6498  1.9654  0.8643
 5774TIP3    H238738   2.119   6.214   4.455  0.0096 -1.0245 -1.8746
 5775TIP3   OH238739   6.655   3.219  12.514  0.2494 -0.1523  0.1550
 5775TIP3    H138740   6.706   3.225  12.595 -0.1058  0.8984  0.3106
 5775TIP3    H238741   6.568   3.191  12.543  0.5602 -1.4283 -0.0579
 5776TIP3   OH238742   5.987   6.247  15.961 -0.9077 -0.0897 -0.4616
 5776TIP3    H138743   6.052   6.296  15.911 -1.0262  1.0128  0.4301
 5776TIP3    H238744   6.032   6.220  16.040 -1.1907 -0.4104 -0.4054
 5777TIP3   OH238745   1.812   3.598  12.723 -0.2362  0.1742 -0.2657
 5777TIP3    H138746   1.735   3.640  12.684 -0.3322 -0.2762 -0.5826
 5777TIP3    H238747   1.887   3.637  12.678 -0.3761 -0.9176 -1.5230
 5778TIP3   OH238748   1.829   4.498   0.126  0.0179  0.0139 -0.0350
 5778TIP3    H138749   1.873   4.529   0.046 -0.6111  0.0998 -0.3509
 5778TIP3    H238750   1.745   4.464   0.095  0.4021 -1.3788  0.3939
 5779TIP3   OH238751   2.735   5.186  12.785  0.6875 -0.5799 -0.0249
 5779TIP3    H138752   2.670   5.116  12.783  0.5702 -0.4536 -1.3813
 5779TIP3    H238753   2.807   5.153  12.731  1.4574 -0.4181  0.8692
 5780TIP3   OH238754   0.803   6.219  14.704 -0.2090  0.3986 -0.2620
 5780TIP3    H138755   0.813   6.201  14.611 -1.6887 -1.5240 -0.1335
 5780TIP3    H238756   0.710   6.240  14.714 -0.7454 -2.1837  1.0807
 5781TIP3   OH238757   4.038   2.122   0.138  0.7710  0.5120 -0.0120
 5781TIP3    H138758   3.976   2.087   0.201 -0.8413  0.7995 -1.3578
 5781TIP3    H238759   4.110   2.060   0.138 -0.8551 -1.4930 -0.4904
 5782TIP3   OH238760   4.157   6.310  16.021 -0.4864  0.4226  0.0495
 5782TIP3    H138761   4.230   6.359  15.984  0.1381 -0.3418  0.2475
 5782TIP3    H238762   4.103   6.376  16.065 -1.0682  1.3264 -1.8992
 5783TIP3   OH238763   0.448   5.604  14.736 -0.2391 -0.7007 -0.2717
 5783TIP3    H138764   0.419   5.694  14.720 -0.8134 -0.6478  0.9160
 5783TIP3    H238765   0.517   5.613  14.801 -0.7804 -1.1588  0.3738
 5784TIP3   OH238766   4.377   6.159   6.434  0.1477 -0.1090  0.5765
 5784TIP3    H138767   4.439   6.222   6.398 -0.6706  0.5330  0.2489
 5784TIP3    H238768   4.431   6.085   6.462  0.8517 -0.8315 -2.3266
 5785TIP3   OH238769   4.997   6.050  15.943  0.2252 -0.0730  0.0474
 5785TIP3    H138770   5.052   5.973  15.952  0.0030 -0.2450 -0.0614
 5785TIP3    H238771   4.911   6.016  15.918 -0.1042  0.1486  0.8522
 5786TIP3   OH238772   0.163   0.376  12.741  0.0067  0.4864  0.6936
 5786TIP3    H138773   0.231   0.425  12.695  0.4105  0.2918  1.0775
 5786TIP3    H238774   0.154   0.420  12.825 -0.6715  0.7920  0.4651
 5787TIP3   OH238775   4.785   4.850   6.028  0.9110  0.1319  0.2007
 5787TIP3    H138776   4.720   4.780   6.016  1.2425 -0.9830  3.8009
 5787TIP3    H238777   4.739   4.930   6.001 -1.1034 -0.9279  0.2899
 5788TIP3   OH238778   2.798   5.934  15.960 -0.3744  0.1302  0.1041
 5788TIP3    H138779   2.758   5.937  16.047 -1.0037 -0.5233 -0.1541
 5788TIP3    H238780   2.884   5.976  15.972  0.3960 -1.6869  1.5126
 5789TIP3   OH238781   3.864   5.273  15.849  0.1009 -0.1281 -0.3374
 5789TIP3    H138782   3.896   5.276  15.939  0.0749  0.5491 -0.3483
 5789TIP3    H238783   3.904   5.194  15.812 -1.9044 -1.8964  1.0290
 5790TIP3   OH238784   5.560   2.726  17.182 -0.0523 -0.1018  0.4959
 5790TIP3    H138785   5.641   2.680  17.161 -0.9924 -1.3137 -0.6453
 5790TIP3    H238786   5.504   2.713  17.106 -0.5727  2.5714  0.3166
 5791TIP3   OH238787   2.628   4.568   1.023 -0.2587 -0.5246  0.1011
 5791TIP3    H138788   2.676   4.601   1.099  0.4334 -0.9587 -0.1417
 5791TIP3    H238789   2.685   4.584   0.948  0.2629 -2.5178  0.0092
 5792TIP3   OH238790   6.256   2.994  12.359 -0.0738 -0.4841  0.5375
 5792TIP3    H138791   6.248   3.037  12.274 -0.2691 -0.3293  0.6327
 5792TIP3    H238792   6.327   3.041  12.402  1.0449 -1.5308 -0.1106
 5793TIP3   OH238793   3.306   3.526   2.783 -0.0011  0.1058 -0.1542
 5793TIP3    H138794   3.272   3.615   2.774  1.1533  0.4162 -2.0138
 5793TIP3    H238795   3.318   3.496   2.693  1.4234 -1.2218  0.4423
 5794TIP3   OH238796   1.991   5.656  11.740  0.0454  0.0306 -0.6812
 5794TIP3    H138797   2.029   5.741  11.761  1.3766 -0.5177 -0.8100
 5794TIP3    H238798   2.016   5.600  11.814 -0.6252 -0.3210 -0.7131
 5795TIP3   OH238799   3.251   0.809  11.118  0.0604 -0.4221 -0.5281
 5795TIP3    H138800   3.251   0.774  11.029 -2.0612  2.1952 -1.7012
 5795TIP3    H238801   3.172   0.772  11.159 -2.1022  2.5129 -1.7213
 5796TIP3   OH238802   3.676   2.239   0.868 -0.3138  0.6364  0.0854
 5796TIP3    H138803   3.740   2.248   0.798  0.9642  0.3152  1.1656
 5796TIP3    H238804   3.637   2.153   0.854  0.5112  0.2293  0.2026
 5797TIP3   OH238805   4.196   2.308   5.097  0.2540 -0.0949  0.8212
 5797TIP3    H138806   4.271   2.273   5.145  0.9025  0.9546  0.5949
 5797TIP3    H238807   4.136   2.340   5.165 -0.5984 -2.0351  1.0643
 5798TIP3   OH238808   2.769   5.352   6.608  0.2711  0.1779  0.1039
 5798TIP3    H138809   2.818   5.279   6.571  0.1266  0.6603 -1.0619
 5798TIP3    H238810   2.681   5.344   6.570 -0.6243 -0.6854  2.1698
 5799TIP3   OH238811   3.550   2.094  14.711 -0.3025  0.8657 -0.3165
 5799TIP3    H138812   3.504   2.090  14.796  1.4693 -0.7929  0.6292
 5799TIP3    H238813   3.485   2.131  14.651 -2.7573 -1.0013  1.0099
 5800TIP3   OH238814   3.779   2.261   3.200 -0.3109  0.2402 -0.1464
 5800TIP3    H138815   3.795   2.187   3.258  1.1541 -0.2535 -1.1094
 5800TIP3    H238816   3.715   2.315   3.246  0.2041 -0.5252  1.5502
 5801TIP3   OH238817   2.930   2.546  10.764  0.5502  0.0233  0.2299
 5801TIP3    H138818   2.932   2.540  10.669 -0.1815 -1.7201  0.2804
 5801TIP3    H238819   2.837   2.554  10.786  0.7153  0.4491  0.8019
 5802TIP3   OH238820   0.754   6.362   3.163 -0.7304 -0.9284 -0.2409
 5802TIP3    H138821   0.701   6.357   3.243 -0.1657  0.2527  0.2297
 5802TIP3    H238822   0.749   6.453   3.136  0.8752 -0.8149 -0.2843
 5803TIP3   OH238823   1.222   1.720  11.760  0.4030 -0.0491 -0.2230
 5803TIP3    H138824   1.309   1.681  11.765  0.1689 -0.4316  1.3676
 5803TIP3    H238825   1.175   1.684  11.835 -0.6176  1.3637 -0.1392
 5804TIP3   OH238826   3.583   5.137  13.593 -0.2783 -0.3810  0.2262
 5804TIP3    H138827   3.632   5.090  13.525  0.5599  0.3250  0.3270
 5804TIP3    H238828   3.647   5.153  13.661 -1.3508 -2.0501  1.7202
 5805TIP3   OH238829   2.383   5.098  16.334  0.0484 -0.1774  0.0823
 5805TIP3    H138830   2.357   5.164  16.270  0.7208 -0.0428 -0.0582
 5805TIP3    H238831   2.477   5.112  16.347  0.2762 -1.3176 -0.2083
 5806TIP3   OH238832   4.803   6.263   2.814  0.4552 -0.0964 -0.2971
 5806TIP3    H138833   4.895   6.289   2.816  0.8437 -1.2791 -1.4398
 5806TIP3    H238834   4.767   6.313   2.740  0.5309 -0.6598 -0.7236
 5807TIP3   OH238835   4.178   4.683   4.989  0.6021  0.1930  0.2172
 5807TIP3    H138836   4.210   4.659   4.903 -0.7860 -1.6563  0.1642
 5807TIP3    H238837   4.163   4.778   4.984  0.8501  0.1604 -1.4494
 5808TIP3   OH238838   0.438   1.138   3.568 -0.1697 -0.1781 -0.2270
 5808TIP3    H138839   0.449   1.211   3.506 -0.8239 -1.1917 -1.5854
 5808TIP3    H238840   0.369   1.084   3.529  0.8645 -1.9675  0.3295
 5809TIP3   OH238841   3.122   5.546   5.215 -0.2186 -0.0576  0.0603
 5809TIP3    H138842   3.041   5.497   5.233 -1.0651  0.4377 -2.1438
 5809TIP3    H238843   3.120   5.620   5.276 -1.1021 -0.3948  0.4528
 5810TIP3   OH238844   4.343   2.384  15.756  0.2065  0.3940 -0.2844
 5810TIP3    H138845   4.339   2.470  15.714 -0.6960  0.8315  0.6527
 5810TIP3    H238846   4.253   2.352  15.752  0.1132  0.4129  1.2007
 5811TIP3   OH238847   4.787   4.676   5.419 -0.2359  0.1655  0.1959
 5811TIP3    H138848   4.756   4.669   5.509  0.2281 -1.3563  0.2564
 5811TIP3    H238849   4.737   4.749   5.383  0.0197  1.2162  1.8499
 5812TIP3   OH238850   4.452   0.543   2.638  0.2525 -0.1270  0.3481
 5812TIP3    H138851   4.471   0.486   2.563  1.6677  1.1581 -0.3193
 5812TIP3    H238852   4.385   0.603   2.606  1.9202  1.4069 -0.4815
 5813TIP3   OH238853   1.191   6.501   3.130 -0.6465  0.4091 -0.3015
 5813TIP3    H138854   1.178   6.587   3.089  1.1165  0.9905  0.2754
 5813TIP3    H238855   1.183   6.439   3.058  0.2365  1.2462 -1.1500
 5814TIP3   OH238856   4.538   1.158   1.183  0.3257 -0.7040  0.0155
 5814TIP3    H138857   4.601   1.200   1.124 -1.8568 -0.6557 -2.4556
 5814TIP3    H238858   4.542   1.211   1.262  2.5435 -0.0428 -0.4534
 5815TIP3   OH238859   2.340   1.040  12.646  0.0136 -0.3342  0.4118
 5815TIP3    H138860   2.256   1.062  12.687 -0.3885  0.1597 -0.6322
 5815TIP3    H238861   2.406   1.066  12.711 -0.3627  4.6502 -0.7607
 5816TIP3   OH238862   5.951   0.715   5.767  0.4099 -0.3363 -0.0495
 5816TIP3    H138863   6.045   0.722   5.783  0.6023 -1.2161 -0.6842
 5816TIP3    H238864   5.918   0.659   5.837  0.6609 -1.3881 -0.7465
 5817TIP3   OH238865   2.204   3.453  10.736  0.4575 -0.4468 -0.3706
 5817TIP3    H138866   2.123   3.501  10.720  0.4725 -0.5347 -0.7198
 5817TIP3    H238867   2.225   3.413  10.652  0.2240 -1.4042  0.0058
 5818TIP3   OH238868   2.295   3.163   1.353 -0.3138  0.5647  0.2292
 5818TIP3    H138869   2.253   3.077   1.344  1.0632 -0.0923 -0.1238
 5818TIP3    H238870   2.302   3.176   1.448 -2.1447  1.1306  0.3242
 5819TIP3   OH238871   3.267   6.434   3.156  0.1658 -0.4616 -0.7586
 5819TIP3    H138872   3.207   6.425   3.082 -1.0097  0.4212  0.0615
 5819TIP3    H238873   3.341   6.483   3.120 -0.6333  0.4323 -1.2396
 5820TIP3   OH238874   4.354   1.208  15.980  0.0701 -0.5125  0.7998
 5820TIP3    H138875   4.448   1.190  15.973  0.0500 -0.3450 -0.0180
 5820TIP3    H238876   4.336   1.202  16.074  1.1426  0.6176  1.1162
 5821TIP3   OH238877   0.441   1.215  12.781 -0.1974 -0.5027 -0.4958
 5821TIP3    H138878   0.475   1.302  12.758  0.0468 -0.8807 -1.6004
 5821TIP3    H238879   0.356   1.210  12.738 -0.7011 -0.4086  0.4593
 5822TIP3   OH238880   6.765   5.636  15.747  0.5137  0.4481 -0.2727
 5822TIP3    H138881   6.825   5.680  15.687  0.0424  0.3200 -0.8517
 5822TIP3    H238882   6.729   5.707  15.801 -0.2747  0.8054 -1.2337
 5823TIP3   OH238883   0.128   3.556  12.893  0.6421  0.7139 -0.2842
 5823TIP3    H138884   0.206   3.509  12.862 -0.0195 -0.5266 -0.1414
 5823TIP3    H238885   0.095   3.600  12.815  0.7926  0.2156 -0.6410
 5824TIP3   OH238886   6.412   6.044  15.125 -0.2658 -0.5991 -0.4499
 5824TIP3    H138887   6.477   6.088  15.181  0.6280 -1.2509 -0.9515
 5824TIP3    H238888   6.380   5.971  15.178 -1.9377  0.7336  0.4830
 5825TIP3   OH238889   0.014   6.570   0.368  0.0814  0.0002  0.1605
 5825TIP3    H138890   0.033   6.498   0.428  0.1513 -1.1378 -1.1706
 5825TIP3    H238891   0.026   6.532   0.280  0.4844  1.7288 -0.5834
 5826TIP3   OH238892   0.394   1.652  16.929 -0.1556  0.4797 -0.4763
 5826TIP3    H138893   0.400   1.704  17.009  0.4446 -1.1017  0.5663
 5826TIP3    H238894   0.482   1.615  16.919 -0.7854 -1.0429 -0.6474
 5827TIP3   OH238895   5.554   0.714   3.106  0.3404 -0.0357 -0.5296
 5827TIP3    H138896   5.612   0.745   3.176  0.9704 -1.1804 -0.5187
 5827TIP3    H238897   5.496   0.651   3.149  0.0158  0.0608 -0.8234
 5828TIP3   OH238898   2.892   5.414  16.398 -0.4070 -0.1575  0.1570
 5828TIP3    H138899   2.804   5.424  16.362 -0.2120  0.1132 -0.2500
 5828TIP3    H238900   2.950   5.431  16.324 -0.0100  0.0036  0.5027
 5829TIP3   OH238901   0.651   1.728  13.596  0.4254  0.8346  0.1842
 5829TIP3    H138902   0.561   1.760  13.597  0.2239  0.2986 -0.2862
 5829TIP3    H238903   0.678   1.728  13.688 -0.3808  0.1059  0.4269
 5830TIP3   OH238904   5.418   3.143  15.500 -0.0777  0.0433 -0.0075
 5830TIP3    H138905   5.422   3.212  15.434  2.0838 -0.8580 -0.9350
 5830TIP3    H238906   5.364   3.074  15.460  0.8905 -0.3308 -0.7157
 5831TIP3   OH238907   1.550   0.660  11.613  0.0101  0.6882  0.4506
 5831TIP3    H138908   1.608   0.730  11.583  0.2321  0.5158  0.4740
 5831TIP3    H238909   1.484   0.704  11.666  1.4075  0.6538  2.3364
 5832TIP3   OH238910   2.053   5.662   0.539  0.4577  0.2343 -0.2967
 5832TIP3    H138911   1.989   5.591   0.545  2.1716 -1.3969 -0.3678
 5832TIP3    H238912   2.043   5.696   0.450  1.8587 -2.2268 -1.4892
 5833TIP3   OH238913   5.052   4.026  14.509  0.5922  0.1312 -0.2589
 5833TIP3    H138914   5.019   4.111  14.537 -1.8898 -0.6621 -0.5512
 5833TIP3    H238915   5.146   4.030  14.525  0.2173  2.0953  1.8746
 5834TIP3   OH238916   5.668   4.192  12.787 -0.0922 -0.4297  0.0324
 5834TIP3    H138917   5.648   4.106  12.749  1.2028 -1.0333  0.6379
 5834TIP3    H238918   5.755   4.181  12.827  0.8126  1.6142 -1.2138
 5835TIP3   OH238919   1.847   4.047  13.539 -0.0730  0.0933 -0.6866
 5835TIP3    H138920   1.782   4.042  13.469 -0.9862 -0.6383  0.1736
 5835TIP3    H238921   1.836   4.135  13.576  0.5452  0.5532 -1.5598
 5836TIP3   OH238922   3.232   0.692   0.358  0.1743  0.0366  0.2113
 5836TIP3    H138923   3.221   0.685   0.263  0.9157  1.3313 -0.0010
 5836TIP3    H238924   3.170   0.759   0.385  0.7404  0.4667  0.4626
 5837TIP3   OH238925   5.612   4.306  11.064  0.4427 -0.3410  0.2414
 5837TIP3    H138926   5.552   4.267  11.127  0.7668  1.0004  1.4353
 5837TIP3    H238927   5.561   4.376  11.022  0.7881  0.0194  0.4072
 5838TIP3   OH238928   0.984   4.840  13.061  0.2970  0.0802 -0.3796
 5838TIP3    H138929   0.912   4.799  13.014 -0.5971  0.5120  0.5588
 5838TIP3    H238930   0.976   4.934  13.041  1.6752 -0.0568 -1.6635
 5839TIP3   OH238931   0.155   5.159   2.363  0.0022  0.0389  0.5177
 5839TIP3    H138932   0.060   5.147   2.369  0.0352 -0.7506 -0.3566
 5839TIP3    H238933   0.188   5.137   2.450 -0.6591  0.8330  0.9817
 5840TIP3   OH238934   6.569   5.789  11.099 -0.1516 -0.0043  0.5136
 5840TIP3    H138935   6.658   5.758  11.084 -0.3961 -0.5202  0.0716
 5840TIP3    H238936   6.573   5.836  11.182  0.5986  0.2581  0.3331
 5841TIP3   OH238937   4.093   4.783  15.865 -0.2117  0.5273 -0.0586
 5841TIP3    H138938   4.067   4.755  15.953  0.7692 -0.3954 -0.0417
 5841TIP3    H238939   4.011   4.809  15.823 -0.4781  3.0253  1.8026
 5842TIP3   OH238940   0.997   0.899   4.504 -0.4029 -0.1625  0.3443
 5842TIP3    H138941   1.025   0.922   4.416 -2.3980 -0.5643 -0.4377
 5842TIP3    H238942   1.078   0.903   4.556  0.9034 -0.3411 -1.5501
 5843TIP3   OH238943   4.935   1.104   0.974  0.2936 -0.9021  0.0204
 5843TIP3    H138944   4.913   1.084   1.065  0.3997 -1.2097 -0.0178
 5843TIP3    H238945   4.926   1.020   0.929 -1.1606 -0.4667 -0.5333
 5844TIP3   OH238946   1.477   0.804   6.610 -0.1219  0.1500  0.4321
 5844TIP3    H138947   1.492   0.894   6.581  0.8844  0.0978  0.7774
 5844TIP3    H238948   1.562   0.773   6.641 -0.6370 -0.6393  1.1185
 5845TIP3   OH238949   4.995   5.053   4.901  0.0728  0.0556  0.8365
 5845TIP3    H138950   5.080   5.080   4.937 -0.6423  0.8048  2.0253
 5845TIP3    H238951   4.990   4.959   4.917  1.3026 -0.2972 -0.6098
 5846TIP3   OH238952   3.523   6.094  10.724 -0.4048 -0.4745  0.2110
 5846TIP3    H138953   3.436   6.057  10.736 -0.0888 -1.7656 -1.1822
 5846TIP3    H238954   3.572   6.067  10.802 -0.8079 -1.1382  0.2415
 5847TIP3   OH238955   3.247   3.019   0.291  0.1627 -0.2004 -0.5208
 5847TIP3    H138956   3.248   2.951   0.224  1.4799 -0.4020 -0.3283
 5847TIP3    H238957   3.259   2.972   0.373  2.6966  0.3286 -0.5062
 5848TIP3   OH238958   4.306   2.342   3.224 -0.4915 -0.1048 -0.0044
 5848TIP3    H138959   4.378   2.406   3.221 -0.4529 -0.1836 -1.4827
 5848TIP3    H238960   4.236   2.389   3.270 -0.5183  1.0884 -1.1973
 5849TIP3   OH238961   4.334   2.526   4.337 -0.3103 -0.3999  0.7781
 5849TIP3    H138962   4.300   2.467   4.270  0.0743 -1.1247  1.2036
 5849TIP3    H238963   4.418   2.556   4.303 -0.8862  0.5831  0.1845
 5850TIP3   OH238964   3.409   3.601  12.339 -0.1316 -0.2593  0.1111
 5850TIP3    H138965   3.374   3.568  12.422  1.8657  0.6693  1.4124
 5850TIP3    H238966   3.360   3.682  12.323 -1.0895 -0.8692 -0.0514
 5851TIP3   OH238967   5.976   5.277  12.581 -0.3474 -0.7952 -0.1539
 5851TIP3    H138968   5.994   5.345  12.516 -1.0267 -0.9708 -0.5395
 5851TIP3    H238969   5.892   5.240  12.554 -1.5333  0.2995  1.8163
 5852TIP3   OH238970   5.675   0.737  11.903  0.0881  0.1535  0.0808
 5852TIP3    H138971   5.697   0.728  11.810 -0.3042  2.2686 -0.2721
 5852TIP3    H238972   5.759   0.755  11.946  0.3388 -1.2843  0.2418
 5853TIP3   OH238973   3.730   5.209  16.285 -0.1146 -0.7033  0.2278
 5853TIP3    H138974   3.728   5.298  16.251  0.4651 -0.7681  0.0089
 5853TIP3    H238975   3.772   5.157  16.216 -0.3951 -1.1347  0.3737
 5854TIP3   OH238976   6.122   4.962  16.150  0.4662  0.3344 -0.4431
 5854TIP3    H138977   6.112   4.887  16.091 -0.6612 -0.5547  0.8229
 5854TIP3    H238978   6.152   4.924  16.232  0.2350  1.3215  0.1139
 5855TIP3   OH238979   4.720   2.071  15.555 -0.1501 -0.4387  0.5271
 5855TIP3    H138980   4.637   2.051  15.512  0.2464 -0.6247 -0.1527
 5855TIP3    H238981   4.699   2.144  15.614 -0.6533 -0.0524 -0.1117
 5856TIP3   OH238982   3.510   3.687  12.064  0.0122  0.4714  0.1233
 5856TIP3    H138983   3.417   3.667  12.069 -0.0301  0.7117  0.2605
 5856TIP3    H238984   3.516   3.781  12.079  0.4465  0.1775  1.9303
 5857TIP3   OH238985   5.259   0.410  14.911  0.1727 -0.6395 -0.1455
 5857TIP3    H138986   5.333   0.370  14.956  0.6390  0.7079  0.3622
 5857TIP3    H238987   5.188   0.347  14.918  1.0758 -1.6650 -0.0380
 5858TIP3   OH238988   3.296   3.196  12.067  0.1363  0.5281  0.2088
 5858TIP3    H138989   3.361   3.265  12.078  0.4540  0.1161  0.9923
 5858TIP3    H238990   3.273   3.170  12.156  0.5866 -0.8914 -0.0609
 5859TIP3   OH238991   6.278   5.672  13.533 -0.3155 -0.3778 -0.3405
 5859TIP3    H138992   6.222   5.745  13.507  0.8998  0.7343  0.0314
 5859TIP3    H238993   6.288   5.682  13.628 -0.2185 -1.1041 -0.2670
 5860TIP3   OH238994   0.316   4.755   4.328 -0.1074  0.1897  0.2592
 5860TIP3    H138995   0.268   4.673   4.319 -0.5314  0.4830 -0.2046
 5860TIP3    H238996   0.398   4.740   4.282  0.1411 -0.2172  0.8134
 5861TIP3   OH238997   0.244   2.804  13.218 -0.4034 -0.1026  0.5298
 5861TIP3    H138998   0.316   2.858  13.251 -0.2050 -0.6483  1.0008
 5861TIP3    H238999   0.246   2.725  13.272 -1.5883  0.0299  0.7812
 5862TIP3   OH239000   3.855   3.120  12.343 -0.1643 -0.1690  0.0804
 5862TIP3    H139001   3.767   3.091  12.322 -0.0452  1.0579 -2.3864
 5862TIP3    H239002   3.843   3.198  12.397 -0.6083  0.2753 -0.6503
 5863TIP3   OH239003   6.520   3.890  14.773  0.1854  0.5443  0.1361
 5863TIP3    H139004   6.508   3.815  14.831 -0.9265  1.6196  1.3884
 5863TIP3    H239005   6.485   3.964  14.823  0.8765  1.8291 -1.2108
 5864TIP3   OH239006   4.982   3.446   1.686 -0.7900  0.3405 -0.8710
 5864TIP3    H139007   4.897   3.472   1.651 -0.7758  0.5383 -0.7612
 5864TIP3    H239008   5.046   3.482   1.625 -0.7900 -0.0437 -1.1054
 5865TIP3   OH239009   6.563   5.361  10.370 -0.0596  0.1042  0.2967
 5865TIP3    H139010   6.532   5.305  10.299 -0.1329  0.2998  0.1767
 5865TIP3    H239011   6.491   5.361  10.433  0.7015 -1.5740  1.2500
 5866TIP3   OH239012   5.806   4.373  14.123 -0.3275  0.0289 -0.3381
 5866TIP3    H139013   5.725   4.357  14.074 -0.6974  0.0913  0.2436
 5866TIP3    H239014   5.785   4.447  14.179 -0.7393 -1.5942  1.7621
 5867TIP3   OH239015   1.011   2.492   0.509  0.6375  0.5657 -0.0872
 5867TIP3    H139016   0.992   2.575   0.465  0.0091  0.5457  0.1295
 5867TIP3    H239017   0.953   2.492   0.586  2.4148  1.0447  1.3123
 5868TIP3   OH239018   5.780   6.474  15.558  0.2618 -0.1103 -0.0481
 5868TIP3    H139019   5.839   6.503  15.627 -2.3609  0.3279  2.2278
 5868TIP3    H239020   5.788   6.539  15.489 -0.3963  2.1889  1.9210
 5869TIP3   OH239021   6.046   6.690   0.460 -0.2516  0.6287  0.4451
 5869TIP3    H139022   6.091   6.774   0.444  0.7249  0.0792  0.1988
 5869TIP3    H239023   6.116   6.630   0.486 -1.1935  0.3390  2.4848
 5870TIP3   OH239024   4.174   3.546  13.628  0.2088 -0.5605 -0.2620
 5870TIP3    H139025   4.129   3.488  13.689  0.5444  0.0287  0.5613
 5870TIP3    H239026   4.249   3.496  13.597  0.0226 -0.8693 -0.2181
 5871TIP3   OH239027   4.714   6.367   3.784  0.0457 -0.4126  0.4558
 5871TIP3    H139028   4.693   6.300   3.719 -1.4383  0.6448 -0.2261
 5871TIP3    H239029   4.716   6.320   3.868  1.6603 -1.7428 -0.2620
 5872TIP3   OH239030   2.229   0.873   0.958  1.4634 -0.4560  0.7595
 5872TIP3    H139031   2.203   0.961   0.931  2.4306 -0.1193  0.8618
 5872TIP3    H239032   2.161   0.846   1.020  1.3863  0.4097  1.0752
 5873TIP3   OH239033   4.779   1.036  13.472  0.3182  0.0843 -0.9932
 5873TIP3    H139034   4.765   1.098  13.400 -0.1343  0.3984 -0.6378
 5873TIP3    H239035   4.861   0.991  13.449  0.0713  0.0356 -1.8074
 5874TIP3   OH239036   2.375   1.065  10.805  0.0080  0.1243  0.1541
 5874TIP3    H139037   2.442   1.133  10.802 -2.7332  3.1605  1.6588
 5874TIP3    H239038   2.325   1.076  10.725 -2.1678  2.0197  1.6289
 5875TIP3   OH239039   6.126   4.436   0.986 -0.0405 -0.1481  0.1386
 5875TIP3    H139040   6.087   4.493   0.919 -1.2394 -1.3660 -0.2529
 5875TIP3    H239041   6.067   4.361   0.990  2.0763 -1.9264 -0.1688
 5876TIP3   OH239042   2.356   5.810   1.249 -0.5818 -0.2928 -0.1871
 5876TIP3    H139043   2.398   5.885   1.291  0.0680 -1.0624  0.5787
 5876TIP3    H239044   2.314   5.846   1.171 -0.1971  0.8429  0.1155
 5877TIP3   OH239045   4.535   6.570   0.507  0.7441 -0.2986 -0.7627
 5877TIP3    H139046   4.545   6.602   0.597 -0.3751 -2.2471  0.1269
 5877TIP3    H239047   4.605   6.504   0.498  0.1236 -0.9510 -0.8839
 5878TIP3   OH239048   1.617   4.623   1.139  0.1996  0.2923  0.0871
 5878TIP3    H139049   1.630   4.583   1.225  0.9705  0.7530  0.1940
 5878TIP3    H239050   1.540   4.579   1.104  0.9850 -1.2628  0.2199
 5879TIP3   OH239051   4.360   6.000   2.060 -0.3691 -0.6748  0.2074
 5879TIP3    H139052   4.319   6.079   2.094 -0.3740 -0.3581 -0.5353
 5879TIP3    H239053   4.429   5.981   2.123 -1.3251 -0.9466  1.2140
 5880TIP3   OH239054   5.009   4.866   2.055  0.1121 -0.1067 -0.6747
 5880TIP3    H139055   5.075   4.885   1.989 -0.3406 -0.8737 -1.3720
 5880TIP3    H239056   4.927   4.856   2.006 -0.0027 -1.9819 -0.1983
 5881TIP3   OH239057   6.540   3.722  12.825 -0.2511  0.2656  0.2188
 5881TIP3    H139058   6.617   3.696  12.775  0.8526  1.0221  1.4565
 5881TIP3    H239059   6.466   3.699  12.769  0.8850  0.0135 -1.2351
 5882TIP3   OH239060   0.791   4.517   5.084 -0.3281  0.1633 -0.2289
 5882TIP3    H139061   0.778   4.422   5.079 -2.5040  0.3567  0.4407
 5882TIP3    H239062   0.714   4.553   5.041 -0.7347  1.6036  1.5745
 5883TIP3   OH239063   6.465   1.048  16.604 -0.2849  0.2800  0.7501
 5883TIP3    H139064   6.505   1.112  16.662  1.7976 -2.4366  2.5653
 5883TIP3    H239065   6.495   1.073  16.516  0.5639  1.6848  1.4115
 5884TIP3   OH239066   6.468   3.284   1.736  0.2804  0.0212 -0.6985
 5884TIP3    H139067   6.491   3.372   1.707 -0.5457  0.5330  0.1261
 5884TIP3    H239068   6.446   3.237   1.656  1.1322  0.4420 -1.1847
 5885TIP3   OH239069   1.477   3.580  17.058 -0.3792 -0.3782  0.1551
 5885TIP3    H139070   1.398   3.627  17.034  0.5574  1.0600 -0.2686
 5885TIP3    H239071   1.449   3.490  17.074 -2.0776  0.1108  0.0413
 5886TIP3   OH239072   1.949   5.773   3.611  0.2124  0.0625 -0.3028
 5886TIP3    H139073   1.945   5.786   3.516  1.1170  0.1017 -0.3508
 5886TIP3    H239074   1.871   5.722   3.632  0.4462 -0.6867 -1.1968
 5887TIP3   OH239075   3.940   6.284  13.904  0.1859 -0.2391 -0.6461
 5887TIP3    H139076   3.936   6.321  13.992  0.8372 -1.3425 -0.1338
 5887TIP3    H239077   4.006   6.337  13.859  0.3653 -0.1153 -0.2453
 5888TIP3   OH239078   1.935   4.362   1.787 -0.3704 -0.1438 -0.2811
 5888TIP3    H139079   1.949   4.375   1.881 -0.2215 -0.8781 -0.2003
 5888TIP3    H239080   2.020   4.379   1.747 -0.0731 -1.2122 -0.1340
 5889TIP3   OH239081   1.263   1.605  12.183 -0.4531  0.0380 -0.5838
 5889TIP3    H139082   1.173   1.571  12.187 -0.3164 -0.2493  1.4614
 5889TIP3    H239083   1.311   1.541  12.131 -0.9387 -1.1353  0.3576
 5890TIP3   OH239084   2.993   5.743   2.711  0.1184 -0.1085  0.3604
 5890TIP3    H139085   2.941   5.724   2.633 -2.0702  2.2453  1.1211
 5890TIP3    H239086   3.084   5.731   2.683 -0.6741 -0.7714 -2.1068
 5891TIP3   OH239087   2.771   5.013   0.878 -0.3529 -0.1809 -0.0790
 5891TIP3    H139088   2.831   4.951   0.918  1.3102  1.4436  0.1019
 5891TIP3    H239089   2.780   4.999   0.783  0.8827  0.4918 -0.0841
 5892TIP3   OH239090   0.492   2.968  12.536 -0.3881 -0.3138 -0.0662
 5892TIP3    H139091   0.447   2.998  12.457 -2.6809 -1.6239  0.6402
 5892TIP3    H239092   0.472   3.035  12.602  0.2242  0.0078 -0.2068
 5893TIP3   OH239093   3.975   3.105  13.569  0.0425 -0.0102 -0.3597
 5893TIP3    H139094   3.989   3.129  13.478  0.5849 -0.6863 -0.4611
 5893TIP3    H239095   4.039   3.157  13.618 -2.9530  3.6231  0.1600
 5894TIP3   OH239096   0.088   2.524  16.157 -0.0375 -0.4223  0.8978
 5894TIP3    H139097   0.000   2.495  16.134 -0.5912  1.7838 -0.0087
 5894TIP3    H239098   0.106   2.597  16.099  2.0390 -0.2001  1.7060
 5895TIP3   OH239099   1.578   5.734   4.025  0.4403 -0.2969  0.1980
 5895TIP3    H139100   1.551   5.720   4.116  1.2499 -2.4589  0.1554
 5895TIP3    H239101   1.663   5.777   4.032  1.1524 -1.7065  0.5290
 5896TIP3   OH239102   0.414   5.339  12.452 -0.2193  0.1545 -0.4179
 5896TIP3    H139103   0.373   5.253  12.466  0.0477  0.1924  0.6942
 5896TIP3    H239104   0.504   5.319  12.429  0.2291  0.1254  1.2044
 5897TIP3   OH239105   3.082   6.300  14.370 -0.3353  0.1346 -0.0471
 5897TIP3    H139106   3.084   6.217  14.419  1.2049  0.7822  1.0879
 5897TIP3    H239107   3.070   6.273  14.279 -0.5025 -1.2965  0.3627
 5898TIP3   OH239108   3.401   4.179   5.552 -0.2415  0.0853 -0.2940
 5898TIP3    H139109   3.335   4.173   5.482  1.2699 -0.9947 -1.7109
 5898TIP3    H239110   3.408   4.089   5.585  2.7131 -0.6017 -2.3858
 5899TIP3   OH239111   6.390   0.156   1.224  0.2729  0.0324  0.1406
 5899TIP3    H139112   6.340   0.134   1.145  0.1664  0.1184  0.1838
 5899TIP3    H239113   6.376   0.083   1.283 -0.0406  0.1904  0.2653
 5900TIP3   OH239114   2.419   5.035  11.608 -0.0426  0.4475  0.2250
 5900TIP3    H139115   2.371   5.039  11.690 -1.1971 -0.4544 -0.3776
 5900TIP3    H239116   2.469   5.117  11.605 -0.7193  0.9193  1.3610
 5901TIP3   OH239117   1.549   6.039   0.924 -0.2778 -0.3060 -0.6088
 5901TIP3    H139118   1.645   6.035   0.929 -0.1982 -0.5516 -1.9789
 5901TIP3    H239119   1.520   6.020   1.013  0.9680  0.8581  0.0839
 5902TIP3   OH239120   5.094   6.664   6.514 -0.1563 -0.1423 -0.5427
 5902TIP3    H139121   5.099   6.730   6.445 -0.1361 -0.3173 -0.7075
 5902TIP3    H239122   5.123   6.711   6.593 -0.0793  0.0294 -0.6713
 5903TIP3   OH239123   5.755   1.688  11.441  0.1125  0.4195  0.0855
 5903TIP3    H139124   5.728   1.701  11.532 -0.6326  2.9378 -0.4105
 5903TIP3    H239125   5.684   1.726  11.390  0.7467 -0.5212 -1.5542
 5904TIP3   OH239126   5.132   0.648  15.774 -0.2147  0.0536 -0.3585
 5904TIP3    H139127   5.187   0.636  15.851  1.4478 -0.0678 -1.4972
 5904TIP3    H239128   5.070   0.576  15.776  0.5610 -0.6039  0.2618
 5905TIP3   OH239129   2.658   0.073   3.383  0.0157  0.0012  0.2645
 5905TIP3    H139130   2.575   0.110   3.411 -0.5687 -1.7359  0.9757
 5905TIP3    H239131   2.720   0.098   3.452 -0.0465  0.7214  0.0711
 5906TIP3   OH239132   2.163   6.466  15.058  0.4014 -0.0075 -0.6082
 5906TIP3    H139133   2.230   6.530  15.084  0.8967 -1.0224  0.7442
 5906TIP3    H239134   2.173   6.458  14.963 -0.1574  2.4096 -0.9407
 5907TIP3   OH239135   5.376   2.873   4.876 -0.7459 -0.4298 -0.4060
 5907TIP3    H139136   5.292   2.848   4.837 -0.6630  0.0295 -0.8865
 5907TIP3    H239137   5.374   2.834   4.964 -0.5896 -2.2183 -1.1490
 5908TIP3   OH239138   6.524   4.406  11.254  0.0552 -0.0064 -0.3425
 5908TIP3    H139139   6.550   4.484  11.206 -1.1024 -0.6150 -2.0369
 5908TIP3    H239140   6.492   4.346  11.187 -0.5341 -1.3436  1.0796
 5909TIP3   OH239141   1.092   2.353  16.976 -0.5929 -0.3085  0.0664
 5909TIP3    H139142   1.186   2.344  16.960 -0.1189  0.0548  2.3251
 5909TIP3    H239143   1.084   2.433  17.028 -2.0208 -0.9359  0.8621
 5910TIP3   OH239144   5.558   4.224   3.837 -0.3930  0.5921 -0.1242
 5910TIP3    H139145   5.481   4.266   3.874 -0.7107  0.5948 -0.7755
 5910TIP3    H239146   5.608   4.295   3.797 -1.3201  0.3047 -1.9199
 5911TIP3   OH239147   2.463   0.733  16.522  0.0044  0.4776 -0.4574
 5911TIP3    H139148   2.478   0.641  16.543 -1.1790  0.0662 -1.3603
 5911TIP3    H239149   2.525   0.752  16.450  1.5271  0.9202  0.9006
 5912TIP3   OH239150   1.522   1.375  10.699 -0.0952 -0.6259  0.5634
 5912TIP3    H139151   1.549   1.401  10.787 -0.5052 -2.0379  1.1384
 5912TIP3    H239152   1.548   1.283  10.692  0.7366 -0.2973 -1.1335
 5913TIP3   OH239153   1.569   5.290   6.150 -0.2454  0.0144  0.1583
 5913TIP3    H139154   1.514   5.326   6.219 -0.6854  0.0763 -0.2202
 5913TIP3    H239155   1.653   5.271   6.193 -0.9666 -1.2844  1.0422
 5914TIP3   OH239156   3.409   3.620   3.313 -0.0018  0.1392 -0.3855
 5914TIP3    H139157   3.416   3.650   3.222 -0.9382 -0.8550 -0.7980
 5914TIP3    H239158   3.457   3.537   3.316 -2.1809 -1.1950 -0.6493
 5915TIP3   OH239159   2.682   5.199  15.498  0.0738 -0.2893  0.1389
 5915TIP3    H139160   2.717   5.137  15.561  1.3222  0.5983  0.3449
 5915TIP3    H239161   2.753   5.260  15.481 -1.0166  0.9292 -0.2775
 5916TIP3   OH239162   6.013   0.979   4.577  0.0100  0.5257  0.1323
 5916TIP3    H139163   6.100   1.018   4.580  0.1186  0.3446 -0.5798
 5916TIP3    H239164   6.016   0.917   4.505 -0.5789  0.1928  0.3810
 5917TIP3   OH239165   4.944   0.503  13.154 -0.1116  0.1780 -0.1320
 5917TIP3    H139166   4.992   0.423  13.135 -1.7675 -1.5843  2.4324
 5917TIP3    H239167   4.884   0.513  13.079  0.7682 -0.4109 -0.9371
 5918TIP3   OH239168   3.781   0.021   2.202 -0.1050 -0.0696  0.3815
 5918TIP3    H139169   3.852   0.011   2.138 -0.4297 -1.8443  0.2641
 5918TIP3    H239170   3.824   0.059   2.279  1.1151 -1.6015  0.5088
 5919TIP3   OH239171   2.820   0.643   0.431 -0.1323  0.0863 -0.0134
 5919TIP3    H139172   2.853   0.611   0.515  0.3227 -1.4020 -0.7234
 5919TIP3    H239173   2.734   0.679   0.451 -0.7190 -1.6888  0.8511
 5920TIP3   OH239174   4.103   1.698   4.160  0.2066  0.2158  0.1882
 5920TIP3    H139175   4.181   1.746   4.135  0.2108  0.3166  0.3908
 5920TIP3    H239176   4.108   1.616   4.111  0.1268  0.4816 -0.2675
 5921TIP3   OH239177   0.471   1.976   4.729  0.2878  0.6935 -0.3466
 5921TIP3    H139178   0.377   1.996   4.722  0.8162  3.0087 -2.1298
 5921TIP3    H239179   0.494   1.998   4.819 -0.6781  1.2078 -0.2136
 5922TIP3   OH239180   6.713   1.487  16.760  0.6359  0.2599  0.1101
 5922TIP3    H139181   6.772   1.494  16.835  0.5378  0.6912  0.1515
 5922TIP3    H239182   6.739   1.559  16.702 -1.1326  1.7733  1.0498
 5923TIP3   OH239183   5.191   0.333  16.084  0.8409 -0.0550 -0.0541
 5923TIP3    H139184   5.251   0.279  16.034  0.5606  0.9605 -1.5600
 5923TIP3    H239185   5.188   0.416  16.036 -2.5621 -0.4132 -0.6853
 5924TIP3   OH239186   3.749   5.006  16.569  0.2495  0.2093 -0.2129
 5924TIP3    H139187   3.744   4.912  16.550  2.1192 -0.2553  1.1885
 5924TIP3    H239188   3.688   5.019  16.642  0.1527  0.0284 -0.2610
 5925TIP3   OH239189   1.706   1.233   2.765 -0.3154 -0.1847  0.3351
 5925TIP3    H139190   1.633   1.277   2.722  0.6898  1.6191  0.3814
 5925TIP3    H239191   1.670   1.200   2.847 -1.7097 -1.7518 -0.8322
 5926TIP3   OH239192   6.239   3.396  15.256 -0.1098 -0.4350 -0.0914
 5926TIP3    H139193   6.177   3.388  15.183 -0.9834  1.0030  0.4489
 5926TIP3    H239194   6.237   3.489  15.279  3.0953 -0.0774 -0.7404
 5927TIP3   OH239195   2.934   0.429   2.315  0.4980  0.2142  0.5113
 5927TIP3    H139196   2.882   0.431   2.234  1.0002  2.9926  0.1704
 5927TIP3    H239197   2.889   0.488   2.375  1.8348  0.6588  1.1266
 5928TIP3   OH239198   5.978   4.252  10.471  0.4419  0.2927  0.2397
 5928TIP3    H139199   5.979   4.178  10.411  1.6890  1.9163 -1.8854
 5928TIP3    H239200   5.886   4.279  10.475  0.1926 -0.4856 -0.1056
 5929TIP3   OH239201   3.412   2.182  14.487  0.7584 -0.6797  0.1074
 5929TIP3    H139202   3.351   2.255  14.485  0.7898 -0.5425  1.9207
 5929TIP3    H239203   3.482   2.207  14.427  0.3251  0.3833  0.0263
 5930TIP3   OH239204   5.587   1.940   4.555  0.2857  0.3632 -0.2125
 5930TIP3    H139205   5.608   1.907   4.642 -1.2369  0.2110  0.1234
 5930TIP3    H239206   5.672   1.948   4.511  1.0989  0.5748  1.3197
 5931TIP3   OH239207   2.510   2.421   3.098  0.1684  0.1935 -0.2122
 5931TIP3    H139208   2.432   2.423   3.042  0.3554 -0.0984 -0.4846
 5931TIP3    H239209   2.481   2.461   3.180 -0.2996  0.0026 -0.2787
 5932TIP3   OH239210   3.835   2.132  15.835  0.0022 -0.3322 -0.2878
 5932TIP3    H139211   3.849   2.064  15.769  1.0045 -0.3959 -0.0108
 5932TIP3    H239212   3.812   2.084  15.915 -2.5156 -0.2223 -0.8523
 5933TIP3   OH239213   4.645   2.461  14.000  0.4313  0.0982  0.4448
 5933TIP3    H139214   4.561   2.476  13.956  0.3621 -1.1660  0.0864
 5933TIP3    H239215   4.690   2.545  13.997 -0.4913  0.5872 -0.0903
 5934TIP3   OH239216   1.142   2.299   2.792  0.9511 -0.7549 -0.1265
 5934TIP3    H139217   1.217   2.297   2.851  0.3869  0.7798  0.6808
 5934TIP3    H239218   1.171   2.352   2.718  0.1877  1.2528  0.9413
 5935TIP3   OH239219   6.284   1.169  13.052 -0.3662 -0.2750 -0.0612
 5935TIP3    H139220   6.353   1.121  13.099 -0.0292  1.1786  0.9878
 5935TIP3    H239221   6.221   1.194  13.120 -0.9076  0.1491 -0.7046
 5936TIP3   OH239222   2.716   5.528  12.067  0.6143 -0.2279 -0.3103
 5936TIP3    H139223   2.678   5.463  12.126  0.0773  0.6782  0.3696
 5936TIP3    H239224   2.641   5.577  12.034  1.1357  2.0405  1.5817
 5937TIP3   OH239225   3.622   6.267  16.245  0.3988 -0.1810  0.0514
 5937TIP3    H139226   3.680   6.330  16.287  0.2754 -0.9427  1.4237
 5937TIP3    H239227   3.615   6.297  16.155  1.5588  0.8847  0.2929
 5938TIP3   OH239228   6.754   6.679  17.019  0.2008 -0.3623 -0.0700
 5938TIP3    H139229   6.821   6.615  17.044 -0.5322 -0.3496  2.1354
 5938TIP3    H239230   6.695   6.683  17.095 -0.1917  2.3802 -0.4047
 5939TIP3   OH239231   6.440   0.028   5.259  0.0010 -0.6568 -0.0400
 5939TIP3    H139232   6.524   0.052   5.219  0.1124  0.6487  0.9064
 5939TIP3    H239233   6.388  -0.008   5.187  0.9277 -0.3047 -0.9049
 5940TIP3   OH239234   5.201   2.235  14.773  0.1209  0.2934  0.1132
 5940TIP3    H139235   5.115   2.217  14.809  0.8994 -0.0439  1.9420
 5940TIP3    H239236   5.236   2.149  14.748  0.1537  0.3554 -0.0544
 5941TIP3   OH239237   1.863   3.966  15.930  0.1840 -0.1980 -0.3835
 5941TIP3    H139238   1.878   4.043  15.875 -0.1056 -0.2674 -0.5636
 5941TIP3    H239239   1.833   3.899  15.869  1.9790 -0.9549 -0.4937
 5942TIP3   OH239240   1.132   4.479  11.424  0.3272 -0.5702  0.7148
 5942TIP3    H139241   1.135   4.387  11.448 -1.2874 -1.3403 -1.6323
 5942TIP3    H239242   1.041   4.505  11.438  0.3091  0.0835 -0.4343
 5943TIP3   OH239243   1.268   1.404   1.712  0.4168 -0.3036  0.3890
 5943TIP3    H139244   1.202   1.396   1.643  0.9730 -2.5295  0.0544
 5943TIP3    H239245   1.229   1.363   1.788 -0.3794  2.5379  1.6676
 5944TIP3   OH239246   4.654   0.007  15.820 -0.2850 -0.8521 -0.2452
 5944TIP3    H139247   4.678  -0.076  15.779  1.2292  0.1382 -1.4210
 5944TIP3    H239248   4.558   0.010  15.811 -0.5512 -2.9927  0.9219
 5945TIP3   OH239249   5.820   1.372  11.781 -0.8279 -0.3275  0.1320
 5945TIP3    H139250   5.779   1.352  11.697  0.2598  0.4688 -0.6205
 5945TIP3    H239251   5.817   1.468  11.787 -0.8107 -0.3711  0.9603
 5946TIP3   OH239252   5.533   4.389   1.702 -0.2909  0.8051  0.1719
 5946TIP3    H139253   5.615   4.340   1.698 -0.3255  0.7431  0.2160
 5946TIP3    H239254   5.518   4.404   1.795 -0.2872  0.8888  0.1595
 5947TIP3   OH239255   0.851   5.688  14.312 -0.0812 -0.5739  0.1933
 5947TIP3    H139256   0.791   5.747  14.357  0.1088 -0.8640  0.8506
 5947TIP3    H239257   0.811   5.673  14.227 -0.0887  0.5548 -0.0152
 5948TIP3   OH239258   1.497   3.240  14.976  0.4229  0.4562 -0.4327
 5948TIP3    H139259   1.494   3.145  14.985  1.8005  0.4347  0.0594
 5948TIP3    H239260   1.503   3.256  14.882  0.0278  0.0727 -0.5259
 5949TIP3   OH239261   3.089   2.739  12.573 -0.2587  0.1856 -0.0263
 5949TIP3    H139262   3.022   2.710  12.636 -1.8834  2.3406 -0.6317
 5949TIP3    H239263   3.159   2.674  12.581 -0.8961 -0.3082  3.1285
 5950TIP3   OH239264   0.546   4.018  14.521  0.2664  0.0093  0.5084
 5950TIP3    H139265   0.633   3.997  14.487 -0.0970 -0.0752 -0.4099
 5950TIP3    H239266   0.527   3.948  14.584 -0.4202 -1.8293 -1.6028
 5951TIP3   OH239267   2.981   3.878  11.307  0.1533 -0.1974  0.3989
 5951TIP3    H139268   2.971   3.835  11.392 -2.5935  1.6555  1.1647
 5951TIP3    H239269   2.971   3.807  11.243 -0.6282 -1.2290  1.6089
 5952TIP3   OH239270   1.307   4.060   4.230 -0.0393 -0.0204  0.1160
 5952TIP3    H139271   1.402   4.053   4.239  0.0671 -0.3601 -1.0501
 5952TIP3    H239272   1.271   4.014   4.306  0.7341 -0.8661 -0.0206
 5953TIP3   OH239273   2.589   6.538  11.375 -0.1404 -0.1994 -0.5724
 5953TIP3    H139274   2.520   6.515  11.312 -1.0523  0.2985  0.2362
 5953TIP3    H239275   2.570   6.628  11.400  0.0386 -0.4784  0.6304
 5954TIP3   OH239276   2.315   4.283   4.271  0.0327  0.2095 -0.4609
 5954TIP3    H139277   2.285   4.363   4.229 -0.5503  0.1644 -0.1354
 5954TIP3    H239278   2.271   4.213   4.225 -1.3501  0.2035  0.7978
 5955TIP3   OH239279   0.422   5.661  15.772 -0.2768  0.0997  0.4309
 5955TIP3    H139280   0.498   5.609  15.796  0.7835  0.1557 -2.4110
 5955TIP3    H239281   0.449   5.752  15.787 -0.7230  0.0358  1.7352
 5956TIP3   OH239282   2.558   5.013   4.365 -0.0060  0.0395 -0.1149
 5956TIP3    H139283   2.505   4.984   4.291 -1.7891  2.8383 -0.0700
 5956TIP3    H239284   2.555   4.940   4.427 -1.4263 -0.9685 -1.3111
 5957TIP3   OH239285   2.436   5.650   4.993  0.1772 -0.1496  0.2796
 5957TIP3    H139286   2.459   5.699   4.914  1.1258  0.2286  0.7657
 5957TIP3    H239287   2.353   5.608   4.973  0.5483 -0.2852 -1.0130
 5958TIP3   OH239288   4.202   1.110  11.530  0.5495 -0.2971 -0.0002
 5958TIP3    H139289   4.145   1.182  11.557  1.8468  0.7074  0.1457
 5958TIP3    H239290   4.240   1.140  11.447  1.6588 -0.4960  0.4287
 5959TIP3   OH239291   0.727   0.031  11.870 -0.5642  0.1786  0.3924
 5959TIP3    H139292   0.642   0.072  11.853 -0.6846  0.1168  0.8289
 5959TIP3    H239293   0.717  -0.058  11.836  0.2630  0.9775 -2.1216
 5960TIP3   OH239294   4.284   4.998  13.178 -0.1711  0.1417  0.0240
 5960TIP3    H139295   4.347   5.067  13.198 -0.9846  0.7181  0.6754
 5960TIP3    H239296   4.278   4.947  13.259 -0.3516 -0.0704 -0.1209
 5961TIP3   OH239297   3.177   4.621  12.084 -0.0907 -0.1477  0.8654
 5961TIP3    H139298   3.117   4.666  12.143  0.0484 -1.2673  1.8946
 5961TIP3    H239299   3.239   4.576  12.142  0.5399 -0.6353 -0.1476
 5962TIP3   OH239300   1.801   0.094  16.522 -0.2428  0.3666 -0.1064
 5962TIP3    H139301   1.735   0.027  16.502 -1.8059  1.2463  1.8240
 5962TIP3    H239302   1.758   0.177  16.500 -0.3214  1.0440  2.3712
 5963TIP3   OH239303   6.285   1.234   0.351 -0.1958  0.3272 -0.2793
 5963TIP3    H139304   6.300   1.302   0.286  0.6464  1.4255  1.0017
 5963TIP3    H239305   6.372   1.216   0.387 -0.3413 -1.7102 -0.8296
 5964TIP3   OH239306   6.474   0.801  12.578 -0.4007 -0.6710 -0.4608
 5964TIP3    H139307   6.569   0.787  12.580 -0.4440 -0.9178  0.2407
 5964TIP3    H239308   6.454   0.835  12.665 -1.1318 -1.8381 -0.1568
 5965TIP3   OH239309   1.399   1.365   1.032 -0.2235 -0.3772  0.0620
 5965TIP3    H139310   1.447   1.406   0.960  0.2784  1.0677  1.1737
 5965TIP3    H239311   1.415   1.271   1.021  3.9826  0.0420  1.0737
 5966TIP3   OH239312   0.141   0.928  11.871 -0.3238  0.3982 -0.4817
 5966TIP3    H139313   0.108   0.920  11.961 -0.5214 -0.7023 -0.6346
 5966TIP3    H239314   0.235   0.909  11.879 -0.2728  0.6529 -0.4622
 5967TIP3   OH239315   5.724   6.752   0.162 -0.2976 -0.0024 -0.2888
 5967TIP3    H139316   5.692   6.840   0.181 -0.8574 -0.1055 -0.7410
 5967TIP3    H239317   5.655   6.694   0.194  0.1213 -0.2899  0.1182
 5968TIP3   OH239318   5.536   3.715   3.654  0.2471 -0.3260  0.0178
 5968TIP3    H139319   5.491   3.770   3.589  0.7277  0.1818  0.1125
 5968TIP3    H239320   5.565   3.776   3.721  0.5812 -0.7294  0.2421
 5969TIP3   OH239321   2.677   3.028   1.714  0.0688  0.1585  0.6908
 5969TIP3    H139322   2.742   2.963   1.739  1.2736  1.4568  1.0454
 5969TIP3    H239323   2.596   2.999   1.757  0.5114 -1.1922  0.6635
 5970TIP3   OH239324   4.222   4.047   2.206 -0.7152 -0.4221  0.0012
 5970TIP3    H139325   4.185   4.002   2.282 -0.9663  0.9225  0.7026
 5970TIP3    H239326   4.182   4.134   2.208  0.3546  0.1049 -0.8610
 5971TIP3   OH239327   1.923   2.919  13.439 -0.2617  0.0929  0.7913
 5971TIP3    H139328   1.886   2.863  13.370  0.4526  1.5390 -0.8394
 5971TIP3    H239329   2.006   2.951  13.402 -0.3608  1.7355  1.9056
 5972TIP3   OH239330   0.390   1.124   2.082  0.8809 -0.2170 -0.1862
 5972TIP3    H139331   0.443   1.171   2.017  1.2747 -0.5762 -0.1269
 5972TIP3    H239332   0.361   1.192   2.143 -0.3405  0.3050 -1.2931
 5973TIP3   OH239333   4.023   5.112   1.345  0.2879 -0.3294 -0.1592
 5973TIP3    H139334   3.983   5.092   1.429  0.8961  0.2840  0.2871
 5973TIP3    H239335   4.078   5.036   1.326 -0.7928 -1.0265 -0.6173
 5974TIP3   OH239336   4.454   1.643   1.090 -0.2019 -0.1112  0.1855
 5974TIP3    H139337   4.398   1.700   1.036  0.3156  1.4551  1.2409
 5974TIP3    H239338   4.521   1.611   1.029 -1.0974 -0.4528 -0.6566
 5975TIP3   OH239339   6.704   2.006  12.576 -0.3503  0.2827  0.1615
 5975TIP3    H139340   6.722   1.982  12.667 -0.6659 -1.6070 -0.2264
 5975TIP3    H239341   6.675   1.924  12.535 -1.0244  1.2732 -1.4404
 5976TIP3   OH239342   1.489   5.330  14.993 -0.1632 -0.0188  0.0755
 5976TIP3    H139343   1.464   5.280  14.915  0.9098 -1.3173  0.5269
 5976TIP3    H239344   1.424   5.305  15.059 -1.7052  1.8829 -0.6458
 5977TIP3   OH239345   4.290   5.977  13.616 -0.1022 -0.3593  0.3678
 5977TIP3    H139346   4.321   5.932  13.538 -0.3322  1.9080 -1.1353
 5977TIP3    H239347   4.369   6.010  13.657 -0.1170  1.4148 -0.8971
 5978TIP3   OH239348   2.853   4.010  15.282 -0.2448 -0.6544 -0.0864
 5978TIP3    H139349   2.922   4.040  15.223  0.3648 -0.6106  0.6234
 5978TIP3    H239350   2.780   4.069  15.266 -0.5410 -1.3975 -1.6581
 5979TIP3   OH239351   6.422   4.847  13.459 -0.3302  0.0012 -0.1063
 5979TIP3    H139352   6.464   4.842  13.373 -0.1572 -0.5829  0.0073
 5979TIP3    H239353   6.340   4.894  13.443 -1.5016 -2.2349 -1.0743
 5980TIP3   OH239354   6.119   6.444   1.252 -0.5140 -0.2179  0.2463
 5980TIP3    H139355   6.053   6.407   1.310  1.0809 -0.6715  1.8570
 5980TIP3    H239356   6.202   6.411   1.285  0.6713  1.5935 -0.7209
 5981TIP3   OH239357   0.220   5.687  15.970  0.3565  0.4443  0.1290
 5981TIP3    H139358   0.211   5.624  15.898 -0.8508 -0.1307  0.7483
 5981TIP3    H239359   0.301   5.662  16.014  1.3355  1.0581 -1.2371
 5982TIP3   OH239360   2.869   4.947   5.803  0.1134 -0.1068 -0.2764
 5982TIP3    H139361   2.818   5.028   5.799  0.7001  0.2458 -0.7837
 5982TIP3    H239362   2.814   4.882   5.759 -1.1410 -0.4320  1.6962
 5983TIP3   OH239363   5.975   1.138   2.692 -1.0091  0.1228  0.4411
 5983TIP3    H139364   6.059   1.096   2.711 -0.0497  0.3313 -2.8017
 5983TIP3    H239365   5.914   1.066   2.679 -0.9660 -0.0601  1.1900
 5984TIP3   OH239366   5.100   1.364   4.064  0.1285 -0.3505  0.4306
 5984TIP3    H139367   5.106   1.459   4.052 -1.3264 -0.5389 -2.9816
 5984TIP3    H239368   5.170   1.328   4.011 -0.7648 -1.2136 -0.1969
 5985TIP3   OH239369   4.465   0.054   0.407 -0.3176  0.5368 -0.2119
 5985TIP3    H139370   4.540   0.106   0.437  0.1148  0.0544 -0.4360
 5985TIP3    H239371   4.472  -0.028   0.456 -0.2616  0.1914 -0.7897
 5986TIP3   OH239372   2.515   2.566  15.683 -0.0578  0.3157 -0.6313
 5986TIP3    H139373   2.483   2.644  15.637  1.1564  1.0443 -0.2806
 5986TIP3    H239374   2.498   2.585  15.776 -0.2995 -0.1104 -0.5836
 5987TIP3   OH239375   2.159   2.705   1.840  0.4427 -0.0327  0.3366
 5987TIP3    H139376   2.234   2.645   1.833  1.3289  0.9089  1.5369
 5987TIP3    H239377   2.184   2.768   1.907 -0.6490  1.4543 -0.5948
 5988TIP3   OH239378   5.439   1.999  16.345  0.0905 -0.3899  0.7126
 5988TIP3    H139379   5.464   1.919  16.299 -1.2069 -0.7468  0.5865
 5988TIP3    H239380   5.397   1.968  16.425 -1.8007  0.0934 -0.0387
 5989TIP3   OH239381   5.386   0.829  16.172 -0.1980  0.0961 -0.5319
 5989TIP3    H139382   5.436   0.837  16.253 -0.4231 -0.9842 -0.2597
 5989TIP3    H239383   5.452   0.820  16.103  0.2080 -4.5479  0.1285
 5990TIP3   OH239384   4.572   0.396  16.360 -0.3512  0.1918  0.1937
 5990TIP3    H139385   4.531   0.482  16.356 -0.9350 -0.1050 -0.5712
 5990TIP3    H239386   4.529   0.353  16.435 -0.9603  0.1362 -0.1757
 5991TIP3   OH239387   4.994   3.568   1.929 -0.1814  0.1311 -0.1594
 5991TIP3    H139388   5.083   3.603   1.925  0.6209 -1.8516 -2.3205
 5991TIP3    H239389   4.986   3.514   1.850 -2.7590 -1.0574  0.7864
 5992TIP3   OH239390   6.755   2.896  11.420  0.3104  0.2820  0.1252
 5992TIP3    H139391   6.735   2.944  11.501  0.3298 -0.4709  0.5919
 5992TIP3    H239392   6.838   2.932  11.390  0.6131  0.1516  0.7836
 5993TIP3   OH239393   2.497   2.923  13.657  0.5434  0.1014 -0.3499
 5993TIP3    H139394   2.573   2.896  13.708  1.3822 -0.5429 -1.8693
 5993TIP3    H239395   2.482   3.013  13.683  1.7708  0.2127  0.0652
 5994TIP3   OH239396   0.693   0.523  14.774 -0.2541 -0.0794  0.1999
 5994TIP3    H139397   0.641   0.444  14.791 -1.4228  0.1077 -2.0755
 5994TIP3    H239398   0.644   0.593  14.817 -1.6777 -0.0009 -1.4129
 5995TIP3   OH239399   0.959   2.533  16.741  0.2499  0.2885 -0.1261
 5995TIP3    H139400   0.878   2.508  16.787  0.7408  0.5462  0.9165
 5995TIP3    H239401   0.982   2.456  16.689  0.0538 -0.2854  0.6211
 5996TIP3   OH239402   0.502   4.474   1.301 -0.6019  0.0491  0.5214
 5996TIP3    H139403   0.523   4.552   1.352  0.4031 -0.5638  1.0822
 5996TIP3    H239404   0.441   4.425   1.357  1.6628 -1.3654  1.9107
 5997TIP3   OH239405   0.022   5.032  10.766  0.3168  0.4502  0.6862
 5997TIP3    H139406   0.048   4.957  10.820  0.2767  0.4601  0.7197
 5997TIP3    H239407   0.001   5.101  10.830  1.1965  0.7749  0.6352
 5998TIP3   OH239408   4.970   3.980   2.546  0.1252 -0.0219  0.4804
 5998TIP3    H139409   4.969   3.973   2.642 -0.7458  2.2445  0.6844
 5998TIP3    H239410   4.908   3.912   2.517  0.6868 -0.9894  1.4663
 5999TIP3   OH239411   1.492   0.252   2.778  0.7043  0.0614  0.8519
 5999TIP3    H139412   1.457   0.295   2.699 -0.2960 -0.9658  0.7043
 5999TIP3    H239413   1.577   0.293   2.792  1.2606 -0.2348 -1.2172
 6000TIP3   OH239414   6.535   5.051   4.070 -0.2601  0.1452  0.3872
 6000TIP3    H139415   6.477   5.111   4.117 -0.5523  1.3446 -1.4112
 6000TIP3    H239416   6.623   5.085   4.088 -0.2226 -0.4632  1.4556
 6001TIP3   OH239417   0.492   0.689  17.033 -0.1009  0.0413  0.4395
 6001TIP3    H139418   0.549   0.616  17.008  1.3654  1.5121 -0.7773
 6001TIP3    H239419   0.465   0.729  16.950 -1.3127  0.5788  1.0587
 6002TIP3   OH239420   2.242   5.894   5.316 -0.2252  0.1001  0.5590
 6002TIP3    H139421   2.190   5.972   5.334 -1.2188 -0.5264  0.4752
 6002TIP3    H239422   2.277   5.909   5.228 -1.4840 -0.1022  0.0042
 6003TIP3   OH239423   3.285   4.164   1.489 -0.5221  0.0951 -0.2696
 6003TIP3    H139424   3.232   4.178   1.410 -2.6509  1.3077  1.2797
 6003TIP3    H239425   3.220   4.152   1.559  1.3022 -0.8428  1.3354
 6004TIP3   OH239426   6.199   1.048   2.815 -0.1951  0.1427  0.5396
 6004TIP3    H139427   6.270   1.002   2.769  0.9103  1.4784  0.8507
 6004TIP3    H239428   6.148   0.978   2.856  2.1844 -0.8181  2.0913
 6005TIP3   OH239429   1.704   5.068   0.127  0.2944 -0.3174  0.3007
 6005TIP3    H139430   1.659   5.061   0.042  1.6533  0.2019 -0.4982
 6005TIP3    H239431   1.734   4.979   0.146 -1.5015 -0.7930  1.1324
 6006TIP3   OH239432   5.196   5.821  13.897  0.1778 -0.3112 -0.8052
 6006TIP3    H139433   5.245   5.903  13.900  1.8201 -1.2883  1.2803
 6006TIP3    H239434   5.263   5.753  13.907 -1.5364 -1.7009  3.0350
 6007TIP3   OH239435   3.535   4.745  15.066  0.0605  0.2967 -0.5182
 6007TIP3    H139436   3.607   4.780  15.118 -1.4344  1.4182  0.9162
 6007TIP3    H239437   3.549   4.780  14.978  0.6096  1.5119  0.0316
 6008TIP3   OH239438   3.635   0.593   3.386  0.1348 -0.9570 -0.0412
 6008TIP3    H139439   3.712   0.645   3.408 -0.0790 -0.1332 -1.1736
 6008TIP3    H239440   3.566   0.629   3.442  0.3469 -1.0993  0.3220
 6009TIP3   OH239441   6.052   1.014  15.468 -0.0429  0.0966 -0.3955
 6009TIP3    H139442   6.132   1.021  15.416  0.9122  1.1354  1.1085
 6009TIP3    H239443   6.080   0.970  15.548 -0.6403  1.6889  0.7365
 6010TIP3   OH239444   0.378   2.913   5.921  0.1092  0.7920  0.1121
 6010TIP3    H139445   0.389   2.982   5.987  0.0151 -0.4249  1.4636
 6010TIP3    H239446   0.332   2.843   5.968  0.0094 -0.1051 -1.2762
 6011TIP3   OH239447   3.353   3.417  16.031  0.4358  0.1413  0.0591
 6011TIP3    H139448   3.313   3.499  16.003  0.1828  0.1663  0.4760
 6011TIP3    H239449   3.298   3.387  16.104  1.2441  0.2423  0.7294
 6012TIP3   OH239450   2.874   0.720  13.586  0.5050 -0.4043 -0.2495
 6012TIP3    H139451   2.876   0.646  13.648 -0.3489 -1.1632 -1.1011
 6012TIP3    H239452   2.865   0.797  13.641 -1.8800 -1.1778  0.5421
 6013TIP3   OH239453   2.906   0.249  12.058 -0.1631 -0.3142  0.1371
 6013TIP3    H139454   2.971   0.304  12.015 -1.3497  2.6261  1.8179
 6013TIP3    H239455   2.952   0.167  12.078  1.7995  0.1331 -2.1579
 6014TIP3   OH239456   4.343   3.573   2.251  0.0987 -0.5521 -0.2041
 6014TIP3    H139457   4.395   3.593   2.173  0.5700 -0.9240  0.0120
 6014TIP3    H239458   4.259   3.614   2.234 -0.1412 -1.4536 -1.3460
 6015TIP3   OH239459   0.289   0.236  11.067 -0.7286  0.0647  0.1382
 6015TIP3    H139460   0.201   0.252  11.032 -0.5762 -1.0028 -0.7690
 6015TIP3    H239461   0.283   0.151  11.109 -0.1016 -0.0540 -0.0083
 6016TIP3   OH239462   1.974   2.009  16.740 -0.1394  0.0331  0.4460
 6016TIP3    H139463   1.951   1.956  16.816  1.6159  0.1251  1.0888
 6016TIP3    H239464   1.890   2.045  16.709 -1.2035 -1.9613  0.8124
 6017TIP3   OH239465   4.167   0.418  13.471  0.0400 -0.3137  0.4269
 6017TIP3    H139466   4.259   0.424  13.445 -0.2144  0.5031 -0.3016
 6017TIP3    H239467   4.135   0.339  13.428 -0.1840  0.6286 -1.2101
 6018TIP3   OH239468   3.669   1.642   1.519 -0.3145 -0.1708 -0.5192
 6018TIP3    H139469   3.701   1.557   1.548  3.2848  0.4626 -2.1741
 6018TIP3    H239470   3.632   1.625   1.432 -2.3658 -0.4491  0.3462
 6019TIP3   OH239471   3.578   1.775  16.446  0.3085 -0.2236 -0.2074
 6019TIP3    H139472   3.530   1.819  16.376  1.3656  0.2462 -0.6502
 6019TIP3    H239473   3.552   1.822  16.526 -0.9952 -0.8427 -0.2380
 6020TIP3   OH239474   6.667   6.191  16.338 -0.0305 -0.9654  0.2747
 6020TIP3    H139475   6.758   6.185  16.367 -0.0512 -2.4986  0.1011
 6020TIP3    H239476   6.673   6.194  16.242 -0.1404 -0.1517  0.2853
 6021TIP3   OH239477   4.007   4.410  14.626  0.3699  0.4356  0.1280
 6021TIP3    H139478   4.070   4.341  14.648  0.4901  0.2706 -0.7102
 6021TIP3    H239479   4.019   4.476  14.694 -0.4444 -0.7996  1.5321
 6022TIP3   OH239480   3.578   6.414  14.221  0.3998  0.1717 -0.4946
 6022TIP3    H139481   3.567   6.398  14.315  0.3242 -0.7769 -0.6595
 6022TIP3    H239482   3.570   6.328  14.180 -0.3223  0.6689 -1.4541
 6023TIP3   OH239483   4.878   2.260   3.720 -0.0627  0.0333  0.2169
 6023TIP3    H139484   4.968   2.273   3.688 -0.8361  2.4815 -1.2954
 6023TIP3    H239485   4.846   2.185   3.672  0.6798  0.1180 -0.4370
 6024TIP3   OH239486   3.839   3.460   2.414 -0.3952  0.0859 -0.3411
 6024TIP3    H139487   3.913   3.454   2.474 -0.7821 -0.8037  0.0669
 6024TIP3    H239488   3.870   3.516   2.343  0.2621  0.6861  0.4046
 6025TIP3   OH239489   0.432   2.055   0.370  0.3240 -0.0525 -0.4191
 6025TIP3    H139490   0.376   2.030   0.444  2.3570 -0.9291  0.8901
 6025TIP3    H239491   0.491   2.121   0.406  1.5532 -0.7255 -1.1707
 6026TIP3   OH239492   2.181   5.178   1.828  0.1622  0.5127 -0.0015
 6026TIP3    H139493   2.114   5.152   1.765  1.2232  1.7408 -1.7297
 6026TIP3    H239494   2.247   5.109   1.822  0.7326  1.1236 -1.0260
 6027TIP3   OH239495   1.458   4.067   2.109 -0.2654  0.5419  0.6384
 6027TIP3    H139496   1.553   4.061   2.111 -0.0008  1.6610 -2.5413
 6027TIP3    H239497   1.440   4.146   2.058 -2.8992  0.0569  0.6653
 6028TIP3   OH239498   1.058   4.552   5.101  0.3514 -0.1886  0.1292
 6028TIP3    H139499   0.963   4.555   5.093  0.2399  2.5882  1.2147
 6028TIP3    H239500   1.075   4.490   5.172 -0.6775 -0.3845  0.2126
 6029TIP3   OH239501   6.516   3.007   2.765 -0.8684 -0.4810  0.2058
 6029TIP3    H139502   6.454   2.935   2.751  0.7997 -1.8260 -0.6570
 6029TIP3    H239503   6.579   2.971   2.828  1.2859 -0.7039 -1.9276
 6030TIP3   OH239504   1.287   6.689   3.495 -0.4551  0.2900 -0.2529
 6030TIP3    H139505   1.275   6.652   3.582 -0.2512 -0.9436 -0.7328
 6030TIP3    H239506   1.307   6.614   3.439 -0.9565  1.0033 -1.4411
 6031TIP3   OH239507   6.256   0.054   2.581 -0.2037 -0.0140 -0.3611
 6031TIP3    H139508   6.351   0.044   2.581 -0.4106 -2.4835 -0.4687
 6031TIP3    H239509   6.235   0.078   2.491  0.3288  1.0415 -0.2231
 6032TIP3   OH239510   3.073   3.554   3.043 -0.0590  0.0904  0.6166
 6032TIP3    H139511   3.082   3.623   2.977  2.2961 -2.0127 -1.5115
 6032TIP3    H239512   3.005   3.497   3.009  0.7746 -0.7085  0.2614
 6033TIP3   OH239513   2.116   4.178  15.837 -0.4366  0.2576  0.0431
 6033TIP3    H139514   2.131   4.183  15.743  0.6196  1.4093  0.2575
 6033TIP3    H239515   2.022   4.197  15.847 -0.0644  2.8379 -0.6162
 6034TIP3   OH239516   4.451   3.124  14.649  0.0250 -0.6945  0.4016
 6034TIP3    H139517   4.373   3.147  14.598 -0.5078  0.3493  1.6240
 6034TIP3    H239518   4.516   3.099  14.584 -0.8570 -0.1315 -0.7355
 6035TIP3   OH239519   1.952   2.657  14.852 -0.0380  0.3502  0.4655
 6035TIP3    H139520   1.875   2.645  14.795  0.8406  0.0877 -0.7049
 6035TIP3    H239521   1.963   2.572  14.895 -0.6056  0.4923  0.8916
 6036TIP3   OH239522   6.627   6.217   5.119 -0.2174  0.0681 -0.2348
 6036TIP3    H139523   6.647   6.206   5.026  1.1825 -0.8010  0.1428
 6036TIP3    H239524   6.709   6.245   5.158 -0.0868 -2.0144  1.1288
 6037TIP3   OH239525   1.968   2.461  15.130 -0.0971 -0.1451 -0.5146
 6037TIP3    H139526   2.002   2.416  15.053 -0.0084  0.5301 -0.8758
 6037TIP3    H239527   2.028   2.436  15.201 -0.1838 -0.7743 -0.6541
 6038TIP3   OH239528   0.982   5.609  12.442 -0.2339  0.0240 -0.0473
 6038TIP3    H139529   0.978   5.673  12.371 -0.1730  0.2220  0.1275
 6038TIP3    H239530   0.942   5.653  12.516  0.5115  0.1529  0.2947
 6039TIP3   OH239531   0.608   2.034  13.504  0.0457 -0.0420 -0.6720
 6039TIP3    H139532   0.624   2.091  13.580 -0.9381 -1.2132  0.4502
 6039TIP3    H239533   0.667   2.068  13.436  0.0586  1.8123  0.2013
 6040TIP3   OH239534   4.040   6.050  14.082 -0.1172 -0.5784  0.3112
 6040TIP3    H139535   4.059   6.020  13.994 -0.4999  0.5349 -0.1672
 6040TIP3    H239536   3.953   6.014  14.102  0.3778 -1.6247  0.6153
 6041TIP3   OH239537   4.585   0.120   3.830 -0.3018 -0.1609 -0.3941
 6041TIP3    H139538   4.655   0.086   3.886  0.4272 -0.3595 -1.3874
 6041TIP3    H239539   4.607   0.088   3.742 -0.5089  1.4645 -1.0765
 6042TIP3   OH239540   0.778   6.143  13.338 -0.8391  0.2093  0.7356
 6042TIP3    H139541   0.692   6.182  13.323 -1.7951 -1.9720  0.1415
 6042TIP3    H239542   0.774   6.111  13.428 -0.9461 -0.5674  0.4593
 6043TIP3   OH239543   0.388   0.138  12.863 -0.2181 -0.4857 -0.5374
 6043TIP3    H139544   0.407   0.219  12.817 -2.8636  0.9364  0.6566
 6043TIP3    H239545   0.427   0.150  12.950 -3.2793  1.0121  0.7585
 6044TIP3   OH239546   4.528   2.588   2.903  0.4761  0.2362  0.3432
 6044TIP3    H139547   4.484   2.566   2.985  0.4997 -1.4609 -0.0690
 6044TIP3    H239548   4.550   2.681   2.912 -3.0555  1.1760  0.6162
 6045TIP3   OH239549   4.870   0.611   0.886  0.6315 -0.5867 -0.2341
 6045TIP3    H139550   4.932   0.684   0.898 -0.7838  0.4224  1.5045
 6045TIP3    H239551   4.909   0.539   0.935  0.3788  0.1214  1.0735
 6046TIP3   OH239552   3.978   1.198   4.878  0.6343 -0.3836  0.0235
 6046TIP3    H139553   3.971   1.256   4.802 -1.6176  2.4197  2.1525
 6046TIP3    H239554   4.063   1.221   4.918  0.1474  0.9082  0.3693
 6047TIP3   OH239555   5.748   6.683  12.988  0.3567  0.2205 -0.0571
 6047TIP3    H139556   5.758   6.759  12.931 -0.7403  0.0530 -0.4915
 6047TIP3    H239557   5.824   6.688  13.047  0.0395  1.9398  0.2745
 6048TIP3   OH239558   0.063   5.839   3.214  0.1938  0.1626  0.1354
 6048TIP3    H139559   0.085   5.891   3.291 -2.0296  0.7190  0.4786
 6048TIP3    H239560   0.075   5.900   3.140 -1.7088  1.0329  0.4741
 6049TIP3   OH239561   4.566   3.037  11.742 -0.5855 -0.4237  0.1572
 6049TIP3    H139562   4.558   2.985  11.662  1.4926  0.0257 -0.3997
 6049TIP3    H239563   4.640   2.998  11.788 -1.2266 -0.1408  1.4881
 6050TIP3   OH239564   1.748   3.357  12.844 -0.4337  0.1667  0.2703
 6050TIP3    H139565   1.758   3.451  12.827  1.2068 -0.2987 -1.6443
 6050TIP3    H239566   1.655   3.340  12.827 -1.1061  1.6544  2.0938
 6051TIP3   OH239567   6.156   2.116  14.873  0.4062 -0.2691  0.1603
 6051TIP3    H139568   6.233   2.087  14.825  0.9367  0.5414  0.4936
 6051TIP3    H239569   6.191   2.170  14.944 -0.4293 -0.4256  0.7102
 6052TIP3   OH239570   2.596   5.145   2.734 -0.1579 -0.4416  0.4007
 6052TIP3    H139571   2.604   5.204   2.810  2.0052 -5.2582  4.4812
 6052TIP3    H239572   2.685   5.138   2.699 -0.8222  0.3008 -1.6015
 6053TIP3   OH239573   4.493   2.182   4.938 -0.0360  0.5404 -0.1652
 6053TIP3    H139574   4.439   2.180   5.017 -0.3855  0.4034 -0.4028
 6053TIP3    H239575   4.568   2.126   4.958 -0.1909  0.3998  0.0211
 6054TIP3   OH239576   2.714   3.048   4.176 -0.2864  0.3034 -0.0817
 6054TIP3    H139577   2.740   3.027   4.087 -3.5901  1.3987 -1.4554
 6054TIP3    H239578   2.775   3.115   4.204 -0.2155  1.1972 -2.2111
 6055TIP3   OH239579   4.926   5.875  13.596  0.2524  0.5771  0.3596
 6055TIP3    H139580   4.859   5.807  13.598  1.4608 -0.7359 -1.2628
 6055TIP3    H239581   4.907   5.925  13.516  1.5416 -0.2064 -0.4667
 6056TIP3   OH239582   6.658   1.120   1.031 -0.1330 -0.0412  0.6560
 6056TIP3    H139583   6.582   1.087   0.983  0.9958  1.7293 -2.6533
 6056TIP3    H239584   6.728   1.057   1.013  0.4483  0.9220 -0.6707
 6057TIP3   OH239585   1.752   4.141   1.135 -0.0087  0.5692  0.6184
 6057TIP3    H139586   1.811   4.154   1.061 -1.9865 -0.4245 -1.2481
 6057TIP3    H239587   1.674   4.193   1.113 -0.5284  0.5302  2.1891
 6058TIP3   OH239588   6.125   0.277   4.228  0.1461  0.4187  0.0908
 6058TIP3    H139589   6.048   0.223   4.207  0.7646 -0.4396 -0.0079
 6058TIP3    H239590   6.102   0.365   4.196  0.4766 -0.4983 -2.9326
 6059TIP3   OH239591   4.083   1.410  17.143  0.1787  0.3607  0.3676
 6059TIP3    H139592   4.099   1.474  17.213  1.8300  0.1849  0.1861
 6059TIP3    H239593   4.145   1.340  17.160 -0.2585 -0.2706 -0.5721
 6060TIP3   OH239594   3.152   1.174  15.807 -0.0004 -0.3369  0.2073
 6060TIP3    H139595   3.150   1.247  15.868  0.1186  0.1859 -0.4091
 6060TIP3    H239596   3.241   1.140  15.812 -0.1539 -0.6730  0.7580
 6061TIP3   OH239597   3.009   0.381  13.208  0.3724 -0.0700 -0.1694
 6061TIP3    H139598   2.983   0.346  13.123  0.3841 -0.6998  0.0790
 6061TIP3    H239599   3.082   0.440  13.189 -1.0066  1.4961 -0.8474
 6062TIP3   OH239600   1.301   4.663  10.655 -0.3861 -0.1591 -0.6082
 6062TIP3    H139601   1.225   4.629  10.608 -2.3248  0.0473  2.1254
 6062TIP3    H239602   1.279   4.755  10.673  1.1748  0.3147 -0.9630
 6063TIP3   OH239603   5.968   3.664   6.221 -0.2382  0.3460 -0.2106
 6063TIP3    H139604   5.967   3.674   6.316  1.4230  0.4453 -0.1655
 6063TIP3    H239605   5.998   3.749   6.188 -0.7239  0.2870 -0.8207
 6064TIP3   OH239606   4.243   1.574   3.592  0.2692 -0.1433 -0.0860
 6064TIP3    H139607   4.312   1.581   3.658  0.5961 -0.7625 -0.3597
 6064TIP3    H239608   4.179   1.641   3.618  1.0300  0.5332  0.0949
 6065TIP3   OH239609   0.626   5.035  13.475 -0.3209  0.1723 -0.0844
 6065TIP3    H139610   0.582   4.962  13.432 -0.5820  0.8249 -0.9527
 6065TIP3    H239611   0.577   5.112  13.448  1.6367  1.0096 -1.5520
 6066TIP3   OH239612   4.253   5.693  13.072 -0.2316  0.5094  0.0892
 6066TIP3    H139613   4.336   5.678  13.116 -1.5367 -1.2805  2.1913
 6066TIP3    H239614   4.276   5.737  12.990  2.6698  0.7235  0.9123
 6067TIP3   OH239615   2.079   6.424   5.085 -0.3662 -0.0716 -0.1396
 6067TIP3    H139616   2.071   6.456   5.175  0.7317 -1.4156  0.4897
 6067TIP3    H239617   2.172   6.435   5.064 -0.6312  0.3108 -1.1512
 6068TIP3   OH239618   5.163   6.754  16.264 -0.5200  0.6058  0.3582
 6068TIP3    H139619   5.152   6.703  16.184  0.9631  0.5316  0.1765
 6068TIP3    H239620   5.073   6.775  16.292 -1.0737  1.8113 -2.0696
 6069TIP3   OH239621   6.337   3.448  13.937  0.0190 -0.4866  0.1724
 6069TIP3    H139622   6.380   3.438  13.852 -0.3187 -1.4285  0.1103
 6069TIP3    H239623   6.300   3.537  13.934  0.5525 -0.2727 -0.4049
 6070TIP3   OH239624   2.805   2.092  13.165 -0.5353 -0.5700  0.2451
 6070TIP3    H139625   2.786   2.001  13.144 -0.4830 -0.3779 -0.6606
 6070TIP3    H239626   2.729   2.141  13.132 -0.4878 -0.2640  0.5767
 6071TIP3   OH239627   2.217   4.624   0.114 -0.2115  0.1938  0.1049
 6071TIP3    H139628   2.237   4.584   0.199 -0.9500  1.9797  1.1850
 6071TIP3    H239629   2.284   4.691   0.103 -0.6817  0.6080 -0.2545
 6072TIP3   OH239630   4.602   1.378   3.285  0.2388  0.2953  0.1775
 6072TIP3    H139631   4.590   1.468   3.255  0.2592  0.0177 -0.6896
 6072TIP3    H239632   4.663   1.385   3.359  0.3288  0.9766  0.0463
 6073TIP3   OH239633   3.482   5.780  15.953  0.0881  0.0612 -0.3111
 6073TIP3    H139634   3.425   5.705  15.966  1.8067 -1.2220  0.0982
 6073TIP3    H239635   3.535   5.758  15.877  1.7205  0.1173  0.7652
 6074TIP3   OH239636   0.982   5.019  15.847  0.0710 -0.3544  0.0180
 6074TIP3    H139637   1.004   4.937  15.891 -0.0307 -1.1573 -1.3540
 6074TIP3    H239638   0.943   5.074  15.915  1.5340 -0.8522  1.3002
 6075TIP3   OH239639   1.704   2.367   2.307  0.9899  0.1003  0.1185
 6075TIP3    H139640   1.764   2.425   2.260  1.1946 -1.5245 -1.7122
 6075TIP3    H239641   1.639   2.342   2.242  0.2925 -0.8873  1.1693
 6076TIP3   OH239642   3.303   5.938  15.111  0.0940  0.0285  0.3492
 6076TIP3    H139643   3.222   5.988  15.102 -0.2335 -0.8044 -2.2205
 6076TIP3    H239644   3.373   6.003  15.107 -0.4031  0.5843  0.6333
 6077TIP3   OH239645   1.480   1.335   4.526  0.2772  0.3049  0.0056
 6077TIP3    H139646   1.556   1.367   4.574  0.5626 -0.0575 -0.1962
 6077TIP3    H239647   1.482   1.240   4.539 -0.7425  0.3800  0.8828
 6078TIP3   OH239648   1.634   1.124  15.680 -0.1721 -0.5665 -0.1623
 6078TIP3    H139649   1.591   1.208  15.693  0.6935 -0.0491 -0.5442
 6078TIP3    H239650   1.646   1.117  15.585 -0.0806 -1.0403 -0.1187
 6079TIP3   OH239651   6.085   4.334  11.479  0.2396  0.1678  0.1470
 6079TIP3    H139652   6.141   4.315  11.404 -0.9845  0.6482 -0.9443
 6079TIP3    H239653   6.080   4.252  11.528  0.5233 -0.3543 -0.6793
 6080TIP3   OH239654   4.889   0.039  12.038  0.7601 -0.2951  0.3724
 6080TIP3    H139655   4.919   0.106  12.100 -0.7491  0.0909  0.7245
 6080TIP3    H239656   4.796   0.029  12.057  0.2888 -0.2861 -1.7328
 6081TIP3   OH239657   0.664   3.053   3.508  0.0121 -0.3781  0.6545
 6081TIP3    H139658   0.648   3.104   3.428  0.0912 -0.9303  0.2834
 6081TIP3    H239659   0.576   3.031   3.540 -0.0270  0.1358  0.9157
 6082TIP3   OH239660   2.116   2.446  12.955 -0.0003 -0.0893 -0.2873
 6082TIP3    H139661   2.184   2.489  12.902 -0.4825  0.6107 -0.3561
 6082TIP3    H239662   2.099   2.507  13.026 -1.4950  0.3898 -1.0039
 6083TIP3   OH239663   3.267   0.913   2.163 -0.0704  0.0442  0.0780
 6083TIP3    H139664   3.328   0.987   2.172  1.1401 -1.0043  0.7562
 6083TIP3    H239665   3.257   0.880   2.252 -3.3672  1.4928  0.3631
 6084TIP3   OH239666   2.937   5.536  15.852  0.0941  0.8742  0.2319
 6084TIP3    H139667   2.896   5.451  15.837  1.5392  0.1004  0.4562
 6084TIP3    H239668   2.879   5.599  15.810 -1.1118 -0.2021  0.2426
 6085TIP3   OH239669   4.229   6.697   3.349  0.5096  0.4163  0.3542
 6085TIP3    H139670   4.165   6.679   3.280  1.3792 -0.2764 -0.2785
 6085TIP3    H239671   4.275   6.776   3.319 -0.1530  1.0274  0.9008
 6086TIP3   OH239672   5.284   4.611   5.830  0.2955 -0.1532  0.3902
 6086TIP3    H139673   5.233   4.532   5.808 -0.3318  0.2289  0.4296
 6086TIP3    H239674   5.247   4.640   5.914 -0.8660  1.2975 -0.5638
 6087TIP3   OH239675   0.508   5.949   1.834 -0.2395 -0.6996  0.5904
 6087TIP3    H139676   0.463   5.963   1.751  1.2223 -0.3551 -0.1888
 6087TIP3    H239677   0.595   5.989   1.821  0.0586 -0.7358  2.2450
 6088TIP3   OH239678   4.869   1.356  12.969  0.4151  0.0660  0.1682
 6088TIP3    H139679   4.896   1.434  12.920  0.6996  0.0030  0.2248
 6088TIP3    H239680   4.774   1.367  12.980  0.7013  1.3836  1.8610
 6089TIP3   OH239681   1.869   3.335  16.188  0.0413 -0.5079 -0.1671
 6089TIP3    H139682   1.874   3.267  16.121 -1.4176 -0.2705 -0.5554
 6089TIP3    H239683   1.799   3.307  16.247  0.3300  0.0039  0.4381
 6090TIP3   OH239684   4.283   4.361   2.387 -0.5135  0.6444  0.8843
 6090TIP3    H139685   4.306   4.385   2.298  0.6532  0.4515  1.1232
 6090TIP3    H239686   4.228   4.433   2.418 -1.7941  0.2427 -0.3042
 6091TIP3   OH239687   6.142   1.439   5.328  0.1186 -0.0028  0.1848
 6091TIP3    H139688   6.222   1.492   5.330 -1.4974  2.5974  1.7413
 6091TIP3    H239689   6.096   1.462   5.409 -0.8573 -3.7552  0.8881
 6092TIP3   OH239690   2.075   2.069   4.933 -0.5107  0.3020 -0.8890
 6092TIP3    H139691   2.143   2.010   4.964  1.0339  2.8621  0.9765
 6092TIP3    H239692   1.995   2.036   4.974  0.6064  0.4527  1.5964
 6093TIP3   OH239693   4.152   5.461   4.939  0.3312 -0.2697  0.8731
 6093TIP3    H139694   4.172   5.507   5.021 -0.7284  0.0884  0.9379
 6093TIP3    H239695   4.072   5.412   4.958 -0.6351  0.8135 -0.3339
 6094TIP3   OH239696   0.380   3.355   3.487  0.1596 -0.0262  0.3310
 6094TIP3    H139697   0.305   3.314   3.528 -1.0185  1.8895  0.2079
 6094TIP3    H239698   0.353   3.445   3.470  2.2239  0.5346 -0.3993
 6095TIP3   OH239699   3.550   2.049  16.885 -0.0994  0.0689 -0.3355
 6095TIP3    H139700   3.480   2.058  16.951 -0.5805 -1.8724 -0.5128
 6095TIP3    H239701   3.504   2.021  16.806  0.2836  3.6537 -2.0219
 6096TIP3   OH239702   3.311   0.056  16.483 -0.3454 -1.1555  0.3704
 6096TIP3    H139703   3.351  -0.019  16.440 -1.5045 -0.4900 -2.0220
 6096TIP3    H239704   3.279   0.111  16.412  0.0452  1.4200  2.0386
 6097TIP3   OH239705   2.564   2.940  15.025  0.1043  0.6130 -0.0421
 6097TIP3    H139706   2.630   2.936  15.095 -1.9754 -0.3883  2.0012
 6097TIP3    H239707   2.536   3.031  15.023 -0.3053  0.5217  0.9655
 6098TIP3   OH239708   6.009   5.658  16.928 -0.0495  0.2543 -0.1151
 6098TIP3    H139709   5.970   5.696  17.006  2.7038  2.3132  0.3895
 6098TIP3    H239710   5.995   5.724  16.860 -0.5915 -0.6038 -0.8560
 6099TIP3   OH239711   4.643   4.656  15.728  0.0668  0.1792 -0.0457
 6099TIP3    H139712   4.560   4.703  15.729 -0.3543 -0.5405  1.3048
 6099TIP3    H239713   4.663   4.640  15.820  1.1292 -0.6635 -0.4001
 6100TIP3   OH239714   3.718   6.177  13.736 -0.1929 -0.7078  0.3944
 6100TIP3    H139715   3.769   6.185  13.816  0.3556  0.1817 -0.0284
 6100TIP3    H239716   3.781   6.195  13.665 -0.9274 -0.3207 -0.1725
 6101TIP3   OH239717   3.228   5.717   6.368 -0.3682  0.0899 -0.2314
 6101TIP3    H139718   3.174   5.784   6.327 -0.8662 -0.8029 -1.0696
 6101TIP3    H239719   3.197   5.635   6.332  2.3385 -0.4050 -1.7545
 6102TIP3   OH239720   4.732   4.727  16.617  0.1918  0.5131  0.2545
 6102TIP3    H139721   4.770   4.694  16.698 -0.0810  0.5631  0.4061
 6102TIP3    H239722   4.722   4.650  16.561 -1.6267  0.0955  1.0810
 6103TIP3   OH239723   6.307   3.296  13.080  0.0281 -0.3427  0.1354
 6103TIP3    H139724   6.213   3.283  13.090 -0.2944 -0.4290 -2.3634
 6103TIP3    H239725   6.331   3.356  13.151 -1.4377 -1.9686  2.1425
 6104TIP3   OH239726   6.643   5.389   1.214 -0.0013 -0.3204  0.3978
 6104TIP3    H139727   6.568   5.331   1.205  0.3412 -0.6464 -0.4065
 6104TIP3    H239728   6.714   5.332   1.243  0.1717 -0.1830  0.2459
 6105TIP3   OH239729   5.825   0.168   4.161  0.4522 -0.4459 -0.0780
 6105TIP3    H139730   5.788   0.095   4.112  1.7148 -0.6469 -0.7711
 6105TIP3    H239731   5.795   0.246   4.114 -1.3836 -0.4451  1.0021
 6106TIP3   OH239732   0.866   4.109  13.998  0.1030 -0.8120  0.4337
 6106TIP3    H139733   0.856   4.200  14.028  0.9912 -0.8809  0.9641
 6106TIP3    H239734   0.917   4.116  13.918 -2.4098 -0.6135 -1.2791
 6107TIP3   OH239735   2.839   4.616   5.031 -0.0701 -0.3191 -0.5004
 6107TIP3    H139736   2.877   4.540   5.076  0.3995 -0.7319 -1.5438
 6107TIP3    H239737   2.745   4.605   5.040  0.0087 -0.7354 -0.1605
 6108TIP3   OH239738   1.686   0.384  10.681  0.0706 -0.0526 -0.0365
 6108TIP3    H139739   1.745   0.454  10.710  0.0188  0.3065 -0.7587
 6108TIP3    H239740   1.738   0.304  10.688  0.1575  0.0598  0.7243
 6109TIP3   OH239741   4.134   6.239   0.639  0.0730  0.0359  0.1514
 6109TIP3    H139742   4.188   6.162   0.656 -1.2289 -0.8086  0.5961
 6109TIP3    H239743   4.102   6.227   0.550 -1.3355 -0.7317  0.7293
 6110TIP3   OH239744   6.186   2.774   1.299  0.2598  0.0966 -0.3627
 6110TIP3    H139745   6.184   2.790   1.205  1.0146  0.2880 -0.3521
 6110TIP3    H239746   6.131   2.843   1.337 -0.1270 -0.0422 -0.6616
 6111TIP3   OH239747   3.179   4.785   2.117 -0.4755  0.0277  0.6055
 6111TIP3    H139748   3.182   4.860   2.176  1.4631 -0.4767  1.2159
 6111TIP3    H239749   3.086   4.775   2.096 -0.7490  2.9704 -0.0358
 6112TIP3   OH239750   5.096   0.553  11.741  0.1857  0.2670  0.1395
 6112TIP3    H139751   5.067   0.501  11.816 -1.4645 -0.7160 -1.1254
 6112TIP3    H239752   5.026   0.544  11.676  1.7248  0.7550 -1.6839
 6113TIP3   OH239753   1.255   6.021  15.422  0.2559  0.0933 -0.1393
 6113TIP3    H139754   1.274   6.009  15.515 -1.1181 -0.9037  0.0571
 6113TIP3    H239755   1.185   6.087  15.420 -1.3025 -1.4933 -0.2529
 6114TIP3   OH239756   3.527   5.603   4.231  0.1415  0.1999 -0.4631
 6114TIP3    H139757   3.557   5.607   4.140  1.2055  0.7990 -0.0980
 6114TIP3    H239758   3.539   5.692   4.264 -1.7928  0.3940 -0.2013
 6115TIP3   OH239759   3.894   3.184   0.037  0.1807 -0.3734  0.3258
 6115TIP3    H139760   3.857   3.226  -0.040  1.0638 -1.0927 -0.5172
 6115TIP3    H239761   3.825   3.190   0.103 -0.4701  0.5299 -0.4163
 6116TIP3   OH239762   1.541   0.114   0.267 -0.1622 -0.0958  0.4271
 6116TIP3    H139763   1.501   0.051   0.207  0.2162  1.4501 -1.5591
 6116TIP3    H239764   1.628   0.078   0.283 -1.1981 -1.9751  2.4395
 6117TIP3   OH239765   6.080   0.467   2.604  0.0509  0.0679 -0.3804
 6117TIP3    H139766   6.021   0.441   2.675  0.4402  2.3117  0.8750
 6117TIP3    H239767   6.067   0.562   2.597  1.5824  0.2026 -1.8844
 6118TIP3   OH239768   2.443   3.919   0.304 -0.1829  0.3684  0.2502
 6118TIP3    H139769   2.380   3.883   0.241 -0.9750  0.6374  0.8614
 6118TIP3    H239770   2.526   3.877   0.283 -0.3941  0.5818 -1.0740
 6119TIP3   OH239771   2.599   4.651  12.288  0.4215  0.3788 -0.5691
 6119TIP3    H139772   2.630   4.560  12.287 -1.6845 -0.3875 -1.9891
 6119TIP3    H239773   2.616   4.683  12.200 -0.0713  0.9296 -0.4666
 6120TIP3   OH239774   3.267   5.184   5.538  0.2766  0.2039 -0.0174
 6120TIP3    H139775   3.257   5.089   5.527  0.7704  0.0549  0.7764
 6120TIP3    H239776   3.205   5.207   5.607 -0.5870  0.6400 -0.9086
 6121TIP3   OH239777   6.663   5.210   6.440  0.2994 -0.4852  0.2491
 6121TIP3    H139778   6.606   5.162   6.380  2.3686 -0.4639 -1.8755
 6121TIP3    H239779   6.666   5.156   6.519 -0.9220 -1.5578 -0.4104
 6122TIP3   OH239780   3.422   5.027   4.086  0.3342  1.0556 -0.1168
 6122TIP3    H139781   3.362   4.958   4.058 -0.2462  0.8083  1.6179
 6122TIP3    H239782   3.509   4.996   4.061  0.4515 -1.7736  3.1233
 6123TIP3   OH239783   3.357   3.507   2.197  0.1176 -0.7756 -0.0345
 6123TIP3    H139784   3.446   3.523   2.166  0.5008 -0.8168  1.0169
 6123TIP3    H239785   3.314   3.461   2.124  0.0743  1.7299 -1.6946
 6124TIP3   OH239786   4.346   0.650   3.651  0.1031  0.7198 -0.6526
 6124TIP3    H139787   4.414   0.653   3.585  1.0671 -1.5059  0.1424
 6124TIP3    H239788   4.374   0.712   3.718  1.2098  0.0416 -0.4734
 6125TIP3   OH239789   5.177   5.468   2.379 -0.0220 -0.0650 -0.3772
 6125TIP3    H139790   5.179   5.495   2.471 -1.8431 -0.0129 -0.3074
 6125TIP3    H239791   5.209   5.378   2.379  1.8538  0.5612  0.0045
 6126TIP3   OH239792   4.216   1.431   0.312  0.0692  0.4593 -0.0650
 6126TIP3    H139793   4.214   1.439   0.407  0.1749  3.8857 -0.2245
 6126TIP3    H239794   4.299   1.388   0.293  1.9361  3.0981  1.3678
 6127TIP3   OH239795   6.192   6.329   2.040  0.3550 -0.4513 -0.6600
 6127TIP3    H139796   6.170   6.419   2.065 -0.9006 -1.0156  0.3750
 6127TIP3    H239797   6.251   6.299   2.109 -0.6777 -1.0004  0.0119
 6128TIP3   OH239798   0.673   1.587   1.697 -1.0103 -0.0543 -0.5826
 6128TIP3    H139799   0.743   1.540   1.743 -0.2619 -0.2241 -1.8473
 6128TIP3    H239800   0.643   1.525   1.630 -1.7423  0.3607 -0.6463
 6129TIP3   OH239801   1.049   3.334  15.019  0.5148 -0.1868 -0.2923
 6129TIP3    H139802   1.137   3.339  15.055  1.1461 -0.3280 -1.7499
 6129TIP3    H239803   1.040   3.244  14.988 -0.4038 -0.3694  0.4547
 6130TIP3   OH239804   2.743   1.311  13.842  0.0627 -0.2952  0.9852
 6130TIP3    H139805   2.838   1.309  13.850  0.0542 -0.3460  1.0769
 6130TIP3    H239806   2.712   1.257  13.914  0.0137 -1.4382  0.1388
 6131TIP3   OH239807   3.794   1.756   1.731 -0.0517  0.3244 -0.1401
 6131TIP3    H139808   3.759   1.723   1.649 -0.5283  0.5122 -0.0115
 6131TIP3    H239809   3.805   1.850   1.716  0.8535  0.1961 -0.3431
 6132TIP3   OH239810   0.035   6.194  13.009  0.0056 -0.5938  0.5649
 6132TIP3    H139811   0.024   6.257  12.938  1.0836 -1.9601 -0.8788
 6132TIP3    H239812   0.076   6.245  13.079 -2.1966  1.0665  0.7338
 6133TIP3   OH239813   4.240   3.776   1.432  0.2112 -0.1581  0.2156
 6133TIP3    H139814   4.160   3.818   1.464 -0.0948 -0.7836  0.2935
 6133TIP3    H239815   4.252   3.702   1.492  2.7165  1.7905  2.3537
 6134TIP3   OH239816   6.610   2.740   0.075 -0.0174  0.7343  0.7083
 6134TIP3    H139817   6.523   2.707   0.098  0.8574 -2.8635 -0.5337
 6134TIP3    H239818   6.671   2.683   0.122  1.7028  2.0315  0.1720
 6135TIP3   OH239819   3.594   2.988  13.917  0.5624  0.0374  0.2531
 6135TIP3    H139820   3.503   3.004  13.892  1.0134 -0.1851 -1.7588
 6135TIP3    H239821   3.605   2.894  13.905  0.9420 -0.0020  0.9174
 6136TIP3   OH239822   1.791   5.121  15.532 -0.2468  0.1901 -0.0934
 6136TIP3    H139823   1.879   5.101  15.562 -0.6958  0.5880  1.6031
 6136TIP3    H239824   1.787   5.086  15.443  1.7868  0.6782 -0.4170
 6137TIP3   OH239825   0.490   1.439  13.744 -0.0082 -0.4560 -0.4696
 6137TIP3    H139826   0.561   1.374  13.744  1.0806  0.6759 -1.2732
 6137TIP3    H239827   0.522   1.509  13.801 -1.5352 -0.9456  1.0883
 6138TIP3   OH239828   2.331   6.131   2.578 -0.2573 -0.0358 -0.3346
 6138TIP3    H139829   2.238   6.129   2.599 -0.4910  0.0536 -1.3126
 6138TIP3    H239830   2.358   6.040   2.582  0.1498  0.1070  2.0895
 6139TIP3   OH239831   0.207   5.663  11.642  0.0376  0.2710 -0.4448
 6139TIP3    H139832   0.279   5.649  11.705  0.4601 -1.5203 -1.2577
 6139TIP3    H239833   0.246   5.715  11.572  0.4033 -0.1883 -0.5923
 6140TIP3   OH239834   0.146   1.771  12.875  0.0831  0.0326  0.7078
 6140TIP3    H139835   0.079   1.838  12.887 -1.4625 -1.3332  0.0644
 6140TIP3    H239836   0.164   1.739  12.964 -0.5641 -0.0179  0.8200
 6141TIP3   OH239837   4.058   5.631  16.049 -0.4700 -0.0854 -0.0217
 6141TIP3    H139838   3.977   5.671  16.080  0.1051  0.1743  1.2319
 6141TIP3    H239839   4.124   5.700  16.060  0.1270 -0.6569  0.0294
 6142TIP3   OH239840   4.689   3.843   1.798 -0.1227 -0.1785  0.5795
 6142TIP3    H139841   4.599   3.871   1.815 -0.9193 -0.9822 -1.8493
 6142TIP3    H239842   4.710   3.881   1.712  1.8512 -0.0557  1.0644
 6143TIP3   OH239843   3.537   5.734   2.481 -0.0776  0.2852  0.2517
 6143TIP3    H139844   3.584   5.652   2.497  0.2714  0.6049  0.9150
 6143TIP3    H239845   3.602   5.802   2.496  0.1193  0.6692 -1.9927
 6144TIP3   OH239846   2.984   4.602   1.092  0.0479  0.3710 -0.2240
 6144TIP3    H139847   2.965   4.693   1.116 -0.0727  0.3795 -0.3527
 6144TIP3    H239848   3.068   4.583   1.135  0.4438  0.7824 -0.7977
 6145TIP3   OH239849   4.065   0.806   0.343  0.4269  1.1746 -0.4759
 6145TIP3    H139850   3.975   0.817   0.375  0.1058 -1.2075 -0.3707
 6145TIP3    H239851   4.120   0.840   0.413 -0.3616  3.3602 -0.8562
 6146TIP3   OH239852   3.266   4.956  16.949 -0.0774 -0.5702  0.3818
 6146TIP3    H139853   3.213   4.919  16.878  0.2146 -0.6648  0.2126
 6146TIP3    H239854   3.279   5.047  16.923  0.5405 -0.7588  0.0086
 6147TIP3   OH239855   3.370   5.767   2.264  0.6670 -0.5462 -0.7827
 6147TIP3    H139856   3.425   5.798   2.336 -1.4350 -0.9909  1.1114
 6147TIP3    H239857   3.423   5.699   2.221  1.6579 -0.8544  0.8413
 6148TIP3   OH239858   5.006   2.276   0.813 -0.2160  0.6881  0.0234
 6148TIP3    H139859   5.085   2.261   0.864 -0.5452 -0.7926  0.1617
 6148TIP3    H239860   5.024   2.355   0.763  0.9964  0.8796  0.7171
 6149TIP3   OH239861   4.441   2.324   3.842 -0.3851  0.3002  0.3112
 6149TIP3    H139862   4.465   2.297   3.753 -0.2148  0.2300  0.3775
 6149TIP3    H239863   4.487   2.407   3.855  1.4206 -0.7771  1.1410
 6150TIP3   OH239864   3.627   3.468   2.604  0.0289  0.6265 -0.1257
 6150TIP3    H139865   3.616   3.544   2.662 -0.8067  0.3688  0.0822
 6150TIP3    H239866   3.709   3.483   2.559  0.1038  1.4272  0.2588
 6151TIP3   OH239867   3.409   5.312   4.147 -0.2529 -0.2739 -0.5140
 6151TIP3    H139868   3.407   5.222   4.114 -1.5615 -0.2831 -0.4510
 6151TIP3    H239869   3.427   5.366   4.070  0.9912 -0.5996 -0.4778
 6152TIP3   OH239870   0.282   1.223  15.328 -0.5462 -0.0393  0.2909
 6152TIP3    H139871   0.328   1.274  15.395  0.4518  0.5577 -0.8022
 6152TIP3    H239872   0.273   1.136  15.366 -0.2411  0.3595  1.3066
 6153TIP3   OH239873   3.256   3.824  16.459  1.3094 -0.5828 -0.3975
 6153TIP3    H139874   3.299   3.906  16.481  0.5557 -0.2097 -0.2593
 6153TIP3    H239875   3.305   3.757  16.506  2.4694 -0.3332 -1.1963
 6154TIP3   OH239876   1.949   1.539   4.734 -0.0407 -0.7550  0.5531
 6154TIP3    H139877   1.946   1.624   4.777 -1.5951  1.0487 -2.7563
 6154TIP3    H239878   2.039   1.531   4.703  0.1655 -0.4255  1.0512
 6155TIP3   OH239879   1.558   5.856   2.562 -1.1689 -0.2198  0.0288
 6155TIP3    H139880   1.596   5.783   2.513 -0.6131 -1.6154  2.3728
 6155TIP3    H239881   1.487   5.816   2.612 -1.8199  1.1845  0.2819
 6156TIP3   OH239882   6.315   4.099  15.881  0.6045 -0.0562  0.1845
 6156TIP3    H139883   6.277   4.164  15.822  0.4386 -0.3465 -0.0320
 6156TIP3    H239884   6.263   4.021  15.866  1.4179 -0.5274 -0.2643
 6157TIP3   OH239885   2.504   1.590   2.426  0.5316 -0.2990 -0.0825
 6157TIP3    H139886   2.517   1.655   2.357 -0.5290  0.2397  0.2063
 6157TIP3    H239887   2.474   1.512   2.380  0.9670 -0.3123 -0.3466
 6158TIP3   OH239888   5.192   1.955   4.898 -0.3172  0.4603 -0.3007
 6158TIP3    H139889   5.162   2.036   4.856 -1.0896  0.8750  1.0025
 6158TIP3    H239890   5.120   1.893   4.885 -1.1329  0.9785  1.4555
 6159TIP3   OH239891   2.564   3.426  15.490  0.0490 -0.3462 -0.0611
 6159TIP3    H139892   2.621   3.367  15.440 -0.7455 -0.6882 -0.5911
 6159TIP3    H239893   2.623   3.489  15.530  0.8353 -0.9686 -0.2248
 6160TIP3   OH239894   6.669   2.371  10.555 -0.4976  0.0649  0.0660
 6160TIP3    H139895   6.657   2.350  10.647 -1.5492 -2.0815 -0.4820
 6160TIP3    H239896   6.754   2.333  10.533  0.1682  1.3675  0.3356
 6161TIP3   OH239897   3.838   5.890  15.471  0.3753  0.0425  0.0648
 6161TIP3    H139898   3.918   5.883  15.524  1.1734 -1.0259 -1.2347
 6161TIP3    H239899   3.867   5.882  15.381 -1.1023  0.6547 -0.5048
 6162TIP3   OH239900   4.179   2.037   0.752  0.2900  0.2909  0.8127
 6162TIP3    H139901   4.101   2.063   0.703  0.2257  0.7560  1.1520
 6162TIP3    H239902   4.175   2.089   0.833  1.1143  0.5731  0.6867
 6163TIP3   OH239903   3.455   1.052   5.662  0.2390  0.4299  0.2292
 6163TIP3    H139904   3.471   1.085   5.751  0.0604  2.1920 -0.3571
 6163TIP3    H239905   3.368   1.085   5.639 -0.2912 -1.1211 -0.1463
 6164TIP3   OH239906   0.442   6.475  16.193 -0.2262 -0.3281 -0.0585
 6164TIP3    H139907   0.525   6.475  16.145 -0.1523  0.4103  0.0559
 6164TIP3    H239908   0.464   6.435  16.277 -0.0564 -0.4148 -0.1428
 6165TIP3   OH239909   4.095   4.740   1.105 -0.2815  0.4680 -0.4199
 6165TIP3    H139910   4.059   4.768   1.021 -1.6543 -1.8776 -0.7116
 6165TIP3    H239911   4.026   4.757   1.168 -0.2241 -0.0357 -0.2118
 6166TIP3   OH239912   0.195   1.943   4.741  0.8868 -0.4633 -0.5305
 6166TIP3    H139913   0.114   1.935   4.792 -0.7303  1.0801 -2.6679
 6166TIP3    H239914   0.191   1.869   4.680  0.8392 -0.1368 -0.9267
 6167TIP3   OH239915   5.468   3.563   0.597 -0.7567 -0.7347  0.0600
 6167TIP3    H139916   5.549   3.612   0.581 -0.2803 -1.4303  0.3015
 6167TIP3    H239917   5.428   3.555   0.510 -1.1757  0.6091  0.0914
 6168TIP3   OH239918   2.345   0.255  16.555  0.0796  0.3958  0.0179
 6168TIP3    H139919   2.357   0.194  16.482  1.6611  0.0029  0.5588
 6168TIP3    H239920   2.330   0.200  16.631 -3.1991  0.8252 -0.1731
 6169TIP3   OH239921   2.408   4.390   1.906 -0.1671  0.6498  0.4132
 6169TIP3    H139922   2.326   4.383   1.857  0.1970  0.8466 -0.2280
 6169TIP3    H239923   2.438   4.300   1.917  0.4302  0.6622 -0.9014
 6170TIP3   OH239924   3.743   2.266  14.063  0.0860 -0.1152  0.0565
 6170TIP3    H139925   3.827   2.227  14.038  0.8393  1.5739 -0.1932
 6170TIP3    H239926   3.745   2.353  14.025 -1.9602 -0.1527 -0.2431
 6171TIP3   OH239927   6.580   5.652  16.133 -0.3745  0.1218  0.2796
 6171TIP3    H139928   6.601   5.562  16.158 -0.7709  0.0561  0.3828
 6171TIP3    H239929   6.508   5.676  16.191  0.3717  0.8485  0.9275
 6172TIP3   OH239930   4.518   3.189  12.095 -0.2115  0.1740  0.1918
 6172TIP3    H139931   4.603   3.187  12.051  0.5871 -0.4376  1.6886
 6172TIP3    H239932   4.469   3.256  12.048  1.3987  1.1391 -0.2106
 6173TIP3   OH239933   1.184   3.839  14.878  0.5696 -0.0708  0.1054
 6173TIP3    H139934   1.204   3.810  14.789  1.8489  0.5434  0.1694
 6173TIP3    H239935   1.231   3.921  14.888 -1.8443  1.3932  0.4010
 6174TIP3   OH239936   5.968   2.962   3.918  0.1205 -0.1665  0.2614
 6174TIP3    H139937   6.016   2.990   3.840 -0.3894 -1.2279 -0.4569
 6174TIP3    H239938   6.032   2.913   3.969  0.0698 -0.7298 -0.2114
 6175TIP3   OH239939   6.570   3.208  11.762 -0.7364 -0.5772  0.1884
 6175TIP3    H139940   6.568   3.281  11.700 -2.8495 -1.2825 -0.6511
 6175TIP3    H239941   6.498   3.225  11.822  0.6996 -0.3968  1.9497
 6176TIP3   OH239942   4.563   1.489   4.900  0.5894 -0.4016  0.7364
 6176TIP3    H139943   4.592   1.531   4.981  1.4897  2.0515 -0.7532
 6176TIP3    H239944   4.492   1.544   4.868  0.4449 -1.1698 -0.3109
 6177TIP3   OH239945   2.978   1.571  12.432 -0.0017 -0.2216  0.6154
 6177TIP3    H139946   2.991   1.666  12.439 -2.1829  0.0794  1.3595
 6177TIP3    H239947   3.052   1.533  12.479  2.4578  0.9572 -2.0230
 6178TIP3   OH239948   4.912   2.901  10.434 -0.2467  0.6219  0.2325
 6178TIP3    H139949   4.940   2.831  10.493  0.5763 -0.3454 -1.2179
 6178TIP3    H239950   4.834   2.939  10.475  0.3724  0.0784  1.9595
 6179TIP3   OH239951   2.616   0.237  15.835  0.5188  0.3245 -0.1707
 6179TIP3    H139952   2.621   0.314  15.778  2.7706 -0.2047 -0.8043
 6179TIP3    H239953   2.660   0.168  15.785 -1.8575 -1.5873  0.1571
 6180TIP3   OH239954   2.359   0.719  11.112  0.4158  0.1224 -0.1633
 6180TIP3    H139955   2.265   0.709  11.125  0.7784 -1.6079  1.5332
 6180TIP3    H239956   2.393   0.630  11.107  2.0003  0.7031 -0.6485
 6181TIP3   OH239957   0.264   4.932   3.680  0.4993 -0.2240  0.7010
 6181TIP3    H139958   0.358   4.910   3.675  0.2678 -1.1368  0.0452
 6181TIP3    H239959   0.229   4.872   3.745  0.1610 -0.7132  0.0834
 6182TIP3   OH239960   2.712   1.281  14.544 -0.6878  0.0016  0.4404
 6182TIP3    H139961   2.681   1.366  14.513 -0.2435  0.5120  1.3517
 6182TIP3    H239962   2.802   1.274  14.510 -0.9719 -0.4430 -0.2481
 6183TIP3   OH239963   1.282   4.306  13.067 -0.6045  0.7774 -0.5545
 6183TIP3    H139964   1.357   4.366  13.069  0.1194 -0.1207  1.8422
 6183TIP3    H239965   1.241   4.316  13.153 -2.1679 -0.0851 -1.1668
 6184TIP3   OH239966   0.922   0.141   2.813  0.0583  0.3014  0.4676
 6184TIP3    H139967   0.993   0.155   2.751 -0.0173 -1.8164 -0.1661
 6184TIP3    H239968   0.864   0.079   2.769 -2.7072  2.6101  0.5724
 6185TIP3   OH239969   5.857   4.293  13.744 -0.0529 -0.6903 -0.0724
 6185TIP3    H139970   5.936   4.298  13.797  0.6242 -1.8602 -0.9313
 6185TIP3    H239971   5.792   4.252  13.800  0.2775 -0.7663  0.2565
 6186TIP3   OH239972   6.160   4.816  15.358 -0.0183 -0.2511  0.2062
 6186TIP3    H139973   6.157   4.819  15.262 -1.4319  0.4389  0.2349
 6186TIP3    H239974   6.070   4.836  15.385  0.2695 -0.8208  1.6746
 6187TIP3   OH239975   6.661   2.659  15.973 -0.1314 -0.0799  0.1394
 6187TIP3    H139976   6.617   2.726  16.024 -3.0945 -0.4677 -1.6183
 6187TIP3    H239977   6.596   2.588  15.967  1.8974 -2.0090 -0.2229
 6188TIP3   OH239978   5.615   0.619  15.632 -0.3667 -0.1742  0.5858
 6188TIP3    H139979   5.698   0.590  15.671  2.1209  1.3350 -3.0516
 6188TIP3    H239980   5.587   0.545  15.578  0.2717  0.3287 -0.4682
 6189TIP3   OH239981   1.724   3.545  15.955 -0.1193  0.7111  0.3211
 6189TIP3    H139982   1.698   3.589  16.036  0.2021  2.7334 -0.6162
 6189TIP3    H239983   1.799   3.595  15.923 -0.2999  0.0334 -1.2729
 6190TIP3   OH239984   5.420   0.378   5.645  0.1705  0.1359 -0.3805
 6190TIP3    H139985   5.478   0.427   5.704 -0.8331 -1.0235  1.6683
 6190TIP3    H239986   5.345   0.354   5.699 -0.4426 -1.6808 -1.9285
 6191TIP3   OH239987   3.386   1.689   4.686  0.0574 -0.1505 -0.3391
 6191TIP3    H139988   3.426   1.758   4.632 -0.5243 -0.4261 -1.1288
 6191TIP3    H239989   3.447   1.616   4.679  0.7115  0.2908  0.5551
 6192TIP3   OH239990   3.244   0.521  13.863  0.2221 -0.5961 -0.1199
 6192TIP3    H139991   3.296   0.462  13.809 -1.3365  0.1100 -2.5717
 6192TIP3    H239992   3.182   0.463  13.908  1.3649 -1.1747  0.7585
 6193TIP3   OH239993   3.056   2.729   3.741  0.4862  0.0105 -0.3325
 6193TIP3    H139994   3.046   2.699   3.831 -1.5557  1.1489 -0.1437
 6193TIP3    H239995   2.999   2.671   3.690  2.1019 -1.0405 -1.0526
 6194TIP3   OH239996   1.675   1.235   3.690  0.1881  0.0109 -0.4760
 6194TIP3    H139997   1.701   1.145   3.670 -2.3101 -1.0146  0.5270
 6194TIP3    H239998   1.748   1.270   3.742  1.3065 -1.3338 -1.0865
 6195TIP3   OH239999   3.827   6.265   2.668  0.3155 -0.5987 -0.1306
 6195TIP3    H140000   3.808   6.281   2.576  0.5089 -0.8174 -0.2071
 6195TIP3    H240001   3.919   6.240   2.670  0.0917 -1.4479  0.0178
 6196TIP3   OH240002   1.127   5.426  11.441  0.2995 -0.0761  0.0234
 6196TIP3    H140003   1.174   5.496  11.396  0.0843  0.7906  1.1258
 6196TIP3    H240004   1.177   5.411  11.521  0.7112 -1.6473 -0.4826
 6197TIP3   OH240005   6.760   3.076  14.221 -0.1532  0.3862  0.0140
 6197TIP3    H140006   6.718   3.161  14.235  0.4173  0.6130  0.3826
 6197TIP3    H240007   6.693   3.012  14.247 -0.0271  0.7579  1.3204
 6198TIP3   OH240008   5.484   6.090  10.709  0.5846 -0.0336  0.2092
 6198TIP3    H140009   5.522   6.164  10.757 -0.8607  1.5562 -0.9582
 6198TIP3    H240010   5.533   6.088  10.626  1.0157 -0.7776  0.4799
 6199TIP3   OH240011   2.964   2.621   5.892 -0.2643 -0.3562 -0.9170
 6199TIP3    H140012   2.902   2.674   5.943  1.2883  0.4251  0.2390
 6199TIP3    H240013   2.995   2.679   5.823  2.4584  0.8740  1.1406
 6200TIP3   OH240014   1.126   2.191   4.617  0.2752 -0.3628 -0.1427
 6200TIP3    H140015   1.037   2.226   4.617  0.3823 -0.0702 -0.8208
 6200TIP3    H240016   1.132   2.144   4.534  1.1776  0.7343 -0.7190
 6201TIP3   OH240017   3.506   6.562   3.386 -0.0390 -0.4102 -0.3613
 6201TIP3    H140018   3.578   6.499   3.393 -1.0103 -1.7707 -1.9236
 6201TIP3    H240019   3.532   6.620   3.315  0.8170  0.9875  1.0236
 6202TIP3   OH240020   0.713   2.879  11.562 -0.4365  0.0251  0.2558
 6202TIP3    H140021   0.694   2.846  11.474  0.2750  0.3025 -0.0043
 6202TIP3    H240022   0.634   2.859  11.612 -2.3322  2.9143 -1.2699
 6203TIP3   OH240023   6.745   4.479  13.755 -0.1734 -0.9155  0.7219
 6203TIP3    H140024   6.678   4.529  13.709  0.1198  0.3137  1.5814
 6203TIP3    H240025   6.805   4.545  13.789  0.5532 -1.8962  1.3855
 6204TIP3   OH240026   5.378   1.287  15.556  0.2657  0.0184  0.1795
 6204TIP3    H140027   5.320   1.287  15.632 -1.0428 -0.7393 -0.7619
 6204TIP3    H240028   5.395   1.194  15.540  2.4125  0.2388  0.8796
 6205TIP3   OH240029   2.157   6.735   1.102  0.2914 -0.2392  0.5944
 6205TIP3    H140030   2.111   6.674   1.044 -1.4772  1.4003  0.1560
 6205TIP3    H240031   2.250   6.718   1.087 -0.1304 -0.9686 -1.5294
 6206TIP3   OH240032   4.387   0.067  15.826  0.0613 -0.1648 -0.5653
 6206TIP3    H140033   4.292   0.063  15.812  0.2272  1.9436 -2.8951
 6206TIP3    H240034   4.397   0.060  15.921 -2.4744  0.1220 -0.2111
 6207TIP3   OH240035   1.019   4.949   0.222  0.3854  0.4707 -0.1027
 6207TIP3    H140036   1.103   4.984   0.194  0.0565  0.3330 -1.3234
 6207TIP3    H240037   0.992   4.890   0.151  0.4459 -1.5025  1.4063
 6208TIP3   OH240038   1.098   2.192   5.813  0.2215  0.4397  0.0147
 6208TIP3    H140039   1.154   2.188   5.890 -0.5275  1.8897  0.6712
 6208TIP3    H240040   1.154   2.229   5.744  0.7373 -0.3688 -0.0152
 6209TIP3   OH240041   3.784   5.851   4.550  0.1230  0.1702  0.2433
 6209TIP3    H140042   3.744   5.901   4.621 -1.4181 -0.6333 -0.0213
 6209TIP3    H240043   3.873   5.884   4.545 -0.3489  1.6875  1.1873
 6210TIP3   OH240044   2.767   1.264   4.364  0.0518 -0.2688 -0.1628
 6210TIP3    H140045   2.816   1.345   4.378  0.1292 -0.3118 -0.1803
 6210TIP3    H240046   2.732   1.272   4.275  0.1963 -0.3248 -0.2251
 6211TIP3   OH240047   5.542   0.091  13.761 -0.2769 -0.1587 -0.0976
 6211TIP3    H140048   5.453   0.106  13.730 -0.0681  1.1335 -0.1342
 6211TIP3    H240049   5.545  -0.002  13.784 -1.3547 -0.4293 -0.9782
 6212TIP3   OH240050   0.901   4.519   3.399 -0.0353  0.5702 -0.4012
 6212TIP3    H140051   0.849   4.586   3.443  1.2853  0.7190  1.0356
 6212TIP3    H240052   0.867   4.436   3.433  0.6837  0.6699  0.6148
 6213TIP3   OH240053   2.663   5.067   4.983 -0.5102 -0.9964  0.0502
 6213TIP3    H140054   2.666   5.011   4.905  0.4709 -1.8485  0.6763
 6213TIP3    H240055   2.729   5.030   5.041  0.1624  0.8356  0.4884
 6214TIP3   OH240056   2.144   3.013  13.068 -0.8339  0.5817 -0.1444
 6214TIP3    H140057   2.108   2.986  12.984 -2.0150  2.2133 -0.2201
 6214TIP3    H240058   2.223   3.062  13.045 -2.1585  2.6613 -0.5081
 6215TIP3   OH240059   2.737   5.813   1.169 -0.4275  0.0174 -0.0205
 6215TIP3    H140060   2.700   5.885   1.221  0.0904  1.2183 -1.2490
 6215TIP3    H240061   2.812   5.783   1.220 -1.2499 -0.3542  0.9983
 6216TIP3   OH240062   0.775   6.072   1.855  0.0725  0.0753 -0.5582
 6216TIP3    H140063   0.863   6.107   1.844  0.5823 -0.5061  1.2632
 6216TIP3    H240064   0.788   5.978   1.868 -0.9875 -0.3093 -2.0196
 6217TIP3   OH240065   2.206   2.369   3.400 -0.7554 -0.1779  0.1235
 6217TIP3    H140066   2.189   2.371   3.306 -0.2252 -2.1935 -0.0625
 6217TIP3    H240067   2.279   2.308   3.410  1.7266  2.7243  1.5377
 6218TIP3   OH240068   4.453   2.517  15.991 -0.1247  0.2499  0.3568
 6218TIP3    H140069   4.400   2.445  15.957  0.1366  0.2544 -0.0699
 6218TIP3    H240070   4.392   2.591  15.994 -0.2599  0.1430  0.3026
 6219TIP3   OH240071   5.512   0.653   0.682  0.6374 -0.4844 -0.7502
 6219TIP3    H140072   5.551   0.738   0.705 -0.9861  0.2732 -0.5868
 6219TIP3    H240073   5.441   0.642   0.746  0.4209 -1.6693 -1.1680
 6220TIP3   OH240074   2.972   5.455   4.342 -0.7018  0.4635  0.1648
 6220TIP3    H140075   3.048   5.452   4.401 -0.9278  1.5132  0.5168
 6220TIP3    H240076   3.009   5.444   4.255 -0.1861  0.5804  0.3658
 6221TIP3   OH240077   4.518   4.186   3.279 -0.2404  0.3573 -0.3583
 6221TIP3    H140078   4.518   4.246   3.204 -2.5057  0.7746 -0.1259
 6221TIP3    H240079   4.569   4.231   3.346  0.5693  0.6504 -1.1522
 6222TIP3   OH240080   3.889   3.597   3.606 -0.0495  0.6207 -0.2914
 6222TIP3    H140081   3.952   3.647   3.554 -0.2390 -0.7437 -1.9333
 6222TIP3    H240082   3.943   3.532   3.653  0.1530  2.0251  1.5297
 6223TIP3   OH240083   4.112   4.030   3.525 -0.5745 -0.3287  0.5787
 6223TIP3    H140084   4.124   3.972   3.601 -2.6291  2.0924  2.9525
 6223TIP3    H240085   4.186   4.090   3.529 -0.5377 -0.3710  0.5193
 6224TIP3   OH240086   3.609   2.510  14.997  0.2848 -0.6282  0.1279
 6224TIP3    H140087   3.554   2.464  15.060 -0.4050  1.3876  1.0802
 6224TIP3    H240088   3.551   2.576  14.957  1.5820  0.4992  0.0075
 6225TIP3   OH240089   1.757   1.577   3.641  0.1827 -0.4911 -0.5658
 6225TIP3    H140090   1.759   1.491   3.684 -1.9160 -0.2639  0.1389
 6225TIP3    H240091   1.845   1.589   3.607  1.3915 -1.6147  1.9166
 6226TIP3   OH240092   6.375   0.821   2.673 -0.1277  0.4130  0.1031
 6226TIP3    H140093   6.401   0.877   2.600 -2.0569  0.4049 -0.6633
 6226TIP3    H240094   6.449   0.763   2.687  1.0149  1.6515 -0.6014
 6227TIP3   OH240095   5.540   1.220  15.145 -0.2582  0.2854  0.9628
 6227TIP3    H140096   5.569   1.274  15.218 -2.0812  0.9281  1.2802
 6227TIP3    H240097   5.454   1.255  15.122 -0.6256 -1.2155 -0.1376
 6228TIP3   OH240098   4.921   2.802  11.778 -0.2412  0.4656  0.4956
 6228TIP3    H140099   4.957   2.793  11.690 -1.1727  1.9378 -0.0684
 6228TIP3    H240100   4.838   2.755  11.775  0.3943 -0.7335  1.0453
 6229TIP3   OH240101   2.210   3.719  15.759  0.8088 -0.3671  0.3778
 6229TIP3    H140102   2.198   3.624  15.753 -0.6515 -0.1046 -1.9795
 6229TIP3    H240103   2.257   3.732  15.842  0.0878 -3.0302  1.2958
 6230TIP3   OH240104   6.136   3.353   0.585 -0.0809  0.1646 -0.0041
 6230TIP3    H140105   6.227   3.347   0.616  0.0482  1.5121 -0.0563
 6230TIP3    H240106   6.117   3.267   0.549  1.5355  0.1455 -0.9082
 6231TIP3   OH240107   3.009   4.629  16.354  0.6259 -0.3981  0.7713
 6231TIP3    H140108   3.059   4.549  16.333  1.7082  0.8842 -2.0845
 6231TIP3    H240109   3.069   4.700  16.333 -2.2737  1.2644 -3.0516
 6232TIP3   OH240110   0.521   1.010  14.380 -0.1476  0.4893 -0.0160
 6232TIP3    H140111   0.515   0.920  14.346  0.5121 -0.4643  2.2201
 6232TIP3    H240112   0.440   1.021  14.431  0.3786  0.6571  0.7986
 6233TIP3   OH240113   4.816   3.071  15.351  0.6523 -0.4629  0.1685
 6233TIP3    H140114   4.763   3.057  15.272  0.7594  0.5894 -0.1042
 6233TIP3    H240115   4.768   3.137  15.401  0.7776 -0.8508  0.8137
 6234TIP3   OH240116   4.073   4.797   0.380  0.2594  0.3319 -0.3539
 6234TIP3    H140117   3.992   4.746   0.385  1.1266 -1.3396 -1.9246
 6234TIP3    H240118   4.127   4.764   0.452  0.7071 -0.8440 -1.1948
 6235TIP3   OH240119   0.550   6.211  12.242  0.7806  0.3224  0.2719
 6235TIP3    H140120   0.528   6.272  12.312  0.4189  0.4922  0.0118
 6235TIP3    H240121   0.507   6.129  12.266 -1.3027  0.9946 -0.8794
 6236TIP3   OH240122   4.594   4.447  14.516 -0.0902 -0.4324 -0.0383
 6236TIP3    H140123   4.643   4.508  14.572 -0.9624  1.4658 -1.2704
 6236TIP3    H240124   4.661   4.407  14.460  0.3669  0.2097  0.0385
 6237TIP3   OH240125   4.497   6.117  11.396 -0.2006 -0.1271  0.0732
 6237TIP3    H140126   4.584   6.155  11.402 -0.9347  1.6382  0.1843
 6237TIP3    H240127   4.466   6.112  11.486 -0.7630  0.6502 -0.0653
 6238TIP3   OH240128   4.339   1.351  12.556 -0.5892  0.0446 -0.3967
 6238TIP3    H140129   4.250   1.372  12.527 -0.2497  0.0450 -1.4569
 6238TIP3    H240130   4.373   1.292  12.489  0.7865  1.3322 -0.8797
 6239TIP3   OH240131   5.590   5.458  15.059 -0.9517 -0.2990 -0.1253
 6239TIP3    H140132   5.672   5.441  15.105 -0.6213 -1.5603 -1.0964
 6239TIP3    H240133   5.613   5.448  14.966 -2.1479 -0.4813 -0.4163
 6240TIP3   OH240134   6.773   2.839  13.091 -0.5213 -0.3421  0.1193
 6240TIP3    H140135   6.826   2.796  13.025  0.7829  0.7754  0.3920
 6240TIP3    H240136   6.831   2.845  13.168 -0.5229  2.1126 -0.0050
 6241TIP3   OH240137   4.742   0.310  15.932 -0.2934  0.1072  0.1820
 6241TIP3    H140138   4.649   0.327  15.947 -0.3992  1.6050 -1.8487
 6241TIP3    H240139   4.787   0.381  15.978 -0.3603  1.4106 -1.6806
 6242TIP3   OH240140   4.503   0.910   2.686  0.4230 -0.0964 -0.0240
 6242TIP3    H140141   4.592   0.890   2.716 -0.3965 -3.4279  0.6269
 6242TIP3    H240142   4.446   0.861   2.745 -1.7936  0.8031 -1.2897
 6243TIP3   OH240143   2.101   3.603  11.554  0.3249 -0.0898  0.1634
 6243TIP3    H140144   2.012   3.576  11.529 -0.0561  1.6143 -0.4792
 6243TIP3    H240145   2.149   3.521  11.563 -0.1314 -1.0170 -3.8351
 6244TIP3   OH240146   2.793   3.156  12.438 -0.6253 -0.3540  0.4550
 6244TIP3    H140147   2.718   3.182  12.491 -0.4995  1.0131 -0.0009
 6244TIP3    H240148   2.806   3.063  12.459 -1.9149 -0.4012  1.1600
 6245TIP3   OH240149   0.867   4.027   4.997 -0.3334 -0.5286  0.1278
 6245TIP3    H140150   0.868   3.948   4.944 -0.2456 -0.3092 -0.1996
 6245TIP3    H240151   0.867   3.995   5.087  1.6070 -0.8946  0.0322
 6246TIP3   OH240152   1.687   4.372   0.584  0.1831  0.1993 -0.8862
 6246TIP3    H140153   1.722   4.410   0.665  0.0833  0.4504 -0.9584
 6246TIP3    H240154   1.719   4.282   0.583 -1.0560 -0.2830  0.1915
 6247TIP3   OH240155   4.642   2.762   1.512 -0.1058  0.4985  0.6532
 6247TIP3    H140156   4.594   2.831   1.467  0.4526 -0.1051 -0.9301
 6247TIP3    H240157   4.727   2.760   1.469  0.8939  0.6509  2.5165
 6248TIP3   OH240158   0.594   2.704   4.065  0.8195 -0.0075  0.0966
 6248TIP3    H140159   0.541   2.640   4.017  2.1694 -2.0215  1.1289
 6248TIP3    H240160   0.639   2.753   3.997  0.2201 -0.5683 -0.7335
 6249TIP3   OH240161   3.218   2.342   0.410  0.6217  0.2862  0.2085
 6249TIP3    H140162   3.256   2.255   0.424  0.5005  0.0737 -0.7104
 6249TIP3    H240163   3.274   2.400   0.460 -1.1754 -0.6336  3.5795
 6250TIP3   OH240164   2.901   5.611  15.148  0.4252  0.1311 -0.3667
 6250TIP3    H140165   2.811   5.588  15.171  0.1684  1.1065 -0.3577
 6250TIP3    H240166   2.953   5.537  15.178 -0.3615 -0.3999 -0.2788
 6251TIP3   OH240167   1.264   0.319  16.979 -0.3772  0.0360 -0.0416
 6251TIP3    H140168   1.316   0.338  16.901 -0.6001  2.6156  0.3492
 6251TIP3    H240169   1.175   0.345  16.956 -0.4163  0.9894  1.1048
 6252TIP3   OH240170   1.975   5.954  13.362 -0.4222  0.1674 -0.2264
 6252TIP3    H140171   1.914   6.024  13.385 -2.4840 -1.3710 -0.6983
 6252TIP3    H240172   1.942   5.921  13.278  2.1150  0.3590 -1.3809
 6253TIP3   OH240173   4.894   2.515  15.193  0.2370 -0.5004 -0.5249
 6253TIP3    H140174   4.902   2.494  15.286 -2.2681 -1.2002 -0.3915
 6253TIP3    H240175   4.945   2.447  15.149  1.1569 -0.3652  0.2850
 6254TIP3   OH240176   4.253   2.316  12.188  0.3266 -0.1710 -0.0829
 6254TIP3    H140177   4.197   2.245  12.220 -0.8150  0.2588 -1.0576
 6254TIP3    H240178   4.241   2.387  12.251  1.7629 -0.9181  1.1071
 6255TIP3   OH240179   4.217   2.099   2.788  0.0126  0.0877  0.1226
 6255TIP3    H140180   4.172   2.177   2.757 -3.1919 -0.5572  2.5656
 6255TIP3    H240181   4.232   2.116   2.881  0.7475 -1.5589  0.3354
 6256TIP3   OH240182   0.968   2.570   5.201  0.2826 -0.4075  0.6911
 6256TIP3    H140183   0.963   2.621   5.282  0.7597  0.6225  0.0881
 6256TIP3    H240184   1.024   2.622   5.143  0.0621 -1.1958 -0.2582
 6257TIP3   OH240185   1.928   5.307   4.037 -0.4742 -0.0878  0.0338
 6257TIP3    H140186   1.840   5.336   4.012  0.3721 -0.3284 -3.8667
 6257TIP3    H240187   1.981   5.386   4.035 -0.1155 -0.3299 -0.3829
 6258TIP3   OH240188   6.608   6.148   1.919 -0.1274 -0.2048 -0.0335
 6258TIP3    H140189   6.582   6.073   1.866  1.3719 -0.8641  0.1235
 6258TIP3    H240190   6.701   6.160   1.900  0.4436 -0.4064  2.3684
 6259TIP3   OH240191   4.015   5.197   4.871 -0.0627  0.1599 -0.6129
 6259TIP3    H140192   3.972   5.234   4.948  0.1736 -1.4970  0.3673
 6259TIP3    H240193   4.025   5.271   4.811 -0.2648  1.4941  0.9309
 6260TIP3   OH240194   4.019   0.588   0.943  0.5301 -0.2740 -0.0731
 6260TIP3    H140195   3.967   0.633   0.876 -0.6542 -0.9701  0.3462
 6260TIP3    H240196   4.108   0.617   0.927  0.0907  0.5798 -1.1362
 6261TIP3   OH240197   1.270   4.364  10.925  0.6285 -1.0542  1.1249
 6261TIP3    H140198   1.211   4.288  10.919  0.6769 -1.0006 -0.3880
 6261TIP3    H240199   1.334   4.350  10.856 -0.1807  1.0460 -0.1360
 6262TIP3   OH240200   4.005   6.445   2.511 -0.0156 -0.0525 -0.4402
 6262TIP3    H140201   3.955   6.524   2.533 -1.3301 -0.7785 -0.7137
 6262TIP3    H240202   3.948   6.395   2.453  0.8471 -1.1462 -0.3968
 6263TIP3   OH240203   5.276   3.207  15.865  0.2586  0.3808 -0.2001
 6263TIP3    H140204   5.363   3.220  15.827  0.7447  1.1570  1.1221
 6263TIP3    H240205   5.247   3.295  15.889 -0.4899  0.0203  0.2641
 6264TIP3   OH240206   6.623   6.159  15.292 -0.1500 -0.2981 -0.1217
 6264TIP3    H140207   6.624   6.094  15.362  2.6883  0.3079  0.5120
 6264TIP3    H240208   6.578   6.234  15.329  1.9236  0.2732  1.3943
 6265TIP3   OH240209   3.724   3.594  16.983  0.0328  0.3877  0.2539
 6265TIP3    H140210   3.691   3.668  16.932  0.5651  0.5417  0.1327
 6265TIP3    H240211   3.817   3.613  16.996  0.0910 -0.0783  0.5387
 6266TIP3   OH240212   2.185   3.188  12.065  0.1961 -0.4186 -0.3107
 6266TIP3    H140213   2.143   3.121  12.119  2.4456 -0.5062  1.4993
 6266TIP3    H240214   2.268   3.149  12.038 -0.2566  0.1559 -2.7781
 6267TIP3   OH240215   0.098   4.576   4.389 -0.2080 -0.2010  0.1951
 6267TIP3    H140216   0.074   4.668   4.378  0.0827 -0.1402  0.0710
 6267TIP3    H240217   0.084   4.559   4.482  0.6345  0.2252  0.4121
 6268TIP3   OH240218   2.178   0.326  14.145  0.3119  0.5761  0.1131
 6268TIP3    H140219   2.269   0.296  14.141 -0.1934 -0.9112 -1.2723
 6268TIP3    H240220   2.180   0.414  14.109  1.0976  0.1995 -0.8154
 6269TIP3   OH240221   1.770   1.376  17.017  0.8191  0.0092 -0.1785
 6269TIP3    H140222   1.765   1.470  17.037  1.2083  0.0577 -0.3001
 6269TIP3    H240223   1.817   1.372  16.934  1.3483 -0.3276  0.1374
 6270TIP3   OH240224   4.031   4.417  11.973 -0.0494  0.2064 -0.2047
 6270TIP3    H140225   4.098   4.406  11.905 -0.3731  1.0530 -0.6763
 6270TIP3    H240226   3.949   4.400  11.928 -0.1806 -0.5360  0.3034
 6271TIP3   OH240227   6.144   3.687   5.550 -0.1876 -0.4967 -0.8007
 6271TIP3    H140228   6.143   3.760   5.489  0.7118 -0.5466 -0.8943
 6271TIP3    H240229   6.217   3.706   5.609 -1.5594 -0.0138  0.8139
 6272TIP3   OH240230   1.503   1.136   3.447 -0.0061 -0.0949  0.4325
 6272TIP3    H140231   1.468   1.102   3.529 -0.2015  0.4846  0.5963
 6272TIP3    H240232   1.493   1.231   3.455 -0.2704 -0.0516 -0.3697
 6273TIP3   OH240233   4.426   0.310  10.916 -0.6306  0.4479  0.3112
 6273TIP3    H140234   4.386   0.242  10.863  1.5383 -0.3633 -0.3871
 6273TIP3    H240235   4.375   0.389  10.897 -0.0233  0.1895 -2.9352
 6274TIP3   OH240236   3.150   2.862  15.897 -0.4552 -0.5343  0.0775
 6274TIP3    H140237   3.198   2.800  15.952 -0.2156  0.5046  1.1001
 6274TIP3    H240238   3.160   2.946  15.943 -1.6795  0.0478 -0.6847
 6275TIP3   OH240239   1.612   4.985  12.811 -0.5023  0.1768 -0.3171
 6275TIP3    H140240   1.653   5.001  12.897 -2.5848  0.4429  0.6915
 6275TIP3    H240241   1.546   5.054  12.803 -1.6924 -1.0253 -1.2422
 6276TIP3   OH240242   2.005   2.623  12.266  0.3861  0.4087  0.3017
 6276TIP3    H140243   2.093   2.591  12.243  0.4295 -2.2586  3.4204
 6276TIP3    H240244   1.948   2.590  12.197  1.4343 -0.6821 -0.0794
 6277TIP3   OH240245   2.876   0.800   4.521 -0.1634 -0.2354 -0.0916
 6277TIP3    H140246   2.938   0.795   4.449 -0.3239  1.3666 -0.3817
 6277TIP3    H240247   2.886   0.889   4.555 -1.9680 -0.0861  0.1457
 6278TIP3   OH240248   0.947   1.239   2.791  0.0766  0.2213 -0.5847
 6278TIP3    H140249   0.937   1.190   2.873  0.3777  1.7897  0.4239
 6278TIP3    H240250   1.031   1.209   2.756  0.6143  0.5277  0.3954
 6279TIP3   OH240251   0.742   5.167   6.458  0.4548  0.2110 -0.4690
 6279TIP3    H140252   0.800   5.237   6.488  0.3083  1.0551 -2.0568
 6279TIP3    H240253   0.676   5.160   6.526  2.9787 -1.6085  2.0223
 6280TIP3   OH240254   1.912   1.372   1.910 -0.2675  0.0802 -0.6320
 6280TIP3    H140255   2.003   1.400   1.905 -0.5321  0.8819 -1.1943
 6280TIP3    H240256   1.887   1.356   1.819  0.2743 -3.4577 -0.2926
 6281TIP3   OH240257   3.587   2.866   5.711 -0.2421 -0.0990 -0.2300
 6281TIP3    H140258   3.516   2.929   5.701  0.7150  1.1748  0.6848
 6281TIP3    H240259   3.593   2.850   5.805 -0.8975 -2.1251 -0.4750
 6282TIP3   OH240260   2.044   2.818  11.197 -0.2351  0.0417  0.2923
 6282TIP3    H140261   2.006   2.777  11.120  1.5467 -0.2246 -0.4775
 6282TIP3    H240262   2.012   2.908  11.195  1.9721  0.8965 -2.3900
 6283TIP3   OH240263   6.551   5.268  15.258  0.1862 -0.8434 -0.0008
 6283TIP3    H140264   6.511   5.202  15.202 -1.3867 -0.3254  0.4722
 6283TIP3    H240265   6.623   5.303  15.205 -0.8754 -0.7827 -1.4749
 6284TIP3   OH240266   3.633   4.574  13.695  0.2012  0.1016  0.4325
 6284TIP3    H140267   3.576   4.604  13.624  0.1229 -0.1764  0.3758
 6284TIP3    H240268   3.698   4.518  13.652 -0.3438 -0.7410  0.6781
 6285TIP3   OH240269   4.981   0.983   5.445  0.1092  0.2333 -0.4437
 6285TIP3    H140270   4.896   1.023   5.465 -1.1467 -2.3630 -0.2771
 6285TIP3    H240271   5.040   1.023   5.509 -1.5574  0.1561  1.2463
 6286TIP3   OH240272   1.418   2.634   4.202 -0.2861 -0.2736 -0.3361
 6286TIP3    H140273   1.337   2.672   4.169 -1.2576 -0.4479  1.6858
 6286TIP3    H240274   1.458   2.703   4.255 -0.0730 -0.7788  0.1782
 6287TIP3   OH240275   3.847   3.245   4.238 -0.6456  0.9329 -0.1555
 6287TIP3    H140276   3.891   3.306   4.179 -2.6254  2.1654 -0.4392
 6287TIP3    H240277   3.855   3.160   4.195 -2.2724  1.8289 -2.3923
 6288TIP3   OH240278   2.716   1.925   2.383  0.2480  0.0108 -0.3669
 6288TIP3    H140279   2.764   2.008   2.376  0.9421 -0.3720 -0.2489
 6288TIP3    H240280   2.742   1.889   2.468  0.0877 -0.4079 -0.4930
 6289TIP3   OH240281   3.515   6.108   3.076  0.2237  0.0350 -0.1073
 6289TIP3    H140282   3.579   6.083   3.010 -0.3449  0.3986 -0.8024
 6289TIP3    H240283   3.523   6.203   3.083 -0.5169  0.1335 -0.4958
 6290TIP3   OH240284   2.846   2.149   6.581 -0.4396 -0.3148  0.3182
 6290TIP3    H140285   2.882   2.194   6.505  0.0808 -0.6190  0.3810
 6290TIP3    H240286   2.817   2.219   6.639 -1.9543 -0.0716 -0.6674
 6291TIP3   OH240287   1.185   1.155   3.921 -0.0938 -0.1642 -0.2682
 6291TIP3    H140288   1.139   1.072   3.933 -1.7506  0.5450 -1.5018
 6291TIP3    H240289   1.213   1.155   3.830  0.5813  0.3152 -0.0739
 6292TIP3   OH240290   4.731   2.102   2.570  0.1536  0.1356  0.3065
 6292TIP3    H140291   4.761   2.078   2.482 -0.2619 -0.0448  0.2078
 6292TIP3    H240292   4.651   2.153   2.554 -0.9978 -1.4664  0.6127
 6293TIP3   OH240293   2.300   0.433  10.843 -0.0951  0.1833 -0.2762
 6293TIP3    H140294   2.237   0.482  10.790  0.5954  0.4851 -0.8207
 6293TIP3    H240295   2.266   0.440  10.932 -0.0234  1.6517 -0.3431
 6294TIP3   OH240296   4.386   2.475  12.936 -0.1860  0.2698 -0.1637
 6294TIP3    H140297   4.405   2.405  12.999 -0.0787  0.0937 -0.3909
 6294TIP3    H240298   4.471   2.517  12.920 -0.0668 -0.2015 -0.8026
 6295TIP3   OH240299   1.726   5.561   4.205  0.3695 -0.0630  0.3467
 6295TIP3    H140300   1.682   5.519   4.131  3.0979 -3.2497  0.2946
 6295TIP3    H240301   1.773   5.635   4.166  0.2871 -0.5639 -0.7526
 6296TIP3   OH240302   2.861   1.325  11.227  0.0582 -0.2642  0.0269
 6296TIP3    H140303   2.782   1.275  11.207 -0.8780  1.1854 -0.0293
 6296TIP3    H240304   2.843   1.365  11.312 -0.4190  2.1913 -1.1319
 6297TIP3   OH240305   6.687   0.875  13.099 -0.0237  0.3273 -0.0101
 6297TIP3    H140306   6.627   0.887  13.026 -1.0630 -1.9531  0.3622
 6297TIP3    H240307   6.673   0.951  13.155 -1.5147  0.5483 -0.6439
 6298TIP3   OH240308   5.479   4.715   1.932 -0.0774 -0.3311 -0.5852
 6298TIP3    H140309   5.542   4.649   1.962 -0.2716 -0.4069 -0.3392
 6298TIP3    H240310   5.530   4.773   1.875  0.2938 -0.2055 -0.1331
 6299TIP3   OH240311   4.497   5.416  13.668 -0.1553  0.3225 -0.1398
 6299TIP3    H140312   4.592   5.414  13.654  0.0108  3.1764 -0.1671
 6299TIP3    H240313   4.459   5.393  13.584  0.5303  0.1580 -0.4120
 6300TIP3   OH240314   0.208   0.125   3.294  0.4384  0.6000 -0.0377
 6300TIP3    H140315   0.151   0.175   3.353  1.1054  0.1132  1.0525
 6300TIP3    H240316   0.273   0.189   3.264 -0.4029  1.0530 -0.9362
 6301TIP3   OH240317   3.671   2.292  16.756 -0.6250 -0.1162 -0.2093
 6301TIP3    H140318   3.720   2.339  16.824  0.6774 -0.9719 -0.5248
 6301TIP3    H240319   3.614   2.232  16.805 -0.5774  0.1233  0.1437
 6302TIP3   OH240320   3.516   0.398  16.103  0.6442 -0.0906  0.1926
 6302TIP3    H140321   3.582   0.467  16.090 -0.0988  0.3892 -1.2882
 6302TIP3    H240322   3.459   0.432  16.172  2.5150 -1.0052  2.3351
 6303TIP3   OH240323   4.436   1.175  11.912  0.0756  0.4459 -0.2010
 6303TIP3    H140324   4.457   1.124  11.834 -2.9382  1.1275 -1.5926
 6303TIP3    H240325   4.455   1.115  11.985  0.6594 -1.0910 -1.5400
 6304TIP3   OH240326   1.420   3.798   2.163 -0.0590 -0.4550 -0.0925
 6304TIP3    H140327   1.451   3.887   2.143 -0.0230 -0.4174  0.1281
 6304TIP3    H240328   1.500   3.746   2.168 -0.0808 -0.5021 -0.2314
 6305TIP3   OH240329   3.394   3.246  11.580  0.3854  0.3878  0.4597
 6305TIP3    H140330   3.457   3.255  11.509 -0.0439  4.2590  0.3760
 6305TIP3    H240331   3.445   3.208  11.652  2.3264  1.4650 -0.2620
 6306TIP3   OH240332   1.292   2.033  11.374  0.1429 -0.2061  0.3344
 6306TIP3    H140333   1.387   2.041  11.385  0.1147  1.0142 -0.1170
 6306TIP3    H240334   1.281   1.959  11.315  0.8427 -0.0724  0.0201
 6307TIP3   OH240335   5.390   0.807  10.838  0.1024 -0.1655 -0.2626
 6307TIP3    H140336   5.300   0.775  10.831  0.2059 -0.2153 -1.5228
 6307TIP3    H240337   5.380   0.900  10.858 -0.2020 -0.4836  1.1977
 6308TIP3   OH240338   4.845   6.088  12.584  0.3271 -0.1458 -0.3960
 6308TIP3    H140339   4.932   6.127  12.578 -0.6956  2.3939  0.0324
 6308TIP3    H240340   4.813   6.085  12.494  0.2471  0.4431 -0.3882
 6309TIP3   OH240341   4.656   4.239  12.102  0.1312 -0.2645  0.3297
 6309TIP3    H140342   4.585   4.186  12.138  1.1959 -1.5511  0.6334
 6309TIP3    H240343   4.660   4.212  12.010 -0.5075  0.6621  0.0185
 6310TIP3   OH240344   4.121   4.774  13.529  0.1150  0.5101  0.0114
 6310TIP3    H140345   4.136   4.695  13.477  0.7625  0.7646 -0.2036
 6310TIP3    H240346   4.027   4.792  13.519  0.4202  1.2435 -2.1084
 6311TIP3   OH240347   4.153   0.361  12.235 -0.3684 -0.8487 -0.3716
 6311TIP3    H140348   4.190   0.449  12.241  1.7578 -1.7896  2.2397
 6311TIP3    H240349   4.227   0.306  12.210 -1.5198 -2.0241 -1.3426
 6312TIP3   OH240350   5.731   6.148   0.663 -0.5577 -0.4989 -0.3034
 6312TIP3    H140351   5.746   6.220   0.602 -0.4848 -1.0604 -0.9545
 6312TIP3    H240352   5.797   6.082   0.639 -1.0183 -1.0331 -0.1110
 6313TIP3   OH240353   5.812   3.791  17.160  0.2334 -0.0384 -0.4007
 6313TIP3    H140354   5.823   3.793  17.065  0.2934  1.4275 -0.3801
 6313TIP3    H240355   5.797   3.882  17.185 -2.0678 -0.6458  0.7324
 6314TIP3   OH240356   5.353   3.288   3.015 -0.1382  0.3030  0.5359
 6314TIP3    H140357   5.439   3.276   3.057 -0.2472  1.2690  1.0686
 6314TIP3    H240358   5.371   3.342   2.939 -0.3568  1.0967  1.0345
 6315TIP3   OH240359   1.531   4.626  14.885 -0.5124  0.8490 -0.5264
 6315TIP3    H140360   1.593   4.553  14.892 -1.4881  0.0413  0.0700
 6315TIP3    H240361   1.566   4.681  14.815  0.9086  0.4653 -0.1611
 6316TIP3   OH240362   6.461   3.977  11.459  1.1784 -0.6700  0.5287
 6316TIP3    H140363   6.375   3.971  11.502  0.6234  1.2268 -0.2161
 6316TIP3    H240364   6.457   3.915  11.387  0.2234 -0.2285  0.1905
 6317TIP3   OH240365   0.227   5.044   2.112  0.3467 -0.4506  0.2764
 6317TIP3    H140366   0.273   4.969   2.150  0.1089  0.1568  1.8195
 6317TIP3    H240367   0.190   5.091   2.187 -2.1837 -0.4923 -0.8566
 6318TIP3   OH240368   3.686   0.454   3.684  0.0459  0.6299 -0.5139
 6318TIP3    H140369   3.635   0.455   3.765 -2.3111 -1.2190 -1.8065
 6318TIP3    H240370   3.660   0.533   3.638 -1.8634 -0.3044 -1.1687
 6319TIP3   OH240371   6.167   0.566   2.334 -0.1899 -0.0188  0.1948
 6319TIP3    H140372   6.187   0.653   2.370  0.5387 -0.2921  0.4789
 6319TIP3    H240373   6.138   0.515   2.410  0.7715 -0.4240  0.3084
 6320TIP3   OH240374   6.430   3.122  16.960  0.1889  0.2365 -0.4402
 6320TIP3    H140375   6.451   3.072  17.039  1.0699  0.9996 -0.1640
 6320TIP3    H240376   6.356   3.076  16.920  1.2082 -1.4972 -0.4122
 6321TIP3   OH240377   0.210   5.468   5.349  0.0583  0.2295 -0.8483
 6321TIP3    H140378   0.161   5.415   5.286 -0.3748 -1.1657  0.5950
 6321TIP3    H240379   0.158   5.547   5.359 -0.3430  0.0694 -1.5523
 6322TIP3   OH240380   0.530   1.521   2.765 -0.3441 -0.2387  0.1236
 6322TIP3    H140381   0.532   1.496   2.673  1.4755 -0.5314  0.2206
 6322TIP3    H240382   0.555   1.614   2.765 -0.0086 -0.3289  0.3493
 6323TIP3   OH240383   6.039   5.140   0.280  0.1214  0.2036 -0.4913
 6323TIP3    H140384   6.032   5.070   0.344 -0.6489  0.6508 -0.0606
 6323TIP3    H240385   6.063   5.097   0.198  4.1305 -0.0875  0.6518
 6324TIP3   OH240386   4.850   4.126  11.686  0.2515  0.1734 -0.0952
 6324TIP3    H140387   4.886   4.181  11.617  1.6171 -0.5600 -0.0107
 6324TIP3    H240388   4.812   4.051  11.639 -1.9412  1.2940 -0.2358
 6325TIP3   OH240389   3.184   1.893   0.032 -0.0294 -0.3746  0.2653
 6325TIP3    H140390   3.252   1.924   0.091 -0.6052 -0.8963  1.2347
 6325TIP3    H240391   3.188   1.797   0.039  0.2481 -0.4708 -0.9616
 6326TIP3   OH240392   1.049   3.352   0.457  0.0093 -0.2505 -0.2082
 6326TIP3    H140393   1.106   3.429   0.469 -1.2527  0.7004 -0.0511
 6326TIP3    H240394   1.011   3.364   0.370 -2.8941  1.2809  1.0846
 6327TIP3   OH240395   6.583   5.396   3.814 -0.6841 -0.2633 -0.2345
 6327TIP3    H140396   6.595   5.487   3.785  0.6701 -0.3441  0.0052
 6327TIP3    H240397   6.541   5.403   3.900 -0.4649  0.1398 -0.1600
 6328TIP3   OH240398   3.118   3.337   3.460  0.7989  0.0141  0.4671
 6328TIP3    H140399   3.187   3.280   3.492  0.0717 -1.1504  0.0422
 6328TIP3    H240400   3.147   3.425   3.482  1.2771 -0.5877  2.5054
 6329TIP3   OH240401   4.567   2.244  13.426  0.3155  0.2846 -0.6107
 6329TIP3    H140402   4.645   2.190  13.434  0.6751  1.0565  2.6004
 6329TIP3    H240403   4.591   2.312  13.363  1.5759 -0.5125 -1.0259
 6330TIP3   OH240404   4.147   3.408  12.528  0.1863  0.0104  0.0777
 6330TIP3    H140405   4.124   3.444  12.442  1.7019  0.4252 -0.1856
 6330TIP3    H240406   4.184   3.482  12.575  0.5351 -0.5114  0.6341
 6331TIP3   OH240407   3.679   4.233  14.501 -0.0114  0.2299 -0.5334
 6331TIP3    H140408   3.695   4.193  14.416  1.1952  0.1106 -0.2635
 6331TIP3    H240409   3.714   4.322  14.493 -0.9704  0.6216 -0.5279
 6332TIP3   OH240410   2.491   1.249  11.781 -0.3304 -0.1831  0.3421
 6332TIP3    H140411   2.469   1.253  11.874  0.2587  2.5357  0.4463
 6332TIP3    H240412   2.407   1.247  11.736 -0.6619  0.2993  0.9200
 6333TIP3   OH240413   6.517   3.484   5.169  0.8505 -0.2492 -0.1744
 6333TIP3    H140414   6.544   3.502   5.259 -1.2072 -1.7974  0.8538
 6333TIP3    H240415   6.529   3.389   5.159  0.2002 -0.2430 -1.2036
 6334TIP3   OH240416   1.747   3.849   5.438 -0.0803  0.1146 -0.0321
 6334TIP3    H140417   1.761   3.803   5.521  0.1049 -1.6304 -0.9877
 6334TIP3    H240418   1.654   3.839   5.420 -0.1842  0.7701  0.0888
 6335TIP3   OH240419   5.785   1.151   5.071  0.4282 -0.4957  0.2870
 6335TIP3    H140420   5.782   1.057   5.088 -0.4541 -0.4047  0.7223
 6335TIP3    H240421   5.699   1.171   5.035  0.8098  0.0536 -0.3427
 6336TIP3   OH240422   6.722   3.527   1.810 -0.8336 -0.4091 -0.1748
 6336TIP3    H140423   6.637   3.507   1.772 -0.7721 -1.1670  0.0655
 6336TIP3    H240424   6.782   3.466   1.768 -0.6989 -1.0000  0.8499
 6337TIP3   OH240425   5.471   2.713   5.803 -0.0934 -0.4122 -0.1630
 6337TIP3    H140426   5.488   2.759   5.884 -0.7264  1.8264 -1.2303
 6337TIP3    H240427   5.510   2.767   5.735 -0.9350 -1.3998 -1.4972
 6338TIP3   OH240428   0.704   4.511   3.612  0.9899  0.1489 -0.0516
 6338TIP3    H140429   0.742   4.598   3.596 -0.0183  0.9399  1.5705
 6338TIP3    H240430   0.657   4.520   3.695  2.5308 -2.4985  1.2533
 6339TIP3   OH240431   3.268   3.569   3.538  0.6769 -0.3511  0.2515
 6339TIP3    H140432   3.305   3.597   3.455  1.2511  1.9987  1.2183
 6339TIP3    H240433   3.344   3.556   3.595  0.2387  1.7839  1.4409
 6340TIP3   OH240434   3.374   1.338  16.331 -0.7985 -0.4002  0.4881
 6340TIP3    H140435   3.310   1.383  16.274  0.5007 -0.9247 -1.4718
 6340TIP3    H240436   3.452   1.392  16.326 -0.2258 -1.1979  0.6531
 6341TIP3   OH240437   0.168   4.537  14.014 -0.1690 -0.5727 -0.5324
 6341TIP3    H140438   0.227   4.462  14.004  1.1864  0.3848 -0.0829
 6341TIP3    H240439   0.157   4.571  13.926  0.3038 -0.5140 -0.5730
 6342TIP3   OH240440   0.871   2.475  11.145  0.7227 -0.4496 -0.0998
 6342TIP3    H140441   0.808   2.450  11.077 -0.6327 -0.2864  1.0454
 6342TIP3    H240442   0.928   2.399  11.155  0.1939 -0.9128 -0.5902
 6343TIP3   OH240443   5.644   2.059  13.645 -0.3189 -0.2188 -0.0515
 6343TIP3    H140444   5.583   2.009  13.590 -0.8429  0.5249 -0.1713
 6343TIP3    H240445   5.663   2.137  13.594  0.7358 -0.4292 -0.0014
 6344TIP3   OH240446   4.761   4.351   6.517 -0.3060 -0.5282 -0.3610
 6344TIP3    H140447   4.848   4.311   6.515  0.4471  1.0710 -1.5844
 6344TIP3    H240448   4.707   4.295   6.462  0.6243 -0.1269 -1.7168
 6345TIP3   OH240449   4.418   5.005  12.614  0.4038 -0.0478 -0.2332
 6345TIP3    H140450   4.423   5.051  12.530  0.7896  0.4803  0.0702
 6345TIP3    H240451   4.509   4.990  12.639  0.3343  0.9723  0.7082
 6346TIP3   OH240452   6.189   0.924   2.411  0.1117 -0.2501 -0.5424
 6346TIP3    H140453   6.116   0.974   2.374 -1.7588  1.0511  4.1836
 6346TIP3    H240454   6.148   0.861   2.470  2.7300  0.2902  2.0900
 6347TIP3   OH240455   4.595   1.078   2.122  0.3197 -0.5617  0.7910
 6347TIP3    H140456   4.682   1.073   2.162  1.6076  0.8488 -1.6148
 6347TIP3    H240457   4.594   1.006   2.058  0.0711 -0.0828  0.2425
 6348TIP3   OH240458   1.399   4.732   2.626  0.2809 -0.4066  0.3618
 6348TIP3    H140459   1.477   4.677   2.632 -0.9162 -2.1312  0.5686
 6348TIP3    H240460   1.359   4.727   2.713 -0.7093 -0.5352 -0.0915
 6349TIP3   OH240461   3.265   6.673  15.449 -0.2896  0.4085 -0.0804
 6349TIP3    H140462   3.257   6.579  15.431 -0.2608  0.5967 -1.1127
 6349TIP3    H240463   3.186   6.694  15.499 -0.8493  0.0580 -0.8046
 6350TIP3   OH240464   4.681   6.023  12.135 -0.0056  0.5622  0.8611
 6350TIP3    H140465   4.659   6.004  12.227 -0.8961  1.5394  0.8772
 6350TIP3    H240466   4.664   6.117  12.126  0.4075  0.5468 -0.2224
 6351TIP3   OH240467   6.755   1.972  16.785  0.0957 -0.8552  0.2936
 6351TIP3    H140468   6.680   1.946  16.839  0.2766  2.0770  2.2071
 6351TIP3    H240469   6.808   2.026  16.844  2.7803 -1.3140 -1.5572
 6352TIP3   OH240470   5.443   0.094   5.603  0.2658 -0.6338 -0.3919
 6352TIP3    H140471   5.355   0.059   5.592  0.2737 -1.5466  2.0130
 6352TIP3    H240472   5.432   0.189   5.592 -1.4174 -0.5143  1.7959
 6353TIP3   OH240473   4.192   4.999   6.769 -0.2207 -0.0529 -0.3826
 6353TIP3    H140474   4.192   4.936   6.841 -0.5090 -1.7454 -1.7844
 6353TIP3    H240475   4.133   4.960   6.704 -0.2904  1.6155 -1.3655
 6354TIP3   OH240476   3.412   2.127   6.101 -0.5862  0.0777  0.1861
 6354TIP3    H140477   3.396   2.066   6.029 -0.4079 -1.4142  1.3587
 6354TIP3    H240478   3.468   2.078   6.162 -0.5918  1.3538  1.2609
 6355TIP3   OH240479   5.450   0.680  13.593  0.3230  0.3983 -0.0154
 6355TIP3    H140480   5.394   0.728  13.654 -0.8814 -0.6655 -0.2472
 6355TIP3    H240481   5.459   0.738  13.518 -2.2102 -0.1814 -0.8733
 6356TIP3   OH240482   6.308   5.197   2.240  0.4739 -0.0731 -0.1176
 6356TIP3    H140483   6.279   5.284   2.269  1.9275  0.1553  0.7576
 6356TIP3    H240484   6.255   5.179   2.163 -0.5724  1.1480  0.2747
 6357TIP3   OH240485   1.582   3.264  14.703 -1.0293 -0.4652  0.2416
 6357TIP3    H140486   1.556   3.242  14.614 -1.5890 -1.1182  0.5590
 6357TIP3    H240487   1.610   3.180  14.741 -1.4939 -0.3260  0.9091
 6358TIP3   OH240488   4.175   0.186   4.190 -0.3750 -0.0619  0.0501
 6358TIP3    H140489   4.191   0.130   4.114 -2.5102  0.7309 -1.0499
 6358TIP3    H240490   4.261   0.194   4.232  1.2795  0.7921 -3.1763
 6359TIP3   OH240491   3.156   5.783  13.089 -0.3104  0.1469  0.2622
 6359TIP3    H140492   3.187   5.778  12.999  0.5376 -0.0315  0.5560
 6359TIP3    H240493   3.205   5.715  13.136  0.5513  1.3511  1.2127
 6360TIP3   OH240494   2.072   0.604  14.272  0.5183 -0.4890 -0.1915
 6360TIP3    H140495   2.087   0.671  14.206 -0.0846  0.7675  0.8965
 6360TIP3    H240496   2.153   0.604  14.324  1.3652 -2.1217 -1.4253
 6361TIP3   OH240497   0.634   2.663   3.665  0.1584  0.2475  0.7214
 6361TIP3    H140498   0.685   2.601   3.717 -1.3274 -0.6956  1.1242
 6361TIP3    H240499   0.560   2.611   3.631  0.4531  1.1012 -1.4096
 6362TIP3   OH240500   5.470   5.024  13.412 -0.7180  0.4865  0.2840
 6362TIP3    H140501   5.524   5.008  13.489  0.7743 -1.3893 -1.0647
 6362TIP3    H240502   5.510   5.101  13.370  2.9262 -2.3871 -2.1591
 6363TIP3   OH240503   3.568   3.116  12.603 -0.1645  0.4457  0.2456
 6363TIP3    H140504   3.592   3.197  12.648  2.1602  0.6416 -1.2128
 6363TIP3    H240505   3.636   3.053  12.627 -2.3657 -1.4460  2.0211
 6364TIP3   OH240506   1.460   1.931   5.035  0.3318  0.2444  0.0558
 6364TIP3    H140507   1.488   1.914   5.125 -1.8010 -0.8772  0.5935
 6364TIP3    H240508   1.387   1.993   5.044 -0.4761 -0.5395 -0.7712
 6365TIP3   OH240509   0.894   5.834   3.220 -0.2439 -0.3089 -0.2025
 6365TIP3    H140510   0.968   5.777   3.240  2.7324  2.6830 -1.7420
 6365TIP3    H240511   0.830   5.776   3.179  1.5693 -2.9014  0.3693
 6366TIP3   OH240512   6.767   2.291  16.405 -0.2816 -0.3569  0.4659
 6366TIP3    H140513   6.763   2.362  16.469  1.2978 -0.5742  0.8520
 6366TIP3    H240514   6.793   2.214  16.456  0.0755 -0.7465 -0.2880
 6367TIP3   OH240515   6.085   1.901  14.201  0.5133  0.4919  0.1371
 6367TIP3    H140516   6.115   1.924  14.113  0.2655  1.3626  0.2639
 6367TIP3    H240517   6.097   1.982  14.252 -1.3639  0.6744  0.3634
 6368TIP3   OH240518   3.257   3.024  14.171  0.2561 -0.4395  0.6698
 6368TIP3    H140519   3.251   3.120  14.171 -0.1989 -0.4658  1.2406
 6368TIP3    H240520   3.167   2.994  14.177  0.4776 -0.8944  1.9812
 6369TIP3   OH240521   3.795   5.510  15.209 -0.2346 -0.2218  0.7109
 6369TIP3    H140522   3.702   5.491  15.224 -0.6413 -0.6547 -1.7718
 6369TIP3    H240523   3.794   5.577  15.141  1.2707 -0.1822  0.7079
 6370TIP3   OH240524   3.674   2.010   2.434 -0.3857 -0.3631 -0.2976
 6370TIP3    H140525   3.700   1.938   2.491 -2.1575 -0.8772 -0.0774
 6370TIP3    H240526   3.749   2.023   2.376  0.9805 -0.6514  1.3073
 6371TIP3   OH240527   1.724   1.100  11.144  0.0663 -0.0248  0.5401
 6371TIP3    H140528   1.790   1.160  11.177  0.2266 -0.8018  1.7226
 6371TIP3    H240529   1.731   1.105  11.049  0.6413  1.1757  0.6341
 6372TIP3   OH240530   2.798   2.253   1.880  0.3675  0.0136  0.3996
 6372TIP3    H140531   2.771   2.249   1.972  1.2844  2.3106  0.8405
 6372TIP3    H240532   2.749   2.326   1.844  0.2072 -0.7072 -0.9078
 6373TIP3   OH240533   6.576   3.184  16.114 -0.3039 -0.2282  0.1317
 6373TIP3    H140534   6.484   3.209  16.112 -0.4985 -0.7584  1.5312
 6373TIP3    H240535   6.623   3.263  16.139 -0.3562  0.0613 -0.6535
 6374TIP3   OH240536   1.868   4.749   4.020  0.1387 -0.0003  0.2991
 6374TIP3    H140537   1.776   4.732   4.040  0.8924 -1.9378  2.4692
 6374TIP3    H240538   1.877   4.844   4.029 -1.5766  0.1996  0.2596
 6375TIP3   OH240539   5.677   4.313  15.849  0.2794 -0.0524  0.2265
 6375TIP3    H140540   5.632   4.259  15.785  1.3616  0.6103 -1.1368
 6375TIP3    H240541   5.614   4.323  15.921 -0.7020 -1.3567 -0.4236
 6376TIP3   OH240542   1.572   3.067   2.214  0.0913 -0.0729 -0.2260
 6376TIP3    H140543   1.486   3.031   2.194  0.5003 -0.8332 -0.6664
 6376TIP3    H240544   1.570   3.155   2.176 -1.3735  0.9502  2.0054
 6377TIP3   OH240545   1.895   6.182   4.493  0.1318  0.7378  0.3138
 6377TIP3    H140546   1.821   6.121   4.488  0.6169  0.1763 -0.2059
 6377TIP3    H240547   1.860   6.259   4.538 -0.9972  0.8007 -0.6065
 6378TIP3   OH240548   5.155   5.586  12.556 -0.6264 -0.1705  0.0209
 6378TIP3    H140549   5.225   5.642  12.522 -1.9901  1.7674  0.2476
 6378TIP3    H240550   5.139   5.619  12.644  0.4255 -2.8096  1.3073
 6379TIP3   OH240551   0.363   1.846   6.048  0.7490 -0.3761 -0.2076
 6379TIP3    H140552   0.378   1.847   6.142  0.8759  1.2745 -0.2184
 6379TIP3    H240553   0.408   1.925   6.015 -1.7413  0.7293 -1.2269
 6380TIP3   OH240554   6.305   2.810  11.374 -0.0834  0.2198 -0.8291
 6380TIP3    H140555   6.359   2.791  11.450  1.1014  0.5882 -1.5510
 6380TIP3    H240556   6.249   2.733  11.364  2.7395 -1.8350 -2.1272
 6381TIP3   OH240557   0.096   4.319  11.810 -0.1228 -0.3841 -0.8528
 6381TIP3    H140558   0.131   4.290  11.895  0.9608 -0.3943 -1.2938
 6381TIP3    H240559   0.157   4.285  11.745 -0.6518  0.0723 -1.6103
 6382TIP3   OH240560   2.861   5.736   3.889 -0.1657 -0.5204 -0.1524
 6382TIP3    H140561   2.772   5.755   3.857 -0.2217  0.3767  0.4738
 6382TIP3    H240562   2.890   5.819   3.928  0.6493 -1.0244  0.3420
 6383TIP3   OH240563   1.634   3.326  12.191  0.4488  0.4539 -0.0903
 6383TIP3    H140564   1.673   3.392  12.134  1.6396  1.8477  2.1856
 6383TIP3    H240565   1.625   3.370  12.275 -5.5598  0.1136 -0.0855
 6384TIP3   OH240566   0.116   2.758   1.953 -0.1028  0.0818  0.0971
 6384TIP3    H140567   0.065   2.796   2.025  0.3008  0.8672 -0.0234
 6384TIP3    H240568   0.202   2.741   1.990 -0.0367  0.0466 -0.0716
 6385TIP3   OH240569   4.279   4.570   4.069 -0.3573 -0.2402 -0.5075
 6385TIP3    H140570   4.264   4.616   4.152  0.6734 -1.9730  0.7215
 6385TIP3    H240571   4.374   4.578   4.054 -0.1719 -1.7556 -0.3341
 6386TIP3   OH240572   2.930   2.533  15.317  0.8608 -0.1384  0.2233
 6386TIP3    H140573   2.952   2.609  15.371  2.4612 -0.5698  0.2347
 6386TIP3    H240574   2.997   2.468  15.339 -0.3841 -1.5206  0.1130
 6387TIP3   OH240575   6.136   2.407  12.040  0.1737  0.3834 -0.3232
 6387TIP3    H140576   6.052   2.368  12.066  0.8510 -1.9821 -1.4582
 6387TIP3    H240577   6.135   2.404  11.945  1.4828  0.4808 -0.3523
 6388TIP3   OH240578   6.496   0.486  10.626 -0.0027 -0.1517 -0.4756
 6388TIP3    H140579   6.432   0.516  10.562 -0.5031  1.1510  0.5923
 6388TIP3    H240580   6.579   0.482  10.577 -0.4842  0.2330 -1.3415
 6389TIP3   OH240581   6.540   1.188   2.330  0.1925  0.4086  0.5221
 6389TIP3    H140582   6.485   1.262   2.355  0.0300  0.3670  0.2904
 6389TIP3    H240583   6.551   1.197   2.236  0.4300  0.3120  0.5415
 6390TIP3   OH240584   3.005   5.379   3.451  0.0568  0.3369 -0.0429
 6390TIP3    H140585   2.985   5.462   3.494 -2.2686 -0.3971  0.4526
 6390TIP3    H240586   2.977   5.391   3.360  2.1357  0.8914 -0.6542
 6391TIP3   OH240587   1.166   0.554  15.970 -0.4152  0.1353  0.4210
 6391TIP3    H140588   1.227   0.567  16.043 -0.1322  0.7690  0.0880
 6391TIP3    H240589   1.109   0.631  15.973 -0.4673  0.1130  0.0444
 6392TIP3   OH240590   2.689   3.887  16.431 -0.5171  0.1710  0.3433
 6392TIP3    H140591   2.676   3.838  16.349  0.3374  1.9993 -0.9436
 6392TIP3    H240592   2.783   3.880  16.449 -0.3333  1.5332 -0.0171
 6393TIP3   OH240593   4.941   1.961  11.712  0.3376  0.1224 -0.1151
 6393TIP3    H140594   4.943   1.882  11.657 -2.9600  0.9036 -1.5910
 6393TIP3    H240595   4.939   2.034  11.649 -0.3768  1.1966  1.1100
 6394TIP3   OH240596   1.686   3.183  15.865 -0.0575  0.1732 -0.1317
 6394TIP3    H140597   1.643   3.097  15.865  0.7452 -0.2989  1.9832
 6394TIP3    H240598   1.641   3.231  15.935 -0.1045  1.2726 -0.9063
 6395TIP3   OH240599   5.558   6.383   2.768 -0.1240 -0.1574  0.0493
 6395TIP3    H140600   5.596   6.333   2.696  1.5229 -2.1165  2.1448
 6395TIP3    H240601   5.609   6.464   2.771  2.2457 -1.6105  1.1578
 6396TIP3   OH240602   1.046   0.348  11.936  0.1380 -0.0696  0.0921
 6396TIP3    H140603   0.958   0.315  11.951  0.1739 -0.4887 -0.5487
 6396TIP3    H240604   1.039   0.442  11.948 -0.5872  0.0030 -0.7447
 6397TIP3   OH240605   1.356   5.615  11.440  0.0808  0.3359 -0.3498
 6397TIP3    H140606   1.445   5.599  11.407  0.3093 -0.1633  0.4888
 6397TIP3    H240607   1.342   5.709  11.426  0.4945  0.2964 -1.0733
 6398TIP3   OH240608   4.645   2.355  13.028  0.3935  0.3437  0.5599
 6398TIP3    H140609   4.697   2.277  13.046 -0.2215  0.2984  2.3614
 6398TIP3    H240610   4.676   2.386  12.943 -0.4436 -2.7728 -1.0415
 6399TIP3   OH240611   1.683   4.661  13.372 -0.1648 -0.3851  0.6164
 6399TIP3    H140612   1.732   4.618  13.442  1.2619  0.2280  0.0328
 6399TIP3    H240613   1.610   4.705  13.417  0.4958 -0.3286  1.6564
 6400TIP3   OH240614   4.785   6.630   4.159  0.4715 -0.3622 -0.2783
 6400TIP3    H140615   4.729   6.644   4.236  1.0074  0.7592 -0.0826
 6400TIP3    H240616   4.728   6.585   4.096 -0.6952  0.8185 -0.1056
 6401TIP3   OH240617   6.710   0.163   0.194  0.4382 -0.0967 -0.1357
 6401TIP3    H140618   6.788   0.136   0.146  0.1245 -0.7881 -0.2638
 6401TIP3    H240619   6.652   0.200   0.128  0.6032  0.3029 -0.0594
 6402TIP3   OH240620   2.003   0.521   4.306 -0.3837  0.3278  0.3093
 6402TIP3    H140621   1.940   0.515   4.377 -1.2025 -2.0788 -0.5193
 6402TIP3    H240622   2.077   0.467   4.335  0.8685  2.1586  0.7536
 6403TIP3   OH240623   4.688   4.843  13.972  0.0343  0.2300  0.2964
 6403TIP3    H140624   4.712   4.893  13.894 -0.6326  1.2971  0.7651
 6403TIP3    H240625   4.662   4.757  13.938  0.9097  0.2784 -0.5380
 6404TIP3   OH240626   5.907   2.061   5.528  0.2389 -0.3855  0.4178
 6404TIP3    H140627   5.969   2.078   5.599  0.7424  0.9873 -0.2981
 6404TIP3    H240628   5.942   2.112   5.454  0.0276 -2.1872 -0.9843
 6405TIP3   OH240629   4.667   1.935   2.782  0.3094  0.2382  0.0307
 6405TIP3    H140630   4.637   1.865   2.723 -0.7340  0.5499  0.1650
 6405TIP3    H240631   4.684   2.010   2.724 -0.3606  0.4320  0.0785
 6406TIP3   OH240632   6.106   4.442  16.956 -0.3207  0.1002 -0.1312
 6406TIP3    H140633   6.153   4.364  16.926 -0.2661  0.2999 -0.5725
 6406TIP3    H240634   6.025   4.442  16.905 -0.2496  0.4168 -0.2442
 6407TIP3   OH240635   6.134   6.391   4.731 -0.0931 -0.2205  0.0879
 6407TIP3    H140636   6.160   6.305   4.697  0.6005  1.2652 -3.6909
 6407TIP3    H240637   6.210   6.422   4.780 -0.1572 -1.5042  1.0409
 6408TIP3   OH240638   1.086   1.322  11.264 -0.0332 -0.6335  0.0642
 6408TIP3    H140639   1.076   1.370  11.346 -3.1177 -1.2624  0.1959
 6408TIP3    H240640   1.077   1.388  11.196  0.4787 -0.3938  0.2284
 6409TIP3   OH240641   0.862   2.942   3.652 -0.3378  0.1124  0.0800
 6409TIP3    H140642   0.806   2.984   3.586 -1.5060 -0.9178  0.3747
 6409TIP3    H240643   0.897   2.865   3.608  0.5536  0.5309  0.0305
 6410TIP3   OH240644   2.969   3.322  15.859  0.4175 -0.2083 -0.0192
 6410TIP3    H140645   2.962   3.413  15.888 -0.4470 -0.2615 -0.0324
 6410TIP3    H240646   2.885   3.304  15.818  0.7759 -0.8588 -0.4771
 6411TIP3   OH240647   2.613   0.550   3.447  0.3641 -0.4785  0.6523
 6411TIP3    H140648   2.573   0.500   3.376  1.1743  0.7251 -0.6939
 6411TIP3    H240649   2.539   0.586   3.496 -0.2012 -1.0186  0.2142
 6412TIP3   OH240650   2.528   5.281  14.561  0.1662 -0.5375  0.0975
 6412TIP3    H140651   2.559   5.364  14.596 -3.1073  1.0835 -0.4221
 6412TIP3    H240652   2.585   5.263  14.486  2.3155  0.0098  1.5210
 6413TIP3   OH240653   1.324   4.086  14.861  0.0809  0.4836  0.2354
 6413TIP3    H140654   1.395   4.028  14.833 -0.5406 -0.9151  1.3831
 6413TIP3    H240655   1.353   4.120  14.946 -0.7358 -0.4275  0.9141
 6414TIP3   OH240656   5.992   5.833   4.881  0.4346 -0.0343  0.1874
 6414TIP3    H140657   6.059   5.847   4.814  0.7577 -0.2083  0.4727
 6414TIP3    H240658   5.935   5.910   4.874 -0.1318 -0.5369 -0.9719
 6415TIP3   OH240659   4.093   5.052  16.092  1.4311 -0.0481  0.1040
 6415TIP3    H140660   4.133   5.045  16.006  0.1203 -0.0790 -0.5245
 6415TIP3    H240661   4.088   5.146  16.109  1.4115 -0.0343  0.0204
 6416TIP3   OH240662   5.335   3.604  10.452  0.2301 -0.5153  0.5252
 6416TIP3    H140663   5.257   3.644  10.491  0.8755 -0.2978  1.6369
 6416TIP3    H240664   5.407   3.661  10.479  0.7105 -0.2653 -1.1440
 6417TIP3   OH240665   5.994   6.188   5.703  0.0631  0.3406 -0.2239
 6417TIP3    H140666   6.067   6.138   5.666 -0.2284 -0.9525  0.8913
 6417TIP3    H240667   5.961   6.239   5.630  0.1704 -1.3430 -1.5012
 6418TIP3   OH240668   2.162   2.157  14.334  0.3486  0.2299 -0.3821
 6418TIP3    H140669   2.107   2.160  14.255  1.5513 -1.2522 -1.3290
 6418TIP3    H240670   2.188   2.065  14.341  1.8959  0.7157  0.6067
 6419TIP3   OH240671   1.943   1.973  14.329 -0.5595  0.1905  0.4466
 6419TIP3    H140672   1.851   1.994  14.312  0.0355  1.2090 -2.0332
 6419TIP3    H240673   1.977   1.945  14.244  1.1309 -1.5150  1.5973
 6420TIP3   OH240674   1.467   4.630   4.431  0.6711  0.0776  0.1464
 6420TIP3    H140675   1.534   4.697   4.442  0.1129  0.6671 -0.0076
 6420TIP3    H240676   1.401   4.671   4.376 -0.1057 -0.2915  0.7910
 6421TIP3   OH240677   1.153   1.511   0.519 -0.3160  0.2037 -0.4871
 6421TIP3    H140678   1.167   1.427   0.475 -0.0386 -0.1395  0.2235
 6421TIP3    H240679   1.175   1.493   0.611 -0.9700  0.8680 -0.1914
 6422TIP3   OH240680   0.424   1.511   1.830  0.2021  0.3181 -0.6668
 6422TIP3    H140681   0.400   1.598   1.800 -1.7896  0.1670  0.3298
 6422TIP3    H240682   0.487   1.527   1.901 -1.3115  1.0629  0.5600
 6423TIP3   OH240683   0.250   6.012   0.017  0.0999 -0.1306 -0.4408
 6423TIP3    H140684   0.223   5.933   0.062 -0.9593 -0.4720 -1.6312
 6423TIP3    H240685   0.342   5.998  -0.003  0.9376  0.4912  2.5094
 6424TIP3   OH240686   6.754   1.076  16.240 -0.6968  0.0391 -0.3787
 6424TIP3    H140687   6.816   1.012  16.204  0.3416 -0.1447  1.6338
 6424TIP3    H240688   6.807   1.153  16.261 -1.1816  0.0210  1.0229
 6425TIP3   OH240689   1.159   2.559   3.387 -0.0024 -0.3047 -0.0227
 6425TIP3    H140690   1.219   2.557   3.312  0.2247 -1.7740  0.1544
 6425TIP3    H240691   1.140   2.651   3.401  1.1960  0.1004 -0.9088
 6426TIP3   OH240692   4.539   0.265   0.081 -0.6063  0.3177  0.6160
 6426TIP3    H140693   4.471   0.200   0.063 -0.2794  0.0536  0.2959
 6426TIP3    H240694   4.619   0.213   0.092 -0.4696  0.6160  1.0622
 6427TIP3   OH240695   6.432   0.013  17.022 -0.6056  0.8243  0.0835
 6427TIP3    H140696   6.354  -0.025  16.981 -0.3545 -1.0587  1.2176
 6427TIP3    H240697   6.495   0.023  16.950 -0.6661 -1.0733 -0.2836
 6428TIP3   OH240698   2.395   2.248  15.792 -0.2585  0.2863  0.1213
 6428TIP3    H140699   2.376   2.340  15.775 -1.2333  0.1594  0.4606
 6428TIP3    H240700   2.489   2.246  15.810 -0.3339  1.3113  0.7298
 6429TIP3   OH240701   4.267   6.696  14.680  0.7856  0.2602  0.0130
 6429TIP3    H140702   4.299   6.609  14.655  0.8403  0.2804  0.0138
 6429TIP3    H240703   4.182   6.679  14.721  1.5270  0.0534  1.4948
 6430TIP3   OH240704   4.304   6.537  11.877  0.4517  0.0961  0.2708
 6430TIP3    H140705   4.321   6.499  11.791  1.7618 -1.8948  1.3055
 6430TIP3    H240706   4.209   6.533  11.887  0.3385 -0.2903 -0.8032
 6431TIP3   OH240707   3.428   3.351   0.204 -0.5863 -0.5073  0.0910
 6431TIP3    H140708   3.505   3.346   0.148 -1.9495  1.6260 -2.1202
 6431TIP3    H240709   3.447   3.423   0.265 -1.2193  0.8372 -1.2334
 6432TIP3   OH240710   1.341   0.790   3.119  0.8115  0.2975 -0.1640
 6432TIP3    H140711   1.382   0.871   3.150  0.1861  1.2141 -1.6049
 6432TIP3    H240712   1.336   0.801   3.024 -0.3334 -0.9402 -0.2800
 6433TIP3   OH240713   3.379   3.548  15.767  0.0810  0.2223  0.4939
 6433TIP3    H140714   3.315   3.486  15.801 -0.3249  0.1211 -0.4332
 6433TIP3    H240715   3.440   3.562  15.840  0.2545 -1.3451  0.6941
 6434TIP3   OH240716   6.579   0.796  14.816 -0.2207  0.3624  0.1443
 6434TIP3    H140717   6.631   0.803  14.736 -1.4519  0.4195 -0.6794
 6434TIP3    H240718   6.516   0.867  14.810 -0.1980  0.4975  1.2870
 6435TIP3   OH240719   5.212   0.102  11.616  0.3881 -0.0857  0.1428
 6435TIP3    H140720   5.178   0.101  11.706 -0.4325 -1.3664 -0.1582
 6435TIP3    H240721   5.134   0.101  11.561  0.7133  3.9394 -0.7270
 6436TIP3   OH240722   3.192   0.549   5.121  0.1638 -0.5469  0.7957
 6436TIP3    H140723   3.105   0.512   5.135  0.0863 -1.0598 -0.9199
 6436TIP3    H240724   3.224   0.507   5.042  1.8632 -0.1299  1.2191
 6437TIP3   OH240725   4.858   5.511   1.487 -0.0712  0.5789  0.6465
 6437TIP3    H140726   4.875   5.439   1.548 -0.2692  0.7357  0.8862
 6437TIP3    H240727   4.879   5.590   1.535  0.7466  0.6557  0.1713
 6438TIP3   OH240728   0.107   1.726  16.823  0.4026  0.6366 -0.2002
 6438TIP3    H140729   0.060   1.793  16.872  0.2911  0.5616 -0.2023
 6438TIP3    H240730   0.180   1.702  16.880 -0.6003 -0.5629  0.6462
 6439TIP3   OH240731   1.440   0.598   1.703 -0.2075  0.0317 -0.1887
 6439TIP3    H140732   1.486   0.515   1.709  0.1134  0.1954 -0.3535
 6439TIP3    H240733   1.488   0.647   1.636  0.9003  1.1766  1.3761
 6440TIP3   OH240734   6.329   1.602  15.309 -0.0233  0.3863 -0.0273
 6440TIP3    H140735   6.281   1.544  15.250  0.1591  0.4087 -0.1971
 6440TIP3    H240736   6.265   1.626  15.377 -0.3444  0.6670 -0.4263
 6441TIP3   OH240737   2.741   6.312   0.925  0.1809  0.0787 -0.0106
 6441TIP3    H140738   2.782   6.228   0.903 -1.5999 -1.1376  1.0193
 6441TIP3    H240739   2.707   6.299   1.014  0.1245  2.0229  0.2895
 6442TIP3   OH240740   6.444   0.455  13.918  0.4990  0.1144 -0.1519
 6442TIP3    H140741   6.532   0.483  13.894  0.5942  0.4417  0.5255
 6442TIP3    H240742   6.392   0.468  13.839  1.2916 -1.2209 -0.9348
 6443TIP3   OH240743   5.304   5.442  11.311 -0.5696  0.0223  0.3868
 6443TIP3    H140744   5.381   5.461  11.365 -0.0282 -0.0187 -0.3588
 6443TIP3    H240745   5.260   5.371  11.358 -0.5613  0.5406  1.2037
 6444TIP3   OH240746   4.485   2.408  14.779 -0.1978  0.2188 -0.5131
 6444TIP3    H140747   4.453   2.352  14.849 -0.8559 -0.7796 -1.5738
 6444TIP3    H240748   4.419   2.477  14.772 -1.3292 -0.9128 -1.5807
 6445TIP3   OH240749   1.309   4.259  15.081  0.1114 -0.2991 -0.6641
 6445TIP3    H140750   1.250   4.299  15.145  1.4266 -1.8179  1.6245
 6445TIP3    H240751   1.397   4.279  15.113  0.8661 -0.1669 -2.6674
 6446TIP3   OH240752   1.302   1.296  16.311 -0.1221  0.2718 -0.0780
 6446TIP3    H140753   1.304   1.205  16.340 -1.9158  0.3516  0.4275
 6446TIP3    H240754   1.265   1.344  16.385  1.3552  1.5478 -0.0990
 6447TIP3   OH240755   2.039   6.272  11.464  0.4493 -0.4273 -0.4036
 6447TIP3    H140756   1.983   6.349  11.457  0.2830 -0.4668  0.3835
 6447TIP3    H240757   1.979   6.198  11.455  0.4428 -0.4666 -0.0558
 6448TIP3   OH240758   2.939   2.954   1.494  0.0007  0.2387 -0.0405
 6448TIP3    H140759   3.014   2.953   1.553 -1.1809  1.3599  1.5846
 6448TIP3    H240760   2.920   2.862   1.478 -0.0916 -0.1498  1.9979
 6449TIP3   OH240761   6.726   6.659   3.308 -0.5726  0.2984 -0.5569
 6449TIP3    H140762   6.732   6.749   3.277 -2.5432  0.6463 -0.0508
 6449TIP3    H240763   6.805   6.646   3.361 -0.9946  2.2371  0.6177
 6450TIP3   OH240764   3.656   0.855  11.279 -0.1163  0.0688 -0.4054
 6450TIP3    H140765   3.665   0.762  11.257 -0.9092 -0.0579 -0.2244
 6450TIP3    H240766   3.598   0.891  11.212 -1.1383  0.0586  0.4453
 6451TIP3   OH240767   3.848   0.092  14.335 -0.4492 -0.6301  0.7253
 6451TIP3    H140768   3.892   0.011  14.361 -0.8213 -0.2896  2.5339
 6451TIP3    H240769   3.867   0.153  14.406 -1.1496  0.5123 -0.0468
 6452TIP3   OH240770   5.728   2.038  10.707  0.1631  0.5084 -0.2046
 6452TIP3    H140771   5.772   1.958  10.733 -0.4720  0.8094  2.0229
 6452TIP3    H240772   5.782   2.108  10.743 -1.3751  0.9067  1.5313
 6453TIP3   OH240773   1.259   1.477   4.572 -0.1279 -0.3927 -0.1223
 6453TIP3    H140774   1.338   1.433   4.540 -0.8388 -0.2138 -2.3223
 6453TIP3    H240775   1.194   1.461   4.504 -1.3280  1.3920  0.5297
 6454TIP3   OH240776   4.860   3.676  11.662 -0.0542 -0.6866  0.7223
 6454TIP3    H140777   4.807   3.728  11.722 -1.3907 -2.4885  1.2099
 6454TIP3    H240778   4.897   3.607  11.717 -0.7695 -1.9821 -0.3601
 6455TIP3   OH240779   0.940   1.367   5.911 -0.2015 -0.2346  0.3755
 6455TIP3    H140780   1.020   1.318   5.894  0.4495  0.1516  2.1110
 6455TIP3    H240781   0.891   1.313   5.973 -1.0030 -0.1659 -0.1790
 6456TIP3   OH240782   0.370   6.455   3.566  0.3819 -0.5391  0.4229
 6456TIP3    H140783   0.361   6.546   3.538  2.2410 -1.0102 -2.0788
 6456TIP3    H240784   0.293   6.411   3.530  0.4051 -0.2728  0.0415
 6457TIP3   OH240785   5.351   2.216   0.721  0.4114 -0.2198  0.1109
 6457TIP3    H140786   5.394   2.131   0.730 -1.0114 -1.1291 -1.1149
 6457TIP3    H240787   5.378   2.247   0.634 -0.8507 -0.5346 -0.4268
 6458TIP3   OH240788   5.912   6.543   0.290  0.1944 -0.5249 -0.3248
 6458TIP3    H140789   5.966   6.591   0.352  0.5966 -0.3195 -0.8268
 6458TIP3    H240790   5.865   6.610   0.241 -2.1428 -0.7163  1.4830
 6459TIP3   OH240791   2.062   4.407  11.942  0.3901  0.0047  0.2094
 6459TIP3    H140792   2.030   4.329  11.988 -0.2177  0.3063  0.3081
 6459TIP3    H240793   2.101   4.461  12.011  0.3923  0.0004  0.2112
 6460TIP3   OH240794   3.387   2.397  16.367 -0.4475  0.5574  0.2725
 6460TIP3    H140795   3.340   2.317  16.390 -0.9476  0.7111 -0.1686
 6460TIP3    H240796   3.461   2.401  16.427  0.1260 -0.7304 -0.3107
 6461TIP3   OH240797   4.527   5.155   0.472  0.7235 -0.3742  0.4162
 6461TIP3    H140798   4.576   5.212   0.531 -0.6171  1.5606 -0.2093
 6461TIP3    H240799   4.440   5.150   0.511  0.0638  0.2526 -0.9056
 6462TIP3   OH240800   2.839   1.387  13.128 -0.0943 -0.3377 -0.3587
 6462TIP3    H140801   2.861   1.317  13.189 -1.4490 -0.3299  0.1881
 6462TIP3    H240802   2.896   1.373  13.053  0.3986 -1.3877  0.1938
 6463TIP3   OH240803   1.562   5.534   1.533 -0.1923  0.3857 -0.4003
 6463TIP3    H140804   1.522   5.575   1.610  1.3197  0.9308  0.1305
 6463TIP3    H240805   1.489   5.520   1.473 -1.5384 -0.5797  1.3415
 6464TIP3   OH240806   0.632   0.799  10.283 -0.2290  1.0845  0.2398
 6464TIP3    H140807   0.700   0.735  10.303 -1.5877 -1.2662 -2.0471
 6464TIP3    H240808   0.571   0.794  10.357 -0.5523 -0.6944 -0.1019
 6465TIP3   OH240809   3.292   5.928  12.453 -0.3986 -0.1718 -0.4983
 6465TIP3    H140810   3.302   5.833  12.442 -0.7938 -0.4512  1.2326
 6465TIP3    H240811   3.381   5.962  12.454 -0.0668 -0.9382  1.7568
 6466TIP3   OH240812   2.179   5.435  15.445 -0.2792  0.4206 -0.2097
 6466TIP3    H140813   2.221   5.398  15.367 -2.2824 -2.0788 -0.2205
 6466TIP3    H240814   2.154   5.524  15.419 -1.5970 -0.5870 -2.7612
 6467TIP3   OH240815   3.193   1.230  17.069  0.2074 -0.1700  0.2734
 6467TIP3    H140816   3.137   1.160  17.036 -1.3961  0.9532  0.5037
 6467TIP3    H240817   3.241   1.260  16.992 -0.0423 -0.6686 -0.0863
 6468TIP3   OH240818   1.196   0.034   2.109 -0.1811  0.0905 -0.2350
 6468TIP3    H140819   1.289   0.038   2.086  0.5255 -0.0895  2.2146
 6468TIP3    H240820   1.155   0.103   2.058  1.6578  1.4450  0.0180
 6469TIP3   OH240821   4.108   0.145  13.493 -0.2548  0.2732  0.2943
 6469TIP3    H140822   4.046   0.072  13.501 -0.2079  0.4607  3.4352
 6469TIP3    H240823   4.161   0.140  13.572  1.3022  2.3613 -0.5372
 6470TIP3   OH240824   1.901   1.404   2.297  0.4933 -0.4624 -0.7208
 6470TIP3    H140825   1.909   1.314   2.328  0.4776 -0.0700  0.4912
 6470TIP3    H240826   1.990   1.439   2.301  0.1621  0.2961  1.2135
 6471TIP3   OH240827   2.588   1.446  16.322  0.0509  0.0895 -0.5593
 6471TIP3    H140828   2.524   1.493  16.374  0.1885  0.7086 -0.9351
 6471TIP3    H240829   2.580   1.484  16.234  2.6738  1.9927 -0.0692
 6472TIP3   OH240830   3.977   1.777   3.122  0.1993 -0.8662 -0.6172
 6472TIP3    H140831   3.999   1.735   3.206  1.7227  0.7137 -0.1691
 6472TIP3    H240832   4.059   1.818   3.094 -0.8505  0.5448 -1.7626
 6473TIP3   OH240833   2.975   1.474   0.588 -0.0922 -0.0088 -0.3105
 6473TIP3    H140834   2.974   1.445   0.679  1.1402 -0.9462 -0.5737
 6473TIP3    H240835   2.947   1.566   0.592 -0.6353 -0.2096  0.9290
 6474TIP3   OH240836   2.597   4.838   4.569 -0.1210 -0.1518  0.1029
 6474TIP3    H140837   2.526   4.785   4.605 -0.5902 -0.6776 -1.5122
 6474TIP3    H240838   2.652   4.858   4.645 -0.6524 -1.8131  0.9928
 6475TIP3   OH240839   3.379   1.550   3.589  0.0823 -0.2056  0.0546
 6475TIP3    H140840   3.396   1.625   3.533 -2.2567  1.4814  1.4156
 6475TIP3    H240841   3.462   1.532   3.632  0.4021  2.6273  0.8034
 6476TIP3   OH240842   5.723   4.625  11.511 -0.4460  0.5876  0.2531
 6476TIP3    H140843   5.678   4.540  11.517 -2.6086  1.7251  1.1965
 6476TIP3    H240844   5.755   4.641  11.600 -1.1940  1.3147  0.4077
 6477TIP3   OH240845   5.076   4.978  13.191 -0.2120 -0.0890  0.3762
 6477TIP3    H140846   5.016   5.014  13.125 -0.4149  1.7238  1.4645
 6477TIP3    H240847   5.155   5.032  13.182  0.7866 -1.5990 -0.1587
 6478TIP3   OH240848   6.489   6.147  12.415 -0.1847 -0.1473 -0.5001
 6478TIP3    H140849   6.579   6.156  12.449 -0.0921 -3.3502  0.4453
 6478TIP3    H240850   6.500   6.114  12.326 -0.4469  0.4253 -0.7492
 6479TIP3   OH240851   5.190   3.776   6.532 -0.2136  0.1585 -0.4885
 6479TIP3    H140852   5.140   3.724   6.595  2.7525 -1.1205  1.0379
 6479TIP3    H240853   5.172   3.735   6.448 -1.5358 -0.3447  0.0067
 6480TIP3   OH240854   2.134   5.420   1.695  0.6856  0.6417  0.4062
 6480TIP3    H140855   2.083   5.429   1.776  0.2419  0.3777  0.1572
 6480TIP3    H240856   2.150   5.326   1.687 -0.9484  0.4360 -0.8263
 6481TIP3   OH240857   6.659   5.552  12.298  0.0641  0.1345  0.0870
 6481TIP3    H140858   6.618   5.515  12.220  0.9890  0.4583 -0.5725
 6481TIP3    H240859   6.738   5.499  12.311 -0.5587 -0.5366  1.3873
 6482TIP3   OH240860   2.489   3.231  13.656 -0.1231  0.0243  0.2173
 6482TIP3    H140861   2.453   3.194  13.736 -1.6027 -0.1381 -0.4949
 6482TIP3    H240862   2.414   3.270  13.611  1.1204  2.6385  0.2294
 6483TIP3   OH240863   3.287   4.876   4.382 -0.1330  0.2032 -0.6922
 6483TIP3    H140864   3.250   4.850   4.466 -0.5405 -1.4662 -1.3524
 6483TIP3    H240865   3.278   4.972   4.381 -1.1732  0.1551  0.6644
 6484TIP3   OH240866   1.698   2.042  16.656  0.4200  0.7487  0.1285
 6484TIP3    H140867   1.622   2.015  16.604  1.6248 -0.6693 -0.9772
 6484TIP3    H240868   1.696   2.138  16.652 -1.3969  0.7509  0.2949
 6485TIP3   OH240869   3.769   3.104   4.473 -0.1380  0.6635 -0.4724
 6485TIP3    H140870   3.799   3.144   4.392 -0.7539  2.5559  0.1906
 6485TIP3    H240871   3.727   3.022   4.446  2.8025 -0.5801 -1.7099
 6486TIP3   OH240872   2.050   5.376   5.082  0.2654  0.0641 -0.4082
 6486TIP3    H140873   1.961   5.406   5.100 -0.5421 -1.2163 -1.9986
 6486TIP3    H240874   2.076   5.329   5.162 -1.7137 -2.1589 -0.9470
 6487TIP3   OH240875   2.424   3.855  11.985 -0.1755 -0.1421  0.2104
 6487TIP3    H140876   2.458   3.944  11.972 -0.6837 -0.0373 -0.4550
 6487TIP3    H240877   2.486   3.799  11.938  0.3917 -0.1900  1.0006
 6488TIP3   OH240878   4.797   1.032   1.226 -0.4381 -0.3746  0.6455
 6488TIP3    H140879   4.822   1.121   1.253 -0.4633  0.2733 -1.2735
 6488TIP3    H240880   4.761   0.992   1.305 -0.9632  1.5261  1.4300
 6489TIP3   OH240881   1.161   5.267  11.769  0.1507  0.4305  0.1401
 6489TIP3    H140882   1.212   5.198  11.811 -0.0161 -0.2454 -0.7364
 6489TIP3    H240883   1.225   5.334  11.748  0.8188 -0.6381 -1.4317
 6490TIP3   OH240884   4.381   0.409  16.728 -0.3478  0.4837  0.1554
 6490TIP3    H140885   4.343   0.324  16.748 -0.8970  1.0099  1.4109
 6490TIP3    H240886   4.474   0.390  16.714 -0.5838 -0.4154 -0.2739
 6491TIP3   OH240887   0.432   6.524   0.061 -0.4839  0.3557  0.7371
 6491TIP3    H140888   0.413   6.473   0.140 -0.9576  3.2891  2.6618
 6491TIP3    H240889   0.521   6.500   0.037 -1.0379 -2.0956  0.8684
 6492TIP3   OH240890   6.591   3.823  13.724 -0.6838 -0.3165  0.1692
 6492TIP3    H140891   6.581   3.916  13.700 -0.0794 -0.9391 -2.8958
 6492TIP3    H240892   6.605   3.825  13.818  0.3538  2.8081  0.0891
 6493TIP3   OH240893   4.154   0.307   2.761 -0.3092  0.8212 -0.5123
 6493TIP3    H140894   4.249   0.307   2.772 -0.5050  0.0645  1.8512
 6493TIP3    H240895   4.126   0.393   2.793 -0.6104 -0.0786  1.8156
 6494TIP3   OH240896   0.886   3.772   3.383  0.0780 -0.1305  0.4096
 6494TIP3    H140897   0.888   3.778   3.287 -1.9212 -0.4536  0.2997
 6494TIP3    H240898   0.978   3.769   3.409  0.6579 -0.4345 -1.5208
 6495TIP3   OH240899   6.530   1.467   1.641  0.3694  0.4488  0.3742
 6495TIP3    H140900   6.453   1.453   1.696 -1.1483 -1.1702 -1.9717
 6495TIP3    H240901   6.600   1.418   1.685 -0.8435 -1.0033  0.7927
 6496TIP3   OH240902   2.197   5.073  11.439  0.2364 -0.6292 -0.4108
 6496TIP3    H140903   2.118   5.031  11.474 -0.0087  1.2395  1.4200
 6496TIP3    H240904   2.269   5.036  11.490  0.1477  0.1927  0.3369
 6497TIP3   OH240905   0.668   0.594   4.838  0.5036 -0.3667  0.5495
 6497TIP3    H140906   0.609   0.646   4.893 -0.0658  0.3432 -0.6938
 6497TIP3    H240907   0.645   0.503   4.858 -2.0418 -0.1228 -0.9120
 6498TIP3   OH240908   0.014   6.776   0.706  0.4571  0.1796 -0.0528
 6498TIP3    H140909   0.057   6.852   0.667 -1.2213  0.6526 -1.0846
 6498TIP3    H240910  -0.069   6.768   0.658  0.0340 -1.5536  0.8807
 6499TIP3   OH240911   6.740   0.418  16.612  0.1752  0.3285  0.0544
 6499TIP3    H140912   6.651   0.448  16.633  1.2115  2.2887  2.2081
 6499TIP3    H240913   6.773   0.483  16.550 -0.7342 -1.9984 -3.1306
 6500TIP3   OH240914   6.425   1.121  13.518  0.1994 -0.3840  0.4736
 6500TIP3    H140915   6.421   1.216  13.516  0.0778 -0.3219  2.3899
 6500TIP3    H240916   6.491   1.101  13.584 -0.5692 -1.6381  0.8932
 6501TIP3   OH240917   1.876   1.000  13.203  0.3302 -0.0930  0.6505
 6501TIP3    H140918   1.912   0.912  13.194  1.9494  0.7652 -2.3198
 6501TIP3    H240919   1.932   1.043  13.268  0.4411 -0.7755  1.0084
 6502TIP3   OH240920   5.437   1.120   0.167  0.0197  0.7973  0.1577
 6502TIP3    H140921   5.505   1.067   0.207 -0.7535 -0.4609 -0.1473
 6502TIP3    H240922   5.431   1.198   0.223  0.5096  0.1119  1.1837
 6503TIP3   OH240923   5.516   2.110   5.712 -0.1096 -0.1151  0.4542
 6503TIP3    H140924   5.476   2.176   5.656 -0.3976 -0.9874 -0.3952
 6503TIP3    H240925   5.603   2.145   5.732  0.1028  0.0983 -0.7667
 6504TIP3   OH240926   3.309   5.730   3.946 -0.2609 -0.1305 -0.9122
 6504TIP3    H140927   3.257   5.752   4.024 -0.8776  1.1777 -1.6708
 6504TIP3    H240928   3.381   5.793   3.946 -0.1540 -0.2507 -1.3045
 6505TIP3   OH240929   2.626   5.905   5.302  0.6651 -0.2400  0.0844
 6505TIP3    H140930   2.581   5.973   5.251  1.8178  0.4548 -0.0449
 6505TIP3    H240931   2.635   5.831   5.241  0.0101 -0.2651  0.0116
 6506TIP3   OH240932   5.178   4.350   2.256 -0.5159  0.1550 -0.0982
 6506TIP3    H140933   5.249   4.287   2.248 -1.0041 -0.4168 -0.0610
 6506TIP3    H240934   5.213   4.431   2.219 -0.2902 -0.4749 -1.3214
 6507TIP3   OH240935   4.263   5.654  12.134  0.3923  0.2243  0.4337
 6507TIP3    H140936   4.270   5.731  12.190 -0.2168  0.8830 -0.3662
 6507TIP3    H240937   4.220   5.686  12.054 -1.0764 -1.1918  0.6015
 6508TIP3   OH240938   5.784   3.036   4.171 -0.4100  0.0151 -0.2645
 6508TIP3    H140939   5.793   3.015   4.078 -2.6679 -0.6816 -0.3942
 6508TIP3    H240940   5.791   3.131   4.175  0.6388 -0.0196 -1.0028
 6509TIP3   OH240941   2.990   6.548   1.688  0.4642  0.0240  0.2190
 6509TIP3    H140942   3.019   6.614   1.750  1.0619 -0.8747  0.9311
 6509TIP3    H240943   2.894   6.552   1.690  0.4391  2.6778 -1.7651
 6510TIP3   OH240944   4.818   1.334   2.293 -0.5047 -0.7383 -0.0356
 6510TIP3    H140945   4.826   1.242   2.268 -1.0705 -0.4554 -1.3277
 6510TIP3    H240946   4.790   1.332   2.384 -2.2460 -1.8764 -0.5624
 6511TIP3   OH240947   2.074   0.272   6.615 -0.4626 -0.1061  0.3768
 6511TIP3    H140948   1.994   0.259   6.565 -0.9971  1.5686  0.7373
 6511TIP3    H240949   2.048   0.327   6.689  1.0093  0.4638  0.5149
 6512TIP3   OH240950   2.827   1.707   5.826  0.2193  0.1673  0.5144
 6512TIP3    H140951   2.859   1.618   5.807  0.6092  0.0937  1.4530
 6512TIP3    H240952   2.806   1.705   5.920  0.0911  1.0245  0.5083
 6513TIP3   OH240953   2.419   4.483  11.922 -0.2171  0.0594  0.5466
 6513TIP3    H140954   2.447   4.398  11.955  0.1987 -1.1181 -2.5304
 6513TIP3    H240955   2.358   4.515  11.988  0.3148 -2.1725  2.2473
 6514TIP3   OH240956   3.164   2.451   2.137  0.5816  0.5008  0.7231
 6514TIP3    H140957   3.149   2.357   2.136  0.4875  0.5195 -0.8997
 6514TIP3    H240958   3.106   2.484   2.206 -2.2870 -0.1793 -1.1865
 6515TIP3   OH240959   6.222   2.610   5.691  0.4977 -0.3140 -0.2394
 6515TIP3    H140960   6.297   2.590   5.747  2.2708  2.5818 -1.3728
 6515TIP3    H240961   6.158   2.651   5.750  0.7990 -0.6398  0.3202
 6516TIP3   OH240962   2.430   0.050  15.576 -0.3392  0.0842 -0.1459
 6516TIP3    H140963   2.501   0.114  15.577  0.7600 -1.1140 -0.1309
 6516TIP3    H240964   2.393   0.057  15.488  0.9184 -0.4660 -0.7447
 6517TIP3   OH240965   3.148   1.961  16.722  0.1878 -0.1588 -0.0164
 6517TIP3    H140966   3.099   1.932  16.645 -0.3310 -0.3851  0.3902
 6517TIP3    H240967   3.109   2.045  16.746  1.7479  0.9482 -1.2418
 6518TIP3   OH240968   0.061   4.599   1.236  0.0546 -0.0642 -0.0379
 6518TIP3    H140969   0.023   4.512   1.242 -1.3246  0.6128  1.9362
 6518TIP3    H240970   0.088   4.620   1.325 -0.7716  1.9928 -0.2148
 6519TIP3   OH240971   2.329   4.673  14.421  0.3316  0.2275 -0.4442
 6519TIP3    H140972   2.395   4.604  14.410  0.1030  0.2344 -2.0586
 6519TIP3    H240973   2.294   4.658  14.509  2.1127 -0.0847  0.2654
 6520TIP3   OH240974   3.758   1.577  13.455 -0.2440  0.0780 -0.9600
 6520TIP3    H140975   3.681   1.523  13.437 -1.4266  1.5848 -0.5922
 6520TIP3    H240976   3.742   1.658  13.406  2.2150 -0.4337 -2.7790
 6521TIP3   OH240977   0.411   4.907  14.203  0.0664  0.7160 -0.1766
 6521TIP3    H140978   0.470   4.981  14.219  0.6935  0.7347 -2.2847
 6521TIP3    H240979   0.399   4.868  14.289  2.0488  1.5574  0.5551
 6522TIP3   OH240980   0.060   4.640   4.974  0.4990 -0.0985 -0.3054
 6522TIP3    H140981   0.061   4.722   5.024 -2.2921  0.5020 -1.0858
 6522TIP3    H240982   0.147   4.602   4.990  1.0253  1.7972  2.0428
 6523TIP3   OH240983   3.448   4.917  11.735 -0.1119 -0.4328 -0.5540
 6523TIP3    H140984   3.437   4.822  11.725  3.2344 -0.8216 -1.6878
 6523TIP3    H240985   3.467   4.929  11.828 -0.9637 -0.7822 -0.3224
 6524TIP3   OH240986   4.067   2.631   2.763  0.1036  0.3948  0.6891
 6524TIP3    H140987   4.022   2.696   2.817 -0.1732 -1.2140  2.4907
 6524TIP3    H240988   4.023   2.549   2.783  1.3226 -0.5904 -0.5113
 6525TIP3   OH240989   2.047   6.694   2.111  0.1301  0.3364  0.8221
 6525TIP3    H140990   2.000   6.688   2.195  0.0570 -0.7697  0.7242
 6525TIP3    H240991   2.139   6.696   2.136  0.1685 -1.1876  0.9262
 6526TIP3   OH240992   3.899   2.679  14.422  0.3311 -0.4538 -0.0108
 6526TIP3    H140993   3.864   2.743  14.359  0.3344 -1.1013 -0.6901
 6526TIP3    H240994   3.958   2.729  14.477  0.1847  0.1706 -0.4106
 6527TIP3   OH240995   5.701   2.330   0.487 -0.1989 -0.2476 -0.7788
 6527TIP3    H140996   5.610   2.312   0.465 -0.0315  0.1533 -1.8494
 6527TIP3    H240997   5.723   2.410   0.437  1.1801 -1.1994 -1.7742
 6528TIP3   OH240998   5.202   4.533  13.590  0.1759  0.3174 -0.1368
 6528TIP3    H140999   5.221   4.481  13.512  2.0011  1.7295 -0.6923
 6528TIP3    H241000   5.122   4.581  13.568  0.7607  0.8235 -1.2225
 6529TIP3   OH241001   0.689   1.588  13.067  0.2768 -0.7487  0.2224
 6529TIP3    H141002   0.684   1.677  13.100  0.8866 -0.7548  0.3341
 6529TIP3    H241003   0.704   1.534  13.144  5.9017 -0.4106 -0.2348
 6530TIP3   OH241004   3.219   0.657   1.122 -0.5423  0.0463 -0.1555
 6530TIP3    H141005   3.143   0.599   1.113  1.2831 -2.4497 -0.8325
 6530TIP3    H241006   3.228   0.697   1.035 -1.1613  0.4796 -0.0244
 6531TIP3   OH241007   5.509   2.487  11.423  1.0102 -0.3783  0.0318
 6531TIP3    H141008   5.475   2.402  11.394 -3.0187  1.0114  0.0295
 6531TIP3    H241009   5.512   2.539  11.343 -2.4776  1.1178  0.6938
 6532TIP3   OH241010   5.643   3.078  14.254  0.3694  0.0158  0.8604
 6532TIP3    H141011   5.666   3.049  14.166 -0.1032  0.3712  0.6149
 6532TIP3    H241012   5.726   3.103  14.294  0.5978 -0.2531  0.5519
 6533TIP3   OH241013   4.392   3.769   0.444 -0.3579 -0.1516 -0.1881
 6533TIP3    H141014   4.440   3.732   0.370 -1.5376 -0.3730 -0.8672
 6533TIP3    H241015   4.304   3.733   0.436 -0.4397 -0.4143  1.4979
 6534TIP3   OH241016   1.000   0.104  12.584  0.4023 -0.4473  0.2875
 6534TIP3    H141017   1.015   0.195  12.560  1.5746  0.0978  2.7527
 6534TIP3    H241018   0.909   0.100  12.612  0.7135  0.3592  1.5077
 6535TIP3   OH241019   4.340   6.128   1.327 -0.6592  0.2901  0.1590
 6535TIP3    H141020   4.343   6.102   1.235 -0.5020 -0.4037  0.3591
 6535TIP3    H241021   4.349   6.224   1.324 -4.1441  0.7372 -0.7896
 6536TIP3   OH241022   3.139   5.525  12.046  0.1203  1.0386  0.1163
 6536TIP3    H141023   3.205   5.460  12.069 -0.1062  0.3136 -1.2030
 6536TIP3    H241024   3.190   5.602  12.020  0.4280  0.8630  0.1957
 6537TIP3   OH241025   0.083   5.886   4.047 -0.0709  0.0408 -0.0676
 6537TIP3    H141026   0.173   5.916   4.042  0.3743 -1.2087  0.1365
 6537TIP3    H241027   0.049   5.928   4.126  0.6546 -0.3022  0.4359
 6538TIP3   OH241028   4.353   0.571   0.673 -0.1827 -0.0180  0.8305
 6538TIP3    H141029   4.320   0.611   0.754  0.9974  0.5819  1.0451
 6538TIP3    H241030   4.445   0.550   0.693 -0.3211 -1.3445  0.1645
 6539TIP3   OH241031   5.981   2.967   2.420  0.1151  0.1349 -0.2430
 6539TIP3    H141032   6.071   3.001   2.418  0.8435 -1.6898 -0.4962
 6539TIP3    H241033   5.982   2.902   2.491 -1.2113  0.5560  0.1897
 6540TIP3   OH241034   4.810   2.068   1.589  0.3997  0.5475  0.1742
 6540TIP3    H141035   4.851   2.109   1.513 -0.5357 -0.7645 -1.1005
 6540TIP3    H241036   4.805   2.137   1.655 -0.1017  2.1508 -1.4724
 6541TIP3   OH241037   4.219   0.558   4.321  0.7349  0.2354 -0.0751
 6541TIP3    H141038   4.291   0.569   4.259  0.2363  1.1224 -0.5156
 6541TIP3    H241039   4.145   0.533   4.266  0.0328  2.0190 -0.0012
 6542TIP3   OH241040   4.369   0.652   1.875  0.0707  0.2001  0.1785
 6542TIP3    H141041   4.317   0.730   1.857  1.1720  1.2058  1.2101
 6542TIP3    H241042   4.415   0.634   1.793 -0.2281  0.5876 -0.0806
 6543TIP3   OH241043   6.726   3.655   0.329 -0.3625  0.0372 -0.1793
 6543TIP3    H141044   6.727   3.749   0.341 -0.1441 -0.2212  2.3087
 6543TIP3    H241045   6.643   3.626   0.367  0.0794 -0.8760  0.1319
 6544TIP3   OH241046   5.475   5.159  14.544  0.8745  0.1510 -0.2872
 6544TIP3    H141047   5.476   5.206  14.627 -1.2280  0.5871 -0.4344
 6544TIP3    H241048   5.533   5.208  14.486  0.5701  1.1754  0.2680
 6545TIP3   OH241049   4.164   5.431  13.065  0.6306  0.3230 -0.1676
 6545TIP3    H141050   4.186   5.387  12.983 -0.3697 -0.5659  0.0270
 6545TIP3    H241051   4.213   5.513  13.061  2.2287 -0.6046 -0.7130
 6546TIP3   OH241052   5.842   2.964   2.808 -0.7151 -0.7559  0.1384
 6546TIP3    H141053   5.777   2.943   2.740 -0.7164  1.2147 -0.5346
 6546TIP3    H241054   5.792   2.968   2.889 -0.6718 -3.4199  0.3858
 6547TIP3   OH241055   6.336   0.086  14.304  0.3342  0.2618  0.3550
 6547TIP3    H141056   6.340  -0.005  14.273  1.0164  0.8917 -1.5194
 6547TIP3    H241057   6.406   0.091  14.370  1.5414 -0.1490 -0.8329
 6548TIP3   OH241058   5.400   2.067  17.177  0.0724 -0.6189  0.3539
 6548TIP3    H141059   5.472   2.085  17.239 -0.3279  1.9304  0.1685
 6548TIP3    H241060   5.392   2.147  17.125 -2.6496 -0.9695  0.0922
 6549TIP3   OH241061   6.677   5.081  12.368 -0.2784  0.4303  0.0892
 6549TIP3    H141062   6.753   5.077  12.310 -1.0209  1.5126 -1.0089
 6549TIP3    H241063   6.631   5.161  12.342 -2.0160 -0.4051  0.4166
 6550TIP3   OH241064   4.097   3.148  11.636  0.0584  0.6618 -0.2919
 6550TIP3    H141065   4.116   3.119  11.725  0.6110  1.4536 -0.1405
 6550TIP3    H241066   4.003   3.167  11.637 -0.0422  0.1693 -0.0313
 6551TIP3   OH241067   0.916   2.950  17.043 -0.0845 -0.2183  0.1365
 6551TIP3    H141068   0.983   2.950  16.975  1.1695 -1.1498  1.3256
 6551TIP3    H241069   0.844   2.899  17.006  0.9166 -1.4368 -0.1839
 6552TIP3   OH241070   6.423   3.860  15.266  0.9632 -0.0653  0.3580
 6552TIP3    H141071   6.410   3.929  15.331  2.3248 -0.4548  1.0808
 6552TIP3    H241072   6.441   3.908  15.185 -1.3492  0.4262  0.0718
 6553TIP3   OH241073   4.327   4.130   2.520  0.0794  0.6681  0.0021
 6553TIP3    H141074   4.328   4.209   2.466 -0.6840  0.2798 -0.6055
 6553TIP3    H241075   4.292   4.062   2.462 -0.2728  0.1209  0.8344
 6554TIP3   OH241076   5.773   4.771   1.582  0.0545 -0.1719  0.3144
 6554TIP3    H141077   5.788   4.717   1.505 -0.8194 -0.7729  0.5534
 6554TIP3    H241078   5.685   4.806   1.569  0.1390  0.2108  0.7557
 6555TIP3   OH241079   3.643   0.505  14.192  0.5096 -0.5706  0.0277
 6555TIP3    H141080   3.560   0.542  14.163 -0.2291 -1.2851  1.1428
 6555TIP3    H241081   3.709   0.551  14.141 -0.6691 -1.5598 -2.5706
 6556TIP3   OH241082   6.696   0.546  13.878 -0.0904 -0.5100 -0.2486
 6556TIP3    H141083   6.729   0.554  13.789 -0.0114  1.2038 -0.1052
 6556TIP3    H241084   6.759   0.489  13.922 -0.4270 -1.8174 -1.3913
 6557TIP3   OH241085   4.994   6.706  13.027 -0.2088  0.4934  0.3900
 6557TIP3    H141086   4.914   6.749  13.056  0.0683 -0.4716  2.8465
 6557TIP3    H241087   4.964   6.625  12.986 -0.5672  1.4420 -1.3173
 6558TIP3   OH241088   4.576   0.724  14.184  0.1806 -0.3858  0.0577
 6558TIP3    H141089   4.662   0.721  14.143  0.5561  0.3650  0.7599
 6558TIP3    H241090   4.583   0.665  14.259 -0.0846 -0.7214 -0.1758
 6559TIP3   OH241091   2.568   5.648   1.035  0.4636  0.0365 -0.5122
 6559TIP3    H141092   2.633   5.700   1.082  0.9308 -1.5926  0.7292
 6559TIP3    H241093   2.513   5.610   1.104 -0.3447 -0.4900 -1.4185
 6560TIP3   OH241094   6.174   1.786  11.522  0.2842  0.8091 -0.2108
 6560TIP3    H141095   6.171   1.794  11.617  1.5469  1.4031 -0.1939
 6560TIP3    H241096   6.164   1.693  11.504  2.3553  0.3777  0.6562
 6561TIP3   OH241097   6.488   5.997  13.827 -0.3836 -0.1997  0.0351
 6561TIP3    H141098   6.476   6.013  13.733 -0.6947  0.7526  0.2244
 6561TIP3    H241099   6.480   6.084  13.867  0.4310 -0.4993  0.8777
 6562TIP3   OH241100   5.175   0.336  12.332  0.2045 -0.0127 -0.3167
 6562TIP3    H141101   5.222   0.413  12.367 -2.4078  1.8272 -0.5539
 6562TIP3    H241102   5.111   0.315  12.401  0.9800 -2.1436 -0.1958
 6563TIP3   OH241103   5.222   6.554   0.678 -0.1849  0.2890 -0.3155
 6563TIP3    H141104   5.294   6.560   0.742  0.2385  1.4173 -0.8697
 6563TIP3    H241105   5.145   6.585   0.726  0.2798  1.8908 -0.5248
 6564TIP3   OH241106   3.988   3.342  15.482  0.9370 -0.1572 -0.2674
 6564TIP3    H141107   3.920   3.279  15.458 -0.0938  0.9751 -0.4097
 6564TIP3    H241108   4.069   3.290  15.484  0.4269 -1.1263 -2.1829
 6565TIP3   OH241109   1.768   5.626  15.140  0.0337 -0.2064 -0.0719
 6565TIP3    H141110   1.729   5.713  15.135  0.2026 -0.0558  0.9810
 6565TIP3    H241111   1.858   5.639  15.108 -0.1848 -0.1640 -0.6783
 6566TIP3   OH241112   6.467   4.010   5.721 -0.0219  0.6175 -0.0685
 6566TIP3    H141113   6.519   4.011   5.641  0.5527 -1.1907  0.2164
 6566TIP3    H241114   6.509   4.075   5.778 -0.6457  2.1585 -1.3121
 6567TIP3   OH241115   5.862   6.336   2.222  0.2403 -0.3980 -0.0630
 6567TIP3    H141116   5.939   6.347   2.278 -0.0380 -0.3654  0.3152
 6567TIP3    H241117   5.847   6.242   2.219 -1.3154 -0.2745  2.0794
 6568TIP3   OH241118   5.346   6.623   2.990  0.0352 -1.0256  0.4433
 6568TIP3    H141119   5.335   6.589   2.901  0.4958 -0.7078  0.2631
 6568TIP3    H241120   5.439   6.646   2.996 -0.6388  2.3121 -0.1984
 6569TIP3   OH241121   1.426   4.625  13.913  0.2516 -0.6111  0.3879
 6569TIP3    H141122   1.377   4.706  13.900  0.2040 -0.5883  0.7002
 6569TIP3    H241123   1.361   4.563  13.947  0.4067 -0.6226  0.6649
 6570TIP3   OH241124   4.439   0.823  11.863 -0.8802 -0.3697  0.0124
 6570TIP3    H141125   4.444   0.888  11.793 -2.7518  0.3699  0.5042
 6570TIP3    H241126   4.353   0.837  11.902 -1.0237 -2.6757  0.6215
 6571TIP3   OH241127   1.798   6.599  16.131  0.1160 -0.2116  0.0759
 6571TIP3    H141128   1.732   6.642  16.184 -0.5047 -1.6920  0.5542
 6571TIP3    H241129   1.755   6.582  16.047  0.2424 -0.2106  0.0102
 6572TIP3   OH241130   6.434   6.504   2.210  0.4924  0.7973  0.3631
 6572TIP3    H141131   6.409   6.515   2.302  0.8180  1.7066  0.3562
 6572TIP3    H241132   6.522   6.540   2.204  0.4453  0.8189 -0.3200
 6573TIP3   OH241133   2.168   2.474   1.311  0.0839  0.1089  0.0980
 6573TIP3    H141134   2.127   2.391   1.337 -0.9357  0.7690  0.6441
 6573TIP3    H241135   2.188   2.463   1.218  2.9156 -1.9586  0.7847
 6574TIP3   OH241136   1.845   0.015   3.523  0.0825  0.2441 -0.5935
 6574TIP3    H141137   1.796  -0.067   3.526 -1.8431  1.3359  0.1313
 6574TIP3    H241138   1.913   0.005   3.590 -0.7310 -0.4192  0.1577
 6575TIP3   OH241139   3.286   3.459   5.039 -0.2700  0.1217  0.1331
 6575TIP3    H141140   3.297   3.502   4.954  0.0081 -0.0781  0.0678
 6575TIP3    H241141   3.311   3.368   5.024  0.3226  0.2076  0.5585
 6576TIP3   OH241142   3.748   1.513  14.695 -0.0151 -0.1921 -0.0793
 6576TIP3    H141143   3.746   1.589  14.636 -0.6085  0.9720  1.3627
 6576TIP3    H241144   3.682   1.533  14.762  0.5147 -1.5351  0.8953
 6577TIP3   OH241145   0.070   5.366   2.710  0.1154  0.1724  0.1977
 6577TIP3    H141146   0.024   5.289   2.676 -0.0466  0.0617  0.6626
 6577TIP3    H241147   0.001   5.429   2.729  0.2193  0.2943  0.1721
 6578TIP3   OH241148   5.518   2.665   1.482  0.1047  0.3938 -0.5585
 6578TIP3    H141149   5.476   2.590   1.440  1.3526 -0.1412 -0.9166
 6578TIP3    H241150   5.610   2.658   1.456  0.6567  0.8370  1.1629
 6579TIP3   OH241151   4.982   5.298  15.666  0.1179  0.1348 -0.3469
 6579TIP3    H141152   5.030   5.284  15.747  1.6500  0.2588 -1.1924
 6579TIP3    H241153   4.937   5.215  15.649  0.5068 -0.1779  0.1557
 6580TIP3   OH241154   4.954   0.176   5.068  0.4666  0.1889 -0.4844
 6580TIP3    H141155   4.967   0.117   5.142 -2.9057 -0.1866 -0.0322
 6580TIP3    H241156   5.014   0.249   5.085  1.0339 -0.6985  1.6714
 6581TIP3   OH241157   1.401   0.188  15.247 -0.1817 -0.5715  0.4026
 6581TIP3    H141158   1.398   0.140  15.165 -1.5979  1.1121 -0.5824
 6581TIP3    H241159   1.487   0.167  15.283  1.5709  0.5646 -2.7274
 6582TIP3   OH241160   2.988   6.489  13.710 -0.5623  0.2768 -0.0808
 6582TIP3    H141161   2.936   6.532  13.778 -2.0081  0.3775 -1.1793
 6582TIP3    H241162   3.027   6.561  13.661 -2.2596  0.3841 -1.3721
 6583TIP3   OH241163   1.784   6.287  11.630 -0.1836  0.4036  0.1597
 6583TIP3    H141164   1.742   6.357  11.580  0.8830  0.6747 -0.4025
 6583TIP3    H241165   1.749   6.296  11.719  0.3718  2.0528  0.2558
 6584TIP3   OH241166   1.587   6.701  13.807 -0.0141 -0.5343  0.1385
 6584TIP3    H141167   1.559   6.757  13.735 -1.2123 -0.0129  0.9636
 6584TIP3    H241168   1.679   6.722  13.820  0.3380 -0.9711 -1.5122
 6585TIP3   OH241169   5.893   1.986  16.024 -0.2429 -0.2085 -0.2775
 6585TIP3    H141170   5.851   1.905  16.051 -0.2965  0.3105  1.2834
 6585TIP3    H241171   5.842   2.055  16.066  1.9483  0.4592  1.4510
 6586TIP3   OH241172   3.350   0.347  17.260  0.1175  0.3487  0.2614
 6586TIP3    H141173   3.308   0.431  17.239 -0.3602  0.0823  0.1396
 6586TIP3    H241174   3.302   0.315  17.337  0.9622  0.6637  0.9349
 6587TIP3   OH241175   0.151   4.740   4.058  0.0439  0.6987  0.1625
 6587TIP3    H141176   0.198   4.663   4.025 -0.4969  0.7561 -0.7447
 6587TIP3    H241177   0.097   4.706   4.129  1.2424  0.5828  1.0493
 6588TIP3   OH241178   3.133   1.637   6.080  0.4683  0.1913 -0.2704
 6588TIP3    H141179   3.157   1.555   6.037  2.0512  0.7667 -0.5399
 6588TIP3    H241180   3.109   1.612   6.169 -0.0554 -0.6768 -0.6460
 6589TIP3   OH241181   4.249   3.030  16.922 -0.1598 -0.3270  0.0179
 6589TIP3    H141182   4.198   3.041  16.842  2.1335 -0.5047 -1.6035
 6589TIP3    H241183   4.224   2.943  16.955 -1.0531 -0.3033 -0.5717
 6590TIP3   OH241184   0.032   0.756   4.917  0.1969 -0.1345  0.0146
 6590TIP3    H141185  -0.013   0.678   4.949 -2.3251  1.7873  1.6694
 6590TIP3    H241186   0.055   0.804   4.997  0.2701  1.5007 -0.9489
 6591TIP3   OH241187   5.737   6.387   1.612 -0.2519  0.2907  0.5374
 6591TIP3    H141188   5.713   6.335   1.536 -1.5680  1.4971  0.0756
 6591TIP3    H241189   5.666   6.451   1.621  0.0696  0.4432  2.5361
 6592TIP3   OH241190   3.001   2.024  14.632 -0.0346 -0.6588  0.2708
 6592TIP3    H141191   3.041   2.076  14.701  0.8198  0.8493 -1.2863
 6592TIP3    H241192   3.035   1.935  14.647  0.7917 -0.1933  1.2825
 6593TIP3   OH241193   1.797   4.805   3.205  0.0101 -0.7865  0.3433
 6593TIP3    H141194   1.848   4.772   3.279  0.5166 -0.8992 -0.0542
 6593TIP3    H241195   1.755   4.885   3.238  0.0811 -0.9439  0.8095
 6594TIP3   OH241196   3.616   5.407   5.451  0.2453  0.5173 -0.0466
 6594TIP3    H141197   3.650   5.485   5.494 -0.2320  0.8054 -0.1783
 6594TIP3    H241198   3.658   5.334   5.496  1.0149  0.8592 -0.1932
 6595TIP3   OH241199   2.010   3.578  13.020 -0.1446  0.0321  0.2751
 6595TIP3    H141200   1.942   3.546  13.080  1.5032 -1.3712  1.4664
 6595TIP3    H241201   1.965   3.645  12.967 -2.3234 -0.5262  1.3026
 6596TIP3   OH241202   5.958   2.048  13.134 -0.1782 -0.6360 -0.5353
 6596TIP3    H141203   5.961   2.124  13.076 -0.4911  0.1579  0.4670
 6596TIP3    H241204   5.883   1.998  13.104 -0.3792 -0.1970 -0.7717
 6597TIP3   OH241205   2.818   0.918   0.570  0.6920  0.4221 -0.3398
 6597TIP3    H141206   2.727   0.945   0.580  1.2328  1.9426  1.0154
 6597TIP3    H241207   2.844   0.887   0.657  1.7917  1.1926 -0.3630
 6598TIP3   OH241208   4.552   2.901   0.355  0.2281 -0.2670 -0.1593
 6598TIP3    H141209   4.551   2.904   0.450  1.6543 -0.1604 -0.1149
 6598TIP3    H241210   4.527   2.989   0.327  1.4237  0.2083  0.1834
 6599TIP3   OH241211   4.533   6.206   0.244 -0.0831  0.4323 -0.0661
 6599TIP3    H141212   4.583   6.146   0.298 -2.6415 -0.7241  1.1896
 6599TIP3    H241213   4.519   6.159   0.161  1.5149  1.1073 -0.7669
 6600TIP3   OH241214   4.153   4.096  12.044 -0.0756  0.1355 -0.1140
 6600TIP3    H141215   4.076   4.144  12.074 -0.3507  0.0142 -0.6252
 6600TIP3    H241216   4.141   4.085  11.950  0.2260 -0.4977 -0.0899
 6601TIP3   OH241217   0.744   5.404   1.269 -0.4813 -0.8976 -0.5746
 6601TIP3    H141218   0.832   5.385   1.237 -0.3789 -0.8851 -0.3036
 6601TIP3    H241219   0.689   5.400   1.191 -0.4232 -2.0146 -0.5740
 6602TIP3   OH241220   1.616   6.508  11.610  0.2366  0.0276  0.2950
 6602TIP3    H141221   1.544   6.514  11.672  0.5062 -1.0530  0.7377
 6602TIP3    H241222   1.692   6.543  11.657  0.1871  0.3511  0.1371
 6603TIP3   OH241223   2.809   5.734  14.037 -0.1047  0.1841  0.3211
 6603TIP3    H141224   2.855   5.660  13.997  0.8155  0.7223  0.3623
 6603TIP3    H241225   2.835   5.730  14.129  1.1511  1.4203  0.0491
 6604TIP3   OH241226   6.197   3.465   5.374 -0.2635 -0.4396 -0.3851
 6604TIP3    H141227   6.160   3.517   5.446  2.6112 -2.1298  2.5731
 6604TIP3    H241228   6.268   3.519   5.340  2.3770 -1.9249  2.3366
 6605TIP3   OH241229   5.952   3.365  10.581  0.2591  0.2469 -0.3093
 6605TIP3    H141230   5.902   3.301  10.531  1.1941 -1.8103  1.2248
 6605TIP3    H241231   5.894   3.389  10.653  0.6455 -0.5286  0.2834
 6606TIP3   OH241232   2.049   5.614  14.958 -0.2782 -0.2257 -0.1138
 6606TIP3    H141233   2.037   5.641  14.867 -0.6273 -1.8868 -0.5946
 6606TIP3    H241234   2.047   5.518  14.955  2.8400 -0.4387  1.2278
 6607TIP3   OH241235   4.146   0.888   4.974 -0.1599  0.2665 -0.3389
 6607TIP3    H141236   4.147   0.953   5.044 -0.5372  0.5259 -0.5693
 6607TIP3    H241237   4.208   0.820   5.003  1.6533  1.5949 -0.9225
 6608TIP3   OH241238   1.409   5.507   3.280  1.0774  0.0118 -0.3754
 6608TIP3    H141239   1.440   5.559   3.206  1.3460  1.9833  1.0497
 6608TIP3    H241240   1.425   5.562   3.357  2.9574 -2.8244  1.4785
 6609TIP3   OH241241   4.945   3.918   4.392  0.5474 -0.2872  0.2616
 6609TIP3    H141242   4.942   3.968   4.311  0.4516  0.5362  0.7519
 6609TIP3    H241243   4.865   3.943   4.438  0.6810 -0.6122  0.6783
 6610TIP3   OH241244   4.128   4.933  13.845  0.7897 -0.7230 -0.0132
 6610TIP3    H141245   4.100   4.842  13.833 -0.5767 -0.4993  1.2493
 6610TIP3    H241246   4.156   4.938  13.936 -0.3946  0.4116  0.3136
 6611TIP3   OH241247   4.813   6.210   5.934 -1.1744 -0.6966 -0.5542
 6611TIP3    H141248   4.765   6.292   5.946  0.5809  0.0355  2.3631
 6611TIP3    H241249   4.749   6.142   5.955 -1.5278  0.1692  1.3817
 6612TIP3   OH241250   6.186   1.122   3.616 -0.0457 -0.7159  0.0109
 6612TIP3    H141251   6.177   1.121   3.711  0.0417  1.8593  0.1361
 6612TIP3    H241252   6.096   1.124   3.583 -0.0810 -1.9295 -0.0032
 6613TIP3   OH241253   0.838   6.161  14.417  0.2312 -0.2320 -0.0372
 6613TIP3    H141254   0.929   6.143  14.441 -0.0344 -0.7183  0.6079
 6613TIP3    H241255   0.842   6.181  14.324  0.7988 -1.7298 -0.3626
 6614TIP3   OH241256   4.093   1.809   4.574 -0.2991  0.0216  0.3516
 6614TIP3    H141257   4.177   1.845   4.546 -0.5886  0.7374  0.4031
 6614TIP3    H241258   4.087   1.829   4.667 -0.1219 -0.8427  0.5661
 6615TIP3   OH241259   1.331   5.398   0.978  0.4014 -0.1624 -0.0866
 6615TIP3    H141260   1.362   5.485   1.004 -0.1731 -0.2447  0.9460
 6615TIP3    H241261   1.353   5.391   0.885  0.1032  1.2456 -0.2841
 6616TIP3   OH241262   6.728   3.949   2.612 -0.4718 -0.4099 -0.1483
 6616TIP3    H141263   6.648   4.000   2.596  0.1519  1.3622  1.9208
 6616TIP3    H241264   6.739   3.950   2.707  1.3443 -1.7132 -0.2821
 6617TIP3   OH241265   0.677   2.966   4.994 -0.3008 -0.3470  0.1328
 6617TIP3    H141266   0.752   2.925   4.952 -0.2308 -1.3166  1.1759
 6617TIP3    H241267   0.601   2.918   4.962 -0.6697  1.5200 -2.0176
 6618TIP3   OH241268   1.659   1.825   4.869 -0.1255 -0.0056 -0.3217
 6618TIP3    H141269   1.591   1.882   4.906  0.3434 -0.1896  0.8778
 6618TIP3    H241270   1.661   1.847   4.776 -0.5931  1.2765 -0.0540
 6619TIP3   OH241271   0.723   4.346   4.778  0.3134 -0.2415  0.3590
 6619TIP3    H141272   0.678   4.317   4.858 -1.0404  0.4509 -0.1279
 6619TIP3    H241273   0.674   4.423   4.750  0.3588 -0.8615 -1.5150
 6620TIP3   OH241274   0.910   3.887  15.886  0.8210 -0.0223  0.4877
 6620TIP3    H141275   0.979   3.821  15.876  0.6457 -0.2010  0.4680
 6620TIP3    H241276   0.859   3.858  15.961 -1.4927 -1.9395 -1.6426
 6621TIP3   OH241277   5.447   2.253   0.453  0.4430 -0.3057  0.4951
 6621TIP3    H141278   5.435   2.305   0.374 -4.0698  0.4124  1.3757
 6621TIP3    H241279   5.464   2.164   0.421 -1.3473 -0.0588 -1.3406
 6622TIP3   OH241280   4.048   3.210  16.696 -0.3659  0.1251 -0.0592
 6622TIP3    H141281   3.971   3.263  16.674 -1.0813 -0.0560  1.7858
 6622TIP3    H241282   4.112   3.230  16.628 -1.8452  0.7184 -1.3192
 6623TIP3   OH241283   3.224   2.729  16.921  0.1316  0.4167  0.5180
 6623TIP3    H141284   3.157   2.697  16.861  0.9397 -1.7566  0.6926
 6623TIP3    H241285   3.175   2.762  16.996 -0.7722 -1.0524  0.6070
 6624TIP3   OH241286   4.178   2.406   0.239 -0.6971 -0.4002 -0.1885
 6624TIP3    H141287   4.256   2.378   0.191 -0.4284 -1.8708  1.0091
 6624TIP3    H241288   4.149   2.485   0.194  1.8511  0.5689 -0.2938
 6625TIP3   OH241289   2.471   3.576   4.436  0.3309 -0.4483  0.1596
 6625TIP3    H141290   2.392   3.598   4.486  1.1891 -0.3494  1.5323
 6625TIP3    H241291   2.516   3.660   4.424  0.3050 -0.5220 -0.5181
 6626TIP3   OH241292   1.794   3.226   3.428  0.1969 -0.0902 -0.1567
 6626TIP3    H141293   1.821   3.233   3.337  1.0080  2.1807  0.1871
 6626TIP3    H241294   1.783   3.317   3.457 -0.8501 -0.7650  1.7844
 6627TIP3   OH241295   6.422   3.436   2.354  0.1199  0.2539  0.0513
 6627TIP3    H141296   6.515   3.413   2.355  0.4724  1.4549 -1.2893
 6627TIP3    H241297   6.407   3.478   2.438  0.7222 -0.2099  0.3972
 6628TIP3   OH241298   3.455   4.624  12.541  0.5735  0.0978 -0.1353
 6628TIP3    H141299   3.449   4.528  12.535 -0.5434  0.1398  0.1282
 6628TIP3    H241300   3.377   4.650  12.589  1.1064  1.1184  0.2006
 6629TIP3   OH241301   1.098   3.472  15.531  0.4333  0.6134  0.2003
 6629TIP3    H141302   1.191   3.480  15.554  0.7097  0.3638 -0.7485
 6629TIP3    H241303   1.078   3.379  15.540  0.9991  0.2008 -2.0185
 6630TIP3   OH241304   1.598   1.380   2.516 -0.5145 -0.6165 -0.5683
 6630TIP3    H141305   1.660   1.451   2.499  0.9292 -1.6508  0.2143
 6630TIP3    H241306   1.531   1.420   2.572  0.4521  0.0695  0.1258
 6631TIP3   OH241307   0.796   4.586   6.120 -0.2429 -0.0564  0.1728
 6631TIP3    H141308   0.778   4.644   6.193  4.0271  3.3252 -1.0796
 6631TIP3    H241309   0.863   4.525   6.152 -1.2644 -1.2652  0.1102
 6632TIP3   OH241310   5.575   1.390  14.118 -0.3831  0.3014  0.4690
 6632TIP3    H141311   5.481   1.395  14.139  0.1065  0.9246  2.9093
 6632TIP3    H241312   5.611   1.470  14.156  1.5164 -1.2196  2.0994
 6633TIP3   OH241313   2.619   3.666   0.920  0.1258 -0.2736  0.2362
 6633TIP3    H141314   2.649   3.581   0.953 -0.3052 -0.4920  0.0740
 6633TIP3    H241315   2.588   3.647   0.831  1.7491  0.3983 -0.5175
 6634TIP3   OH241316   4.704   0.959  11.635 -0.1212  0.0011  0.4075
 6634TIP3    H141317   4.645   1.033  11.631 -1.0934 -0.7984 -1.2584
 6634TIP3    H241318   4.648   0.882  11.626  0.9412 -0.9036  1.1978
 6635TIP3   OH241319   2.423   4.141   3.795  0.0927  0.5432  0.0967
 6635TIP3    H141320   2.377   4.146   3.878 -1.3942 -3.1094 -0.3101
 6635TIP3    H241321   2.516   4.132   3.819 -0.2501  0.1736  1.3316
 6636TIP3   OH241322   4.430   4.279  14.053 -0.3753  0.0837  0.0590
 6636TIP3    H141323   4.430   4.243  13.964 -0.6995  0.4800 -0.1076
 6636TIP3    H241324   4.394   4.367  14.042  2.3521  1.2833  0.1256
 6637TIP3   OH241325   3.130   5.367  12.606 -0.4514 -0.1931  0.1477
 6637TIP3    H141326   3.129   5.458  12.576 -0.2429 -0.1782  0.1859
 6637TIP3    H241327   3.067   5.322  12.549  1.4116 -0.6085 -1.6863
 6638TIP3   OH241328   0.019   3.825   2.392  0.5681 -0.1846 -0.0211
 6638TIP3    H141329  -0.067   3.786   2.383  0.8511 -1.2133  1.3694
 6638TIP3    H241330   0.014   3.877   2.472  1.2523 -0.3253  0.1262
 6639TIP3   OH241331   3.083   5.327   4.069  0.7376 -0.1353 -0.2693
 6639TIP3    H141332   3.175   5.335   4.040  0.9204 -1.4632 -0.0861
 6639TIP3    H241333   3.035   5.384   4.008  1.9977  3.2675  1.6053
 6640TIP3   OH241334   6.432   5.559   0.248 -0.0657 -0.0702  0.5465
 6640TIP3    H141335   6.488   5.513   0.311  0.8347  1.0208  0.5852
 6640TIP3    H241336   6.374   5.612   0.302  0.7475  0.9122  0.4944
 6641TIP3   OH241337   6.527   4.883  14.982 -0.9207  0.0158 -0.5658
 6641TIP3    H141338   6.516   4.790  14.962  0.3944 -0.3510  0.2790
 6641TIP3    H241339   6.613   4.889  15.023  0.0504  1.9723 -2.7025
 6642TIP3   OH241340   2.738   0.896  17.119  0.3454 -0.9010  0.3823
 6642TIP3    H141341   2.696   0.888  17.033  0.9270  0.2189 -0.0379
 6642TIP3    H241342   2.828   0.867  17.103  0.9114  0.8427  0.1840
 6643TIP3   OH241343   0.433   4.462   2.572  0.0636  0.1123 -0.3300
 6643TIP3    H141344   0.448   4.541   2.624 -0.4989  0.4781 -0.7127
 6643TIP3    H241345   0.394   4.494   2.490 -0.8341 -0.6210 -0.2056
 6644TIP3   OH241346   5.514   6.265  14.702 -0.0099  0.9951  0.1190
 6644TIP3    H141347   5.499   6.171  14.710  1.6915  0.7959  1.4404
 6644TIP3    H241348   5.545   6.277  14.612 -0.5610  0.3565 -0.1602
 6645TIP3   OH241349   6.678   0.201   1.180  0.2663 -0.0799 -0.6280
 6645TIP3    H141350   6.688   0.272   1.117 -0.5497  0.5358 -0.0912
 6645TIP3    H241351   6.592   0.163   1.160  1.0878 -1.5599 -1.5252
 6646TIP3   OH241352   5.275   1.545   3.198  0.2482  0.3210 -0.0265
 6646TIP3    H141353   5.312   1.460   3.224  0.9058 -0.4346 -3.0809
 6646TIP3    H241354   5.264   1.592   3.281  0.6368 -2.4024  1.7113
 6647TIP3   OH241355   2.009   4.648  10.848 -0.0418 -0.2473  0.5579
 6647TIP3    H141356   1.943   4.710  10.879  0.2781  0.9472 -1.0178
 6647TIP3    H241357   1.964   4.599  10.779  0.1503 -0.7427  0.7855
 6648TIP3   OH241358   6.657   1.149   5.549 -0.3355  0.0680  0.1697
 6648TIP3    H141359   6.579   1.169   5.602 -0.0872  1.4034  0.0763
 6648TIP3    H241360   6.691   1.068   5.586  0.6784  1.6946  3.1295
 6649TIP3   OH241361   5.622   6.205   2.544 -0.6485 -0.0613  0.4467
 6649TIP3    H141362   5.588   6.116   2.537 -0.5225 -0.2207  1.6671
 6649TIP3    H241363   5.715   6.197   2.523 -1.0576  0.1699 -1.6468
 6650TIP3   OH241364   2.539   4.870   2.714 -0.2662 -0.0070 -0.0620
 6650TIP3    H141365   2.558   4.964   2.720  0.5124 -0.0747 -1.1196
 6650TIP3    H241366   2.540   4.840   2.805  2.5702  0.4619  0.1512
 6651TIP3   OH241367   4.034   4.165  15.439  0.4699  0.2493  0.1974
 6651TIP3    H141368   3.966   4.219  15.398  0.7801 -0.0050 -0.6595
 6651TIP3    H241369   4.009   4.075  15.418  1.1325  0.1600 -0.2135
 6652TIP3   OH241370   3.962   2.141   2.462  1.0398 -0.1150  0.5697
 6652TIP3    H141371   3.899   2.117   2.530  0.3672  0.6660  0.2356
 6652TIP3    H241372   4.042   2.095   2.487  0.5451 -0.5572  1.3935
 6653TIP3   OH241373   2.337   0.317  14.447  0.2427 -0.1026 -0.1105
 6653TIP3    H141374   2.331   0.292  14.354 -0.0794  0.2175 -0.1813
 6653TIP3    H241375   2.305   0.407  14.449  0.6307  0.0285  0.2553
 6654TIP3   OH241376   2.480   0.751  14.989  0.2103 -0.2947 -0.0796
 6654TIP3    H141377   2.571   0.753  14.961 -0.0777 -2.7238 -1.4582
 6654TIP3    H241378   2.436   0.814  14.932  0.8168 -0.0294 -0.2595
 6655TIP3   OH241379   5.985   1.683  14.353  0.0636  0.0966  0.0350
 6655TIP3    H141380   6.066   1.655  14.396 -0.4051  1.4215  1.9243
 6655TIP3    H241381   6.003   1.772  14.322  0.1848 -0.6062 -2.0849
 6656TIP3   OH241382   4.433   2.080  12.221 -0.0117  0.2012 -0.1606
 6656TIP3    H141383   4.374   2.153  12.237 -0.4917 -0.1936 -0.1065
 6656TIP3    H241384   4.505   2.118  12.171  1.2051  1.3144  2.2785
 6657TIP3   OH241385   1.313   6.408  16.966  0.5318 -0.1679  0.7439
 6657TIP3    H141386   1.384   6.352  16.935  0.0424 -2.1512  2.9580
 6657TIP3    H241387   1.325   6.490  16.919  3.1027 -1.1080 -0.3915
 6658TIP3   OH241388   2.456   4.710  15.394 -0.5502  0.6404 -0.3995
 6658TIP3    H141389   2.504   4.725  15.312  0.4854  0.2704  0.1178
 6658TIP3    H241390   2.471   4.618  15.414  0.7069  1.1246  1.1013
 6659TIP3   OH241391   4.447   2.071   3.107 -0.2588 -0.1328 -0.6632
 6659TIP3    H141392   4.390   2.132   3.154  0.8340  0.8015 -0.5073
 6659TIP3    H241393   4.451   2.106   3.018  1.2151  0.6837 -0.3162
 6660TIP3   OH241394   6.196   1.453   4.475 -0.1700 -0.0097  0.1578
 6660TIP3    H141395   6.231   1.504   4.548  1.2454 -0.6042 -0.0797
 6660TIP3    H241396   6.123   1.404   4.513 -0.2379  0.6225  0.8679
 6661TIP3   OH241397   4.824   1.963  12.446 -0.4838 -0.0079  0.2382
 6661TIP3    H141398   4.728   1.962  12.440 -0.4426  1.5776 -1.9627
 6661TIP3    H241399   4.854   1.928  12.362  0.9252 -1.1733  1.1721
 6662TIP3   OH241400   5.064   0.267  15.412  0.0763 -0.2028 -0.4322
 6662TIP3    H141401   5.009   0.338  15.380  1.9554 -0.0777 -3.8435
 6662TIP3    H241402   5.034   0.189  15.365  1.0568 -0.6600 -0.3301
 6663TIP3   OH241403   4.693   3.661  16.468  0.4142 -0.4781 -0.0607
 6663TIP3    H141404   4.689   3.751  16.499 -1.7305 -0.9083  1.1391
 6663TIP3    H241405   4.707   3.669  16.373  0.5813  1.0875  0.0658
 6664TIP3   OH241406   1.969   6.508   4.717 -0.8295 -0.1200 -0.0204
 6664TIP3    H141407   1.949   6.585   4.769 -1.0851 -0.6158  0.6353
 6664TIP3    H241408   1.928   6.435   4.765  0.0695 -0.7656 -0.1991
 6665TIP3   OH241409   0.869   3.567   2.838 -0.2287 -0.1784  0.0099
 6665TIP3    H141410   0.778   3.586   2.859  0.0592  3.0990 -1.2064
 6665TIP3    H241411   0.876   3.583   2.744  1.3744 -1.6954 -0.1875
 6666TIP3   OH241412   2.698   1.367  14.813 -0.3060 -0.3995  0.2799
 6666TIP3    H141413   2.737   1.322  14.737 -2.3345  2.6637 -2.9160
 6666TIP3    H241414   2.616   1.321  14.828  0.6950 -1.8437  1.6414
 6667TIP3   OH241415   1.113   6.268   5.904 -0.1325  0.0079 -0.1919
 6667TIP3    H141416   1.104   6.195   5.844  0.6520 -0.8447  0.6993
 6667TIP3    H241417   1.076   6.343   5.857  0.4986 -0.6224 -1.7304
 6668TIP3   OH241418   1.662   0.550   4.327 -0.1537  0.4292  0.1088
 6668TIP3    H141419   1.580   0.552   4.278 -0.8436  0.4836  1.2284
 6668TIP3    H241420   1.645   0.602   4.405  1.2629  1.2578 -0.0913
 6669TIP3   OH241421   2.642   4.224   0.162 -0.6590  0.1313  0.2675
 6669TIP3    H141422   2.682   4.138   0.176  1.3565  1.0515  0.5263
 6669TIP3    H241423   2.557   4.205   0.122 -1.1519 -2.0325  2.1640
 6670TIP3   OH241424   1.564   3.744  12.723 -0.2784 -0.1930 -0.3027
 6670TIP3    H141425   1.572   3.783  12.809 -0.3412  1.0595 -0.8404
 6670TIP3    H241426   1.472   3.718  12.717 -0.5382  0.6910 -0.3701
 6671TIP3   OH241427   2.389   2.117   3.891 -0.4304  0.3674  0.5712
 6671TIP3    H141428   2.360   2.178   3.958  1.2283  0.5685  1.1506
 6671TIP3    H241429   2.485   2.117   3.898 -0.0718  1.2539 -2.5124
 6672TIP3   OH241430   2.275   5.420   0.078  0.4018 -0.1291 -0.5498
 6672TIP3    H141431   2.335   5.397   0.007 -1.4764 -1.9695 -1.6667
 6672TIP3    H241432   2.264   5.339   0.128 -1.0509  0.1473 -0.3592
 6673TIP3   OH241433   6.577   0.148   1.493  0.1625  0.1105 -0.0105
 6673TIP3    H141434   6.648   0.210   1.509 -0.4845  0.4934  1.5581
 6673TIP3    H241435   6.535   0.180   1.413  0.4693  1.1225  0.2121
 6674TIP3   OH241436   2.491   2.398   6.651  0.1001  0.5540  0.0966
 6674TIP3    H141437   2.577   2.378   6.613 -0.3066  0.0811 -0.6028
 6674TIP3    H241438   2.482   2.493   6.639  0.3695  0.5482 -0.1749
 6675TIP3   OH241439   3.860   0.897   0.594  0.8646  0.1749 -0.3014
 6675TIP3    H141440   3.952   0.916   0.609  0.5987  0.4473  1.1065
 6675TIP3    H241441   3.844   0.816   0.641  0.7927 -0.8870 -2.0768
 6676TIP3   OH241442   4.510   5.878   0.064 -0.1101 -0.4920 -0.2984
 6676TIP3    H141443   4.558   5.957   0.041 -1.7314 -0.2130 -3.0678
 6676TIP3    H241444   4.534   5.815  -0.004 -0.0129 -1.9596  1.0160
 6677TIP3   OH241445   1.562   6.585  17.062  0.0428 -0.3745 -0.9176
 6677TIP3    H141446   1.579   6.497  17.098 -0.0365  0.3620  1.0607
 6677TIP3    H241447   1.622   6.642  17.110 -3.0596  1.3145  1.3236
 6678TIP3   OH241448   1.909   5.241  11.865 -0.4398  0.1019 -0.9159
 6678TIP3    H141449   1.891   5.283  11.950 -0.2999 -0.2305 -0.7178
 6678TIP3    H241450   1.859   5.292  11.802  0.7397  1.3788 -0.8727
 6679TIP3   OH241451   3.080   2.341  15.826  0.8507  0.2965  0.1031
 6679TIP3    H141452   3.017   2.374  15.762 -0.0432  1.2273  1.4004
 6679TIP3    H241453   3.061   2.247  15.832  1.5136  0.0202 -1.5644
 6680TIP3   OH241454   0.984   3.086   0.232  0.0920  0.2645  0.2041
 6680TIP3    H141455   0.906   3.033   0.251 -0.5181  0.3526 -1.7453
 6680TIP3    H241456   0.949   3.168   0.197  1.0217  0.0022 -1.4405
 6681TIP3   OH241457   4.548   4.278   2.706 -0.3097  0.3324  0.1421
 6681TIP3    H141458   4.579   4.264   2.617 -0.8946 -1.2542  0.1453
 6681TIP3    H241459   4.466   4.230   2.710  0.5147 -1.0397  1.9913
 6682TIP3   OH241460   6.065   0.921  16.397 -0.2062  0.3382  0.3121
 6682TIP3    H141461   6.133   0.982  16.370 -0.3643  0.0360 -0.8008
 6682TIP3    H241462   6.111   0.838  16.413 -0.4587 -0.2375 -1.7487
 6683TIP3   OH241463   1.741   5.248   4.877 -0.0652  0.0806  0.2046
 6683TIP3    H141464   1.655   5.207   4.864 -0.2200  0.5425 -0.2752
 6683TIP3    H241465   1.735   5.331   4.829  1.6040 -1.1176 -2.3132
 6684TIP3   OH241466   6.692   0.448   4.923  0.4230  0.0611  0.1501
 6684TIP3    H141467   6.642   0.444   5.004  1.6926 -0.2748  0.9445
 6684TIP3    H241468   6.667   0.370   4.875  0.0837 -0.0305  0.4767
 6685TIP3   OH241469   2.761   6.015   0.940  0.1363  0.0384 -0.2216
 6685TIP3    H141470   2.675   6.005   0.979 -1.0215  2.6148 -1.8542
 6685TIP3    H241471   2.781   5.929   0.903 -0.9531 -1.0364  1.5296
 6686TIP3   OH241472   0.145   2.939   0.505  0.3670 -0.5481  0.3510
 6686TIP3    H141473   0.228   2.979   0.480  0.6249 -0.0393  1.9274
 6686TIP3    H241474   0.079   2.986   0.455  0.8813  0.1774  0.3489
 6687TIP3   OH241475   0.646   1.530  17.003 -0.3208  1.0326  0.6473
 6687TIP3    H141476   0.720   1.494  16.954 -1.5645  1.5703 -1.7602
 6687TIP3    H241477   0.683   1.605  17.050  0.8200  0.7888  0.1804
 6688TIP3   OH241478   5.803   0.206  15.685 -0.0224 -0.2420 -0.7437
 6688TIP3    H141479   5.814   0.287  15.736  0.6926  1.0842 -2.8698
 6688TIP3    H241480   5.789   0.138  15.751  0.8612  1.3607  1.2173
 6689TIP3   OH241481   0.894   2.705  13.533  0.3585 -0.1905  0.3845
 6689TIP3    H141482   0.974   2.678  13.578  0.7726 -1.3980 -1.0006
 6689TIP3    H241483   0.923   2.760  13.461 -0.2141  0.7911  0.8753
 6690TIP3   OH241484   4.740   5.708   3.221 -0.3062  0.7108  0.1307
 6690TIP3    H141485   4.652   5.676   3.243 -0.6796  1.1708 -0.6615
 6690TIP3    H241486   4.739   5.715   3.126  1.2523 -1.1806 -0.0960
 6691TIP3   OH241487   1.952   3.588  14.164 -0.4691  0.6397  0.1983
 6691TIP3    H141488   2.038   3.603  14.202  0.0990 -0.2693 -0.6950
 6691TIP3    H241489   1.925   3.673  14.130 -0.3732  1.1494  1.3422
 6692TIP3   OH241490   6.338   6.029  14.586 -0.5220 -0.4624 -0.1479
 6692TIP3    H141491   6.269   6.093  14.602  0.1489  0.0466  0.7727
 6692TIP3    H241492   6.352   5.987  14.671  1.3328  0.5030  0.0718
 6693TIP3   OH241493   4.689   0.674   6.220 -0.2098  0.0963  0.1835
 6693TIP3    H141494   4.750   0.732   6.266 -0.5334  1.6759 -1.2860
 6693TIP3    H241495   4.615   0.666   6.280 -0.8727  2.5725 -0.2188
 6694TIP3   OH241496   0.468   5.730   3.966 -0.3345  0.3957  0.0979
 6694TIP3    H141497   0.497   5.821   3.974 -2.2927  1.2020 -1.1736
 6694TIP3    H241498   0.457   5.717   3.871 -1.0646 -0.8387  0.3275
 6695TIP3   OH241499   4.289   5.806   0.423 -0.0423  0.5338  0.2110
 6695TIP3    H141500   4.366   5.798   0.367  0.2401  1.3313  0.4705
 6695TIP3    H241501   4.215   5.780   0.367  0.2624  1.0649 -0.4572
 6696TIP3   OH241502   5.957   1.574  16.358  0.3732 -0.1728  0.2111
 6696TIP3    H141503   5.866   1.599  16.379  0.1302 -0.3492 -0.5939
 6696TIP3    H241504   5.985   1.640  16.294  0.7606 -0.2154  0.3391
 6697TIP3   OH241505   4.936   2.382  14.165 -0.1649 -0.3711  0.0970
 6697TIP3    H141506   4.947   2.296  14.207  0.6390  0.4191  1.5824
 6697TIP3    H241507   5.025   2.418  14.161 -0.5811  0.7071  0.2008
 6698TIP3   OH241508   6.473   2.594   1.567 -0.5822  0.8830  0.7238
 6698TIP3    H141509   6.416   2.573   1.640 -1.2889  1.5646  0.3795
 6698TIP3    H241510   6.441   2.540   1.495  0.7757 -0.5952  1.1577
 6699TIP3   OH241511   2.968   1.419  16.582  0.5350 -0.3880  0.4110
 6699TIP3    H141512   3.057   1.386  16.592  0.4816 -0.3415  1.0822
 6699TIP3    H241513   2.935   1.426  16.672  0.1955  0.5074  0.2255
 6700TIP3   OH241514   3.109   3.539   4.254  0.0056 -0.7744 -0.0924
 6700TIP3    H141515   3.104   3.569   4.163  2.2194 -0.3815 -0.1486
 6700TIP3    H241516   3.200   3.512   4.265 -0.0566 -0.2573  2.1800
 6701TIP3   OH241517   0.479   2.019  15.671  0.3077  0.0771  0.0017
 6701TIP3    H141518   0.562   1.974  15.651  1.1870  2.0362 -1.1151
 6701TIP3    H241519   0.411   1.957  15.646  1.4683 -0.7207 -1.3234
 6702TIP3   OH241520   6.718   5.464  11.006 -0.0412  0.1406  0.1622
 6702TIP3    H141521   6.686   5.450  11.095 -1.3448 -0.4018 -0.3623
 6702TIP3    H241522   6.651   5.426  10.950  1.5397 -1.0443 -1.0248
 6703TIP3   OH241523   0.151   1.777   4.132 -0.5486  0.1671  0.1241
 6703TIP3    H141524   0.182   1.866   4.149  0.5085 -0.4258  1.4765
 6703TIP3    H241525   0.104   1.753   4.212 -1.1152 -0.3716 -0.3668
 6704TIP3   OH241526   3.126   5.469   2.920  0.4128 -0.7680  0.1522
 6704TIP3    H141527   3.220   5.482   2.914  0.7438 -3.0718 -1.1598
 6704TIP3    H241528   3.112   5.425   3.004  0.4252 -0.0099  0.5578
 6705TIP3   OH241529   0.197   0.848  15.093  0.3044  0.0691  0.1619
 6705TIP3    H141530   0.284   0.883  15.074 -0.4083  1.7821 -0.0769
 6705TIP3    H241531   0.183   0.869  15.186 -0.4840  1.2523 -0.2089
 6706TIP3   OH241532   1.237   5.205  14.035 -0.2507  0.4564 -0.1303
 6706TIP3    H141533   1.183   5.156  13.973  0.4773  0.0809 -0.4876
 6706TIP3    H241534   1.298   5.140  14.070 -1.5961  0.3296  2.1293
 6707TIP3   OH241535   2.235   3.787   5.412  0.5069 -0.2226 -0.4725
 6707TIP3    H141536   2.223   3.882   5.417  1.6656  0.1028 -2.8325
 6707TIP3    H241537   2.154   3.754   5.373  0.0484 -0.2491  0.4746
 6708TIP3   OH241538   6.006   4.634  14.236  0.1066 -0.4067 -0.2029
 6708TIP3    H141539   6.031   4.721  14.266  2.8726 -1.6377  1.4884
 6708TIP3    H241540   5.977   4.589  14.316  0.2044 -1.4685 -0.7492
 6709TIP3   OH241541   1.561   6.759  14.704 -0.9593 -0.0348 -0.1152
 6709TIP3    H141542   1.583   6.745  14.611 -2.4706  2.4281 -0.9230
 6709TIP3    H241543   1.473   6.797  14.702 -1.0017  0.1283  2.3704
 6710TIP3   OH241544   3.093   5.491  16.864 -0.0818  0.0785 -0.4923
 6710TIP3    H141545   3.053   5.577  16.851 -0.5246 -0.3605 -2.4501
 6710TIP3    H241546   3.027   5.441  16.912  0.2778  0.8763  0.8716
 6711TIP3   OH241547   4.560   2.957  16.017  0.2071 -0.1901  0.0871
 6711TIP3    H141548   4.655   2.953  16.018  0.2554 -0.3977 -1.5650
 6711TIP3    H241549   4.535   2.904  15.941 -1.2953 -1.1050  1.1528
 6712TIP3   OH241550   0.946   2.988  12.807 -0.1032 -0.0051 -0.3569
 6712TIP3    H141551   0.877   2.922  12.811 -0.4881  0.3422 -1.0990
 6712TIP3    H241552   1.020   2.943  12.766 -0.1019 -0.1999 -0.1403
 6713TIP3   OH241553   6.262   3.282  14.524  0.4783 -0.3807 -0.3574
 6713TIP3    H141554   6.228   3.316  14.606  0.6144 -0.1497 -0.3945
 6713TIP3    H241555   6.312   3.204  14.549  2.3649  0.8844  0.0749
 6714TIP3   OH241556   3.982   4.956   6.174 -0.0773 -0.2957  0.3224
 6714TIP3    H141557   3.980   5.030   6.235 -1.5890 -0.9772  1.1598
 6714TIP3    H241558   3.964   4.994   6.089  0.3746  0.4510  0.5539
 6715TIP3   OH241559   4.628   4.699   3.357  0.0411  0.2461  0.0310
 6715TIP3    H141560   4.596   4.614   3.388 -0.1084  0.1173 -0.4690
 6715TIP3    H241561   4.548   4.749   3.336  0.1056 -0.7302 -3.0093
 6716TIP3   OH241562   4.353   1.652   2.397  0.5000  0.1553  0.0408
 6716TIP3    H141563   4.391   1.608   2.473  2.2647 -1.1381 -1.4861
 6716TIP3    H241564   4.277   1.599   2.373  0.0789  0.4336  0.7453
 6717TIP3   OH241565   2.227   3.230  17.209  0.5358 -0.2954 -0.8165
 6717TIP3    H141566   2.136   3.254  17.227  0.3351 -0.3672 -1.6688
 6717TIP3    H241567   2.275   3.312  17.211  0.4572 -0.2560 -0.3693
 6718TIP3   OH241568   2.695   0.350   3.619 -0.4793 -0.1455 -0.0542
 6718TIP3    H141569   2.617   0.398   3.649  0.1920  0.5049  0.7267
 6718TIP3    H241570   2.691   0.355   3.524 -1.3060  0.0239 -0.0187
 6719TIP3   OH241571   6.111   3.997  16.380  0.2938 -0.3060 -0.2946
 6719TIP3    H141572   6.078   4.029  16.296 -0.7924  0.2724  0.3378
 6719TIP3    H241573   6.072   3.911  16.390  2.4848 -1.5403 -1.5602
 6720TIP3   OH241574   4.826   3.156  13.288  0.0449  0.0921 -0.2691
 6720TIP3    H141575   4.887   3.195  13.226 -1.2464  2.1255 -0.3587
 6720TIP3    H241576   4.803   3.227  13.347 -1.7554 -0.7487  0.1189
 6721TIP3   OH241577   6.698   5.037  13.053 -0.1679 -0.4162  0.1760
 6721TIP3    H141578   6.680   5.090  12.975  2.7766 -1.1237 -1.1528
 6721TIP3    H241579   6.726   5.101  13.119  0.1025 -0.0103 -0.3207
 6722TIP3   OH241580   2.090   0.895  15.395 -0.1694  0.2899 -0.3659
 6722TIP3    H141581   2.131   0.874  15.479  0.1820 -0.4570 -0.7044
 6722TIP3    H241582   2.129   0.832  15.334 -0.6418  0.6264 -1.0264
 6723TIP3   OH241583   2.371   6.568  11.209 -0.3591 -0.3930  0.4803
 6723TIP3    H141584   2.301   6.524  11.160 -0.1756 -0.0780 -0.0656
 6723TIP3    H241585   2.325   6.632  11.263 -0.6705 -1.5100  1.5929
 6724TIP3   OH241586   6.607   3.396   4.884  0.1959 -0.0815  0.7702
 6724TIP3    H141587   6.540   3.361   4.942  1.6482 -0.7849  2.0991
 6724TIP3    H241588   6.672   3.435   4.943  1.0938  0.3639 -0.4540
 6725TIP3   OH241589   3.042   4.801   0.868 -0.0948  0.1369 -0.2432
 6725TIP3    H141590   3.119   4.745   0.880 -0.6384 -0.2609  1.6051
 6725TIP3    H241591   3.002   4.806   0.954 -1.1585  1.8178 -0.7890
 6726TIP3   OH241592   3.118   1.796   1.438 -0.0686  0.1940  0.3153
 6726TIP3    H141593   3.174   1.726   1.474  0.2891  0.6823  0.7366
 6726TIP3    H241594   3.047   1.750   1.394  0.6509 -0.4511 -0.2122
 6727TIP3   OH241595   2.999   1.197   3.480  0.4093  0.2253  0.1431
 6727TIP3    H141596   3.077   1.167   3.528  1.5157 -0.2890 -1.8715
 6727TIP3    H241597   3.022   1.285   3.449 -0.0752  0.3279  0.0652
 6728TIP3   OH241598   4.154   4.487   1.188  0.0206 -0.3264 -0.1283
 6728TIP3    H141599   4.146   4.582   1.195  0.4304 -0.3454  0.8622
 6728TIP3    H241600   4.195   4.472   1.103  2.3811  0.5774  0.7540
 6729TIP3   OH241601   1.639   1.106  14.276  0.8045  0.3702  0.1259
 6729TIP3    H141602   1.561   1.086  14.224  1.9985 -0.9463 -1.2578
 6729TIP3    H241603   1.703   1.137  14.212  1.3776  1.6598  1.2704
 6730TIP3   OH241604   4.711   2.131   2.981  0.1600 -0.1682  0.5806
 6730TIP3    H141605   4.652   2.104   3.052  1.7178 -2.5156  1.1052
 6730TIP3    H241606   4.688   2.075   2.908 -0.4163  1.2003 -0.3287
 6731TIP3   OH241607   5.013   0.349  12.840 -0.2214  0.5105  0.0310
 6731TIP3    H141608   5.072   0.416  12.804 -0.1666  0.5208  0.1362
 6731TIP3    H241609   5.065   0.308  12.910  0.0404 -0.1920 -0.5637
 6732TIP3   OH241610   0.781   4.896   2.410  0.2028 -0.3425 -0.0707
 6732TIP3    H141611   0.830   4.868   2.332 -0.4214  0.3294 -0.7285
 6732TIP3    H241612   0.760   4.815   2.455  2.1970 -0.6329  0.4259
 6733TIP3   OH241613   6.325   2.603  14.072  0.5239 -0.5926  0.5293
 6733TIP3    H141614   6.412   2.585  14.037  1.0061 -1.0526  1.9021
 6733TIP3    H241615   6.286   2.664  14.009  1.3546 -1.3441 -0.7515
 6734TIP3   OH241616   6.220   6.128   1.092  0.5885 -0.1300  0.2020
 6734TIP3    H141617   6.169   6.158   1.017 -0.9235  0.4750  1.4195
 6734TIP3    H241618   6.213   6.032   1.089  0.7667 -0.1279 -0.5572
 6735TIP3   OH241619   1.374   1.975   4.546  0.6090 -0.3059  0.1772
 6735TIP3    H141620   1.431   2.038   4.591  0.9442  0.7867 -1.6459
 6735TIP3    H241621   1.417   1.891   4.559  3.3886  0.5876 -2.0191
 6736TIP3   OH241622   3.953   2.777   0.871 -0.0251  0.0575  0.0108
 6736TIP3    H141623   3.958   2.837   0.945 -1.4339  1.8225 -1.2721
 6736TIP3    H241624   3.962   2.832   0.794  1.9217 -1.7883 -1.2096
 6737TIP3   OH241625   2.899   3.080   0.141  0.1459  0.1308 -0.1836
 6737TIP3    H141626   2.882   3.071   0.235  1.4541  1.0664  0.1780
 6737TIP3    H241627   2.835   3.023   0.099  0.7405 -1.7776  1.3457
 6738TIP3   OH241628   1.018   4.777  14.324 -0.4097 -0.3493 -0.3687
 6738TIP3    H141629   0.923   4.773  14.318 -0.5524  0.1936  1.1575
 6738TIP3    H241630   1.036   4.786  14.417  1.1262 -0.0270 -0.6691
 6739TIP3   OH241631   3.104   3.135  13.773  0.0074 -0.1674  0.3691
 6739TIP3    H141632   3.059   3.114  13.691  1.4527 -1.1511 -0.1935
 6739TIP3    H241633   3.051   3.206  13.811 -1.0274 -0.1066 -1.0976
 6740TIP3   OH241634   4.978   0.974   3.944 -0.4862  0.1891  0.3329
 6740TIP3    H141635   4.934   0.894   3.916 -0.5273 -0.0198  0.9759
 6740TIP3    H241636   4.923   1.045   3.911  0.9495  0.0705 -2.6403
 6741TIP3   OH241637   2.024   1.090  10.750  0.1199  0.1997  0.7095
 6741TIP3    H141638   1.939   1.051  10.732  0.7735 -0.9009 -0.1670
 6741TIP3    H241639   2.062   1.035  10.819 -0.0443  0.9560  1.4191
 6742TIP3   OH241640   6.105   2.753   2.094  0.0826 -0.6053  0.0833
 6742TIP3    H141641   6.109   2.659   2.107  0.1818 -0.3544  2.2158
 6742TIP3    H241642   6.073   2.764   2.005  0.6562 -2.6372 -0.4198
 6743TIP3   OH241643   1.814   1.270   5.894 -0.2144 -0.2736  0.2032
 6743TIP3    H141644   1.848   1.292   5.981 -0.1465  0.1869  0.0614
 6743TIP3    H241645   1.722   1.247   5.909  0.3299 -2.3463  0.7208
 6744TIP3   OH241646   6.311   1.983   3.721  0.0195  0.4496  0.2754
 6744TIP3    H141647   6.266   1.913   3.675  0.8765 -0.2899  0.5396
 6744TIP3    H241648   6.397   1.988   3.680  1.0472 -0.6549  2.1397
 6745TIP3   OH241649   0.720   6.525  16.943  0.5504 -0.9556  0.5560
 6745TIP3    H141650   0.782   6.461  16.908  2.2357 -0.1052  1.8273
 6745TIP3    H241651   0.767   6.608  16.938 -1.5649  0.2380 -1.0089
 6746TIP3   OH241652   3.677   6.647   3.982  0.0662 -0.0115  0.6141
 6746TIP3    H141653   3.582   6.636   3.971  0.1357 -1.2568  1.0713
 6746TIP3    H241654   3.693   6.620   4.072  0.8182  0.5519  0.6537
 6747TIP3   OH241655   4.167   1.022  15.909  0.0924 -0.2172 -0.2439
 6747TIP3    H141656   4.139   0.982  15.991  0.1855 -4.0335 -1.8591
 6747TIP3    H241657   4.228   1.091  15.936 -1.5471  0.2058  2.8780
 6748TIP3   OH241658   6.160   3.274   3.655 -0.2819  1.0438 -0.1590
 6748TIP3    H141659   6.211   3.351   3.632  2.0702  0.2745  2.0109
 6748TIP3    H241660   6.222   3.202   3.652 -2.0045 -0.5060 -0.3899
 6749TIP3   OH241661   0.029   4.976  16.767 -0.3352 -0.3856 -0.1685
 6749TIP3    H141662   0.005   5.063  16.799  2.0890  0.5970 -0.8087
 6749TIP3    H241663  -0.049   4.923  16.782 -1.9250  1.8952  0.1886
 6750TIP3   OH241664   5.237   3.027   2.791  0.0740  0.3704 -0.1821
 6750TIP3    H141665   5.274   2.946   2.756  0.4424  0.7702 -0.7241
 6750TIP3    H241666   5.212   3.077   2.714  0.6834  1.1670  0.1337
 6751TIP3   OH241667   6.384   2.128   5.379 -0.1705 -0.2978  0.2998
 6751TIP3    H141668   6.456   2.138   5.442 -1.4678  0.7961  1.6855
 6751TIP3    H241669   6.428   2.124   5.293  1.5897 -0.8477  1.1710
 6752TIP3   OH241670   3.885   2.875  11.110 -0.0540  0.3470 -0.1903
 6752TIP3    H141671   3.849   2.800  11.063 -0.9711  1.0714 -0.6599
 6752TIP3    H241672   3.866   2.950  11.054 -1.5792  1.3055  1.5103
 6753TIP3   OH241673   2.230   5.944  16.210  0.1503 -1.2894 -0.1919
 6753TIP3    H141674   2.318   5.965  16.240 -0.6529  0.5842  1.0932
 6753TIP3    H241675   2.175   6.013  16.248 -1.9795 -2.7992 -0.3193
 6754TIP3   OH241676   3.267   0.510  13.129  0.0675  0.2653 -0.5550
 6754TIP3    H141677   3.267   0.601  13.159 -0.8476  0.7289 -1.8635
 6754TIP3    H241678   3.323   0.511  13.052  1.4952 -0.6716  0.4365
 6755TIP3   OH241679   2.087   2.087   5.282 -0.2165  0.0725  0.2591
 6755TIP3    H141680   2.088   2.182   5.265  1.1327 -0.0107 -0.2865
 6755TIP3    H241681   2.154   2.052   5.224 -2.3564 -1.5762 -1.4176
 6756TIP3   OH241682   3.044   1.174   1.664 -0.6239 -0.3498 -0.4227
 6756TIP3    H141683   3.123   1.120   1.654  0.1032  0.6449 -0.1632
 6756TIP3    H241684   3.070   1.243   1.725 -1.7387 -0.0845 -0.2376
 6757TIP3   OH241685   4.299   4.743   4.303 -0.2095 -0.0152 -0.1602
 6757TIP3    H141686   4.259   4.827   4.278  2.4848  1.8443  1.2288
 6757TIP3    H241687   4.263   4.724   4.390  1.3240  1.3598  0.8414
 6758TIP3   OH241688   4.459   5.910   0.744 -0.7297  0.3816  0.2996
 6758TIP3    H141689   4.505   5.948   0.819 -1.2484 -0.5356  1.1196
 6758TIP3    H241690   4.522   5.849   0.706 -0.7209  0.2772  0.4762
 6759TIP3   OH241691   3.697   2.607  13.081  0.0027  0.2705  0.2501
 6759TIP3    H141692   3.743   2.530  13.113  0.0303 -0.3644 -1.2465
 6759TIP3    H241693   3.719   2.612  12.988 -1.0419  1.3264  0.0327
 6760TIP3   OH241694   4.217   6.739  11.320 -0.0557  0.0723 -0.1067
 6760TIP3    H141695   4.156   6.733  11.246  0.2510  0.2555 -0.3749
 6760TIP3    H241696   4.272   6.815  11.300 -0.8759  0.9944  0.9753
 6761TIP3   OH241697   6.763   0.842  16.754  0.2617 -0.1405 -1.1859
 6761TIP3    H141698   6.820   0.914  16.783  1.6067 -0.4505 -2.9289
 6761TIP3    H241699   6.697   0.835  16.824  0.3112  2.4973 -0.7552
 6762TIP3   OH241700   1.122   2.460  15.774 -0.0920 -0.2399 -0.0093
 6762TIP3    H141701   1.169   2.458  15.857  0.4051 -0.6749 -0.2975
 6762TIP3    H241702   1.129   2.371  15.740  0.8681  0.2578 -1.1639
 6763TIP3   OH241703   5.899   3.545   5.475 -0.2367 -0.0309 -0.1605
 6763TIP3    H141704   5.848   3.589   5.543  0.0755 -0.4265  0.3368
 6763TIP3    H241705   5.969   3.607   5.455 -0.9921  0.5763 -0.9536
 6764TIP3   OH241706   5.992   3.578  15.551  0.2695 -0.6283 -0.3280
 6764TIP3    H141707   5.952   3.609  15.470 -0.5687 -1.2233 -0.1493
 6764TIP3    H241708   5.931   3.604  15.619  0.8762 -0.3032  0.0983
 6765TIP3   OH241709   6.524   4.553  14.954  0.2483 -0.0434  0.7066
 6765TIP3    H141710   6.603   4.501  14.939  0.1104 -0.5678  1.7677
 6765TIP3    H241711   6.476   4.506  15.022 -0.5247  0.7737  0.7458
 6766TIP3   OH241712   2.978   2.220  11.240 -0.1415  0.7737 -0.0181
 6766TIP3    H141713   3.052   2.279  11.227  1.3113 -0.2402  2.7733
 6766TIP3    H241714   3.004   2.138  11.198 -0.2206  0.7789 -0.0783
 6767TIP3   OH241715   0.437   1.078   4.094 -0.1002 -0.1448  0.2164
 6767TIP3    H141716   0.367   1.112   4.150  1.1280  0.9070  1.1745
 6767TIP3    H241717   0.432   1.131   4.015 -1.3182 -1.0834 -0.3573
 6768TIP3   OH241718   3.064   6.720   2.046  0.3548 -0.6047 -0.2338
 6768TIP3    H141719   2.993   6.664   2.077  1.1245 -0.5445  1.7492
 6768TIP3    H241720   3.062   6.796   2.105  0.8969  0.2881 -1.3341
 6769TIP3   OH241721   3.496   6.282   2.720 -0.0250  0.4918  0.0683
 6769TIP3    H141722   3.535   6.302   2.635 -0.0392 -0.7547 -0.2584
 6769TIP3    H241723   3.537   6.199   2.746 -0.0305  0.8393  1.2749
 6770TIP3   OH241724   4.192   0.934   2.629 -0.1557  0.1521  0.1519
 6770TIP3    H141725   4.233   0.984   2.559 -0.8842  0.5414 -0.0042
 6770TIP3    H241726   4.256   0.935   2.700  1.4095 -1.8534 -1.1191
 6771TIP3   OH241727   4.850   1.126  16.065  0.1523  0.4990 -0.8165
 6771TIP3    H141728   4.886   1.208  16.032  1.1110  0.8764  1.0753
 6771TIP3    H241729   4.891   1.113  16.150 -2.8479  0.0370  0.6937
 6772TIP3   OH241730   5.028   0.831  14.233  0.5035  0.3110 -0.0269
 6772TIP3    H141731   4.984   0.906  14.192 -0.5034  1.0322  2.1600
 6772TIP3    H241732   5.083   0.871  14.301  1.6575 -0.8271 -0.2734
 6773TIP3   OH241733   1.752   0.978  14.729  0.0234 -0.1047  0.4324
 6773TIP3    H141734   1.730   1.046  14.666 -0.4470 -1.0878 -0.5065
 6773TIP3    H241735   1.725   0.897  14.686  1.8622 -1.0249  0.9247
 6774TIP3   OH241736   6.616   6.418   0.659 -0.4924  0.6251 -0.1853
 6774TIP3    H141737   6.541   6.373   0.621 -0.1652  1.1953 -1.5655
 6774TIP3    H241738   6.582   6.458   0.740 -1.4997  0.3532 -0.4615
 6775TIP3   OH241739   6.630   2.669   1.216 -0.1029  0.0927 -0.7837
 6775TIP3    H141740   6.718   2.706   1.206  0.2220 -0.5012 -0.1997
 6775TIP3    H241741   6.585   2.728   1.276  0.1045  0.0673 -0.6016
 6776TIP3   OH241742   3.083   0.774  11.798  0.8427  0.0885 -0.1867
 6776TIP3    H141743   3.027   0.750  11.725  0.7773 -0.6079  0.0827
 6776TIP3    H241744   3.062   0.865  11.816 -0.0290 -0.1014 -0.2396
 6777TIP3   OH241745   1.923   3.322  14.343 -0.3406 -0.0085 -0.3574
 6777TIP3    H141746   1.956   3.310  14.254  0.5022 -1.1436  0.0869
 6777TIP3    H241747   1.951   3.410  14.367 -1.2829  0.6257 -1.4927
 6778TIP3   OH241748   4.568   1.911  12.376 -0.4186  0.0858  0.0490
 6778TIP3    H141749   4.511   1.950  12.309 -1.3922 -1.3324  0.0106
 6778TIP3    H241750   4.602   1.831  12.335  0.8681  0.4053  0.4272
 6779TIP3   OH241751   4.996   4.748   0.599 -0.2756  0.0779 -0.3085
 6779TIP3    H141752   4.998   4.727   0.506 -0.3204 -0.3221 -0.2231
 6779TIP3    H241753   5.059   4.818   0.610 -0.6801  0.5129 -0.7336
 6780TIP3   OH241754   3.922   1.854  14.495 -0.2677  0.1028 -0.0105
 6780TIP3    H141755   3.893   1.850  14.404 -1.2218  0.8354  0.2520
 6780TIP3    H241756   3.936   1.948  14.512  0.4694 -0.0746  0.4319
 6781TIP3   OH241757   0.459   2.951  15.441  0.0992 -0.4664  0.2134
 6781TIP3    H141758   0.394   2.914  15.382  0.0159  2.9699 -2.1145
 6781TIP3    H241759   0.542   2.944  15.394  0.4614  0.0843  0.7414
 6782TIP3   OH241760   4.523   5.988   1.445 -0.6139 -0.1938  0.0408
 6782TIP3    H141761   4.487   5.904   1.472 -1.0198 -0.0324  0.0266
 6782TIP3    H241762   4.455   6.026   1.389 -0.6920  0.3880  0.5092
 6783TIP3   OH241763   2.138   5.952   3.697 -0.0973 -0.5281  0.0241
 6783TIP3    H141764   2.107   6.033   3.657 -0.0215 -0.4646  0.0934
 6783TIP3    H241765   2.075   5.885   3.668 -0.5172 -0.3329  0.4609
 6784TIP3   OH241766   1.125   1.946  14.278 -0.7282 -0.9834 -0.3207
 6784TIP3    H141767   1.141   1.914  14.189  0.3849  1.5155 -1.1273
 6784TIP3    H241768   1.047   2.001  14.270 -0.5616 -0.6616  0.2165
 6785TIP3   OH241769   5.021   0.074   1.197 -0.2439 -0.5330 -0.2636
 6785TIP3    H141770   4.962   0.144   1.224  0.4578  0.1713 -0.5225
 6785TIP3    H241771   4.994  -0.002   1.249 -0.0699  0.3118  1.1221
 6786TIP3   OH241772   0.688   3.437  11.405 -0.2719 -0.3192 -0.4332
 6786TIP3    H141773   0.685   3.486  11.487  1.1506 -0.3607 -0.3241
 6786TIP3    H241774   0.597   3.431  11.377 -0.6236  1.0650  0.3238
 6787TIP3   OH241775   4.132   4.070  13.335 -0.1196  0.2942  0.4258
 6787TIP3    H141776   4.165   4.070  13.425 -1.0457 -0.4983  0.7744
 6787TIP3    H241777   4.048   4.025  13.340 -0.8509  1.4761 -0.6055
 6788TIP3   OH241778   5.980   1.068  12.185 -0.1458 -0.4579 -0.0814
 6788TIP3    H141779   5.961   1.150  12.139  0.8060 -0.4934 -0.5816
 6788TIP3    H241780   5.908   1.009  12.161 -0.2170 -0.1343 -0.6854
 6789TIP3   OH241781   6.079   1.113  14.888  0.0180 -0.1103 -0.2844
 6789TIP3    H141782   6.001   1.155  14.853 -1.5640 -0.9594  2.0057
 6789TIP3    H241783   6.124   1.182  14.936 -0.2272 -0.0158 -0.1918
 6790TIP3   OH241784   2.989   3.020  13.531 -0.3512 -0.2032 -0.0097
 6790TIP3    H141785   2.900   2.985  13.532 -0.8698  0.9991 -0.9574
 6790TIP3    H241786   3.036   2.967  13.467 -0.9522  0.3987 -0.9719
 6791TIP3   OH241787   3.719   0.486   2.264  0.6981  0.1382  0.5181
 6791TIP3    H141788   3.794   0.537   2.231 -0.2469 -0.0822 -2.1942
 6791TIP3    H241789   3.678   0.545   2.328  1.0451  1.8236 -0.7240
 6792TIP3   OH241790   2.152   1.583   2.348  0.1384  0.3139 -0.0400
 6792TIP3    H141791   2.176   1.631   2.268 -1.9458  0.7612 -0.4557
 6792TIP3    H241792   2.229   1.531   2.369  0.2515 -1.0583 -3.2873
 6793TIP3   OH241793   1.741   1.276   0.023 -0.5932 -0.0430  0.0693
 6793TIP3    H141794   1.758   1.256  -0.069 -0.2052 -1.6519  0.4716
 6793TIP3    H241795   1.793   1.355   0.041  1.1699 -1.0318 -0.4973
 6794TIP3   OH241796   4.989   3.307  11.087  0.3411  0.0865 -0.1824
 6794TIP3    H141797   4.951   3.225  11.056  1.0117 -0.0498 -0.6668
 6794TIP3    H241798   4.949   3.375  11.033 -0.7504  0.1736  0.6897
 6795TIP3   OH241799   1.679   3.244   4.474 -0.2576  0.0796 -0.3586
 6795TIP3    H141800   1.587   3.228   4.497 -0.8166  2.4099 -0.6564
 6795TIP3    H241801   1.729   3.192   4.536 -1.7895 -0.5286  0.4186
 6796TIP3   OH241802   4.669   1.602  16.429 -0.1996 -0.2645 -0.8138
 6796TIP3    H141803   4.606   1.545  16.384 -0.1320 -1.3132  0.3694
 6796TIP3    H241804   4.615   1.671  16.468 -0.1993  1.0736 -3.0012
 6797TIP3   OH241805   5.820   2.375   3.524 -0.0195 -0.0037  0.1543
 6797TIP3    H141806   5.874   2.318   3.578  0.6965  2.3661  2.1002
 6797TIP3    H241807   5.879   2.443   3.492 -0.8136 -0.3188 -2.1882
 6798TIP3   OH241808   5.735   6.165  13.278 -0.3726 -0.1349  0.1270
 6798TIP3    H141809   5.709   6.113  13.202 -1.5995  1.3084 -0.4959
 6798TIP3    H241810   5.795   6.231  13.242  1.1688 -1.0577  0.9022
 6799TIP3   OH241811   0.705   5.017  15.706  0.4850  0.5856  0.1895
 6799TIP3    H141812   0.760   5.000  15.782 -0.2242  1.5656  0.9379
 6799TIP3    H241813   0.625   4.967  15.723 -0.0552  1.5652  0.5486
 6800TIP3   OH241814   1.991   2.719  12.548  0.3139 -0.3923  0.1372
 6800TIP3    H141815   1.990   2.631  12.587  1.9096 -1.3402 -1.7637
 6800TIP3    H241816   1.980   2.704  12.454 -0.2665  1.5300 -0.1401
 6801TIP3   OH241817   6.217   2.613  12.209  0.3556 -0.2070 -0.4670
 6801TIP3    H141818   6.187   2.527  12.181  2.5174 -0.5673 -1.9178
 6801TIP3    H241819   6.286   2.595  12.273  0.1320  0.4641 -0.0297
 6802TIP3   OH241820   6.489   0.767   1.635  0.4358 -0.3489 -0.4038
 6802TIP3    H141821   6.511   0.837   1.573  2.0128 -0.7708 -0.3651
 6802TIP3    H241822   6.518   0.799   1.720 -1.8243  0.2730  0.2029
 6803TIP3   OH241823   0.162   6.401   4.280  0.2279  0.7743 -0.1078
 6803TIP3    H141824   0.165   6.423   4.187 -0.3527  1.0184 -0.0748
 6803TIP3    H241825   0.228   6.458   4.321  0.2670  0.8863 -0.3274
 6804TIP3   OH241826   5.212   1.782   0.452 -0.1281 -0.0379  0.0913
 6804TIP3    H141827   5.256   1.859   0.416  1.7727 -1.4043 -0.7277
 6804TIP3    H241828   5.189   1.807   0.541  2.7287  0.7178  0.7316
 6805TIP3   OH241829   4.047   4.489   2.490 -1.1906 -0.3644  0.0088
 6805TIP3    H141830   3.967   4.538   2.469 -0.3528  1.1668  0.1879
 6805TIP3    H241831   4.072   4.522   2.577  0.2889  0.1117 -0.5731
 6806TIP3   OH241832   0.995   3.234  11.962  0.2480  0.2608 -0.1994
 6806TIP3    H141833   1.090   3.227  11.954  0.1037 -1.1131 -0.9590
 6806TIP3    H241834   0.981   3.311  12.017  1.7663  1.0892 -0.9202
 6807TIP3   OH241835   0.255   0.147  14.022 -0.7713  0.1022 -0.2861
 6807TIP3    H141836   0.237   0.086  13.950 -2.0405  1.6910 -1.3908
 6807TIP3    H241837   0.349   0.160  14.019 -0.4062 -2.0680  0.2394
 6808TIP3   OH241838   0.470   1.249   6.136  0.6196 -0.1425  0.0545
 6808TIP3    H141839   0.555   1.279   6.168  0.4916  0.4770 -0.1751
 6808TIP3    H241840   0.465   1.281   6.046  0.3716 -0.6477 -0.1185
 6809TIP3   OH241841   5.610   2.085  11.509  0.6056 -0.0303  0.7699
 6809TIP3    H141842   5.638   2.007  11.462  0.3983 -0.5703  1.5075
 6809TIP3    H241843   5.589   2.053  11.597 -0.3135  0.7015  0.8381
 6810TIP3   OH241844   5.209   5.385  16.996 -0.0409 -0.1662 -0.5052
 6810TIP3    H141845   5.214   5.330  17.075 -0.5110 -0.5078 -0.7096
 6810TIP3    H241846   5.128   5.358  16.953 -0.7649  1.3516 -0.1340
 6811TIP3   OH241847   3.609   2.544   0.307 -0.5284 -0.1111 -0.0846
 6811TIP3    H141848   3.648   2.629   0.327  0.4255 -0.8447  1.2969
 6811TIP3    H241849   3.526   2.566   0.265 -0.7826  1.5079  1.1645
 6812TIP3   OH241850   1.953   3.669  11.993 -0.5819  0.0400 -0.1702
 6812TIP3    H141851   1.928   3.756  12.025  1.2538 -0.4320  2.9670
 6812TIP3    H241852   2.001   3.686  11.912 -0.7200  1.8919  0.0977
 6813TIP3   OH241853   0.336   3.931  12.141 -0.1964  0.7262  0.1121
 6813TIP3    H141854   0.400   4.000  12.159  0.5918 -0.3601  1.7204
 6813TIP3    H241855   0.273   3.938  12.214  0.9186 -1.3515  1.3649
 6814TIP3   OH241856   2.309   3.048  14.489  0.1203  0.1980  0.3085
 6814TIP3    H141857   2.285   3.056  14.581  0.3381 -1.0025  0.4972
 6814TIP3    H241858   2.321   2.953  14.477 -2.0165  0.0786 -1.4924
 6815TIP3   OH241859   6.583   2.464   3.840  0.0576  0.1876 -0.2104
 6815TIP3    H141860   6.670   2.461   3.879  0.7095 -2.1140 -1.6667
 6815TIP3    H241861   6.596   2.493   3.750 -0.5662 -0.6871 -0.6083
 6816TIP3   OH241862   2.328   3.387   1.867 -0.2062 -0.7184  0.0531
 6816TIP3    H141863   2.292   3.380   1.956 -1.5140 -1.1660 -0.4923
 6816TIP3    H241864   2.254   3.416   1.813  0.8267  0.5515 -0.7282
 6817TIP3   OH241865   2.363   2.675  11.921 -0.4783 -0.3569  0.0406
 6817TIP3    H141866   2.439   2.642  11.872  0.1995 -0.2180  0.9663
 6817TIP3    H241867   2.401   2.736  11.984 -1.4994  0.6066 -0.2587
 6818TIP3   OH241868   5.270   0.783  14.942 -0.0327 -0.1664  0.4862
 6818TIP3    H141869   5.322   0.863  14.952  0.7521 -0.6057 -0.0167
 6818TIP3    H241870   5.216   0.800  14.865 -0.2957  0.1029  0.7253
 6819TIP3   OH241871   4.763   5.572  16.863  0.8778  0.2985 -0.0002
 6819TIP3    H141872   4.777   5.628  16.786  1.3296 -0.8280 -0.7555
 6819TIP3    H241873   4.673   5.542  16.854  0.3105  1.6427  0.9216
 6820TIP3   OH241874   2.521   3.901  15.731 -0.2446 -0.0233  0.0818
 6820TIP3    H141875   2.544   3.886  15.640 -1.4151  2.3432 -0.6818
 6820TIP3    H241876   2.444   3.845  15.746 -1.0272  0.7496 -0.9084
 6821TIP3   OH241877   3.448   1.869  13.655  0.0724  0.1022 -0.1041
 6821TIP3    H141878   3.538   1.900  13.658  0.0402  0.1618  0.3472
 6821TIP3    H241879   3.395   1.948  13.659 -0.0008  0.0857 -0.6812
 6822TIP3   OH241880   6.776   0.780  14.634 -0.0217 -0.3094  0.0833
 6822TIP3    H141881   6.753   0.842  14.564  0.7397  0.4741  0.5017
 6822TIP3    H241882   6.801   0.700  14.588  0.2374  0.1198 -0.5386
 6823TIP3   OH241883   6.067   5.707   5.234 -0.5395 -0.1920  0.1360
 6823TIP3    H141884   6.066   5.657   5.316  0.5084  0.6202  0.6746
 6823TIP3    H241885   6.099   5.645   5.169 -0.6733 -0.6450  0.4964
 6824TIP3   OH241886   0.951   2.917   4.878 -0.3013  0.1575 -0.4295
 6824TIP3    H141887   0.965   2.826   4.850 -2.8927 -0.2292 -0.7469
 6824TIP3    H241888   0.946   2.966   4.796  0.6826  0.5412 -0.2713
 6825TIP3   OH241889   6.211   0.466   0.232 -0.0461  0.1897  0.0514
 6825TIP3    H141890   6.173   0.513   0.158 -0.1290 -0.7282 -0.5158
 6825TIP3    H241891   6.148   0.479   0.303 -0.5636  0.1286 -0.3794
 6826TIP3   OH241892   5.601   2.533   4.929  0.1787 -0.1483 -0.2969
 6826TIP3    H141893   5.541   2.498   4.995 -0.0441 -0.5157 -0.6897
 6826TIP3    H241894   5.632   2.456   4.882  1.2523 -0.0037  0.1346
 6827TIP3   OH241895   5.140   0.042  14.822  0.5827  0.2061  0.4240
 6827TIP3    H141896   5.070  -0.013  14.857  0.7560  0.0490  0.5276
 6827TIP3    H241897   5.210   0.036  14.888  1.7579 -1.7827 -0.8893
 6828TIP3   OH241898   3.411   0.234   6.390 -0.0529 -0.2973 -0.2958
 6828TIP3    H141899   3.417   0.231   6.485  1.4417 -0.8059 -0.3886
 6828TIP3    H241900   3.343   0.170   6.369  1.1735 -1.8799  0.3335
 6829TIP3   OH241901   0.700   3.792  11.960 -0.0203 -0.2463 -0.6350
 6829TIP3    H141902   0.613   3.768  11.927  0.1529 -1.6321 -0.1367
 6829TIP3    H241903   0.703   3.756  12.049  0.6144  0.8736 -0.1825
 6830TIP3   OH241904   6.040   0.857   2.068 -0.0081 -0.2374 -0.3702
 6830TIP3    H141905   6.023   0.934   2.013 -1.0145 -0.4748 -0.4087
 6830TIP3    H241906   6.090   0.798   2.012  0.5898  0.2897 -0.4113
 6831TIP3   OH241907   1.336   2.316  13.250 -0.6927 -0.3291 -0.2145
 6831TIP3    H141908   1.390   2.311  13.328 -0.9710 -0.2662 -0.0162
 6831TIP3    H241909   1.329   2.226  13.219 -0.8006 -0.3870 -0.0181
 6832TIP3   OH241910   0.245   4.987   3.998 -0.2900  0.2722 -0.0557
 6832TIP3    H141911   0.219   4.898   4.019  0.5957  0.1715  0.6980
 6832TIP3    H241912   0.166   5.040   4.012 -0.6856 -0.3200 -0.0417
 6833TIP3   OH241913   4.298   4.738  14.691  0.5207 -0.2670 -0.2727
 6833TIP3    H141914   4.365   4.758  14.757  1.5064 -2.4611 -0.5439
 6833TIP3    H241915   4.346   4.721  14.611 -0.5865  0.8838 -1.2365
 6834TIP3   OH241916   3.279   0.015  11.121 -0.2611  0.4456  0.2875
 6834TIP3    H141917   3.267  -0.070  11.078 -1.7166 -0.4816  2.3870
 6834TIP3    H241918   3.206   0.068  11.089  0.8534  1.1016 -1.3107
 6835TIP3   OH241919   6.662   1.228  12.128  0.2711 -0.1245 -0.6587
 6835TIP3    H141920   6.603   1.161  12.093 -1.0288  0.7894 -0.3088
 6835TIP3    H241921   6.646   1.305  12.074  0.8977  0.2431 -0.3296
 6836TIP3   OH241922   6.677   1.502   4.811  0.5660 -0.5313  0.2052
 6836TIP3    H141923   6.674   1.507   4.715  0.4568  2.8247  0.2635
 6836TIP3    H241924   6.586   1.502   4.838  0.6058 -0.3164  0.3393
 6837TIP3   OH241925   6.112   4.600   6.127 -0.0869 -0.4242  0.7952
 6837TIP3    H141926   6.206   4.608   6.107 -0.1207 -0.2099  0.7182
 6837TIP3    H241927   6.108   4.600   6.223  0.0655 -1.3379  0.8175
 6838TIP3   OH241928   5.763   4.926  16.108  0.4184  0.1544  0.1395
 6838TIP3    H141929   5.775   4.921  16.203  0.7720  0.2884  0.1065
 6838TIP3    H241930   5.824   4.995  16.081 -0.9997  1.4244  0.0463
 6839TIP3   OH241931   3.936   2.784  13.873 -0.1252 -0.4063 -0.2204
 6839TIP3    H141932   4.025   2.767  13.904 -0.1143  0.4243  0.2458
 6839TIP3    H241933   3.946   2.804  13.780  0.1258 -0.7034 -0.2573
 6840TIP3   OH241934   3.046   5.878  11.537 -0.4823 -0.5621 -0.0506
 6840TIP3    H141935   3.012   5.870  11.626  0.4194  0.6544  0.4223
 6840TIP3    H241936   2.975   5.844  11.481 -2.9832  2.7283  0.8002
 6841TIP3   OH241937   5.405   6.098   4.147 -0.4262 -0.4395 -0.3438
 6841TIP3    H141938   5.415   6.161   4.075 -0.0017 -0.0546  0.0452
 6841TIP3    H241939   5.376   6.017   4.104  0.6463 -0.4664 -1.0543
 6842TIP3   OH241940   3.653   4.912   1.857 -0.4862 -0.3452 -0.3546
 6842TIP3    H141941   3.594   4.838   1.873 -1.7179  0.6364 -0.2029
 6842TIP3    H241942   3.731   4.891   1.908 -0.0082 -2.4469 -1.8483
 6843TIP3   OH241943   4.267   5.476  15.318 -0.8917 -0.0380  1.1176
 6843TIP3    H141944   4.175   5.461  15.298 -0.8464 -0.2686  1.0816
 6843TIP3    H241945   4.270   5.565  15.352 -0.9973  0.3061  0.2561
 6844TIP3   OH241946   2.423   3.465  12.254 -0.1144 -0.1664 -0.3844
 6844TIP3    H141947   2.454   3.524  12.185  0.8740  0.6127  0.6996
 6844TIP3    H241948   2.330   3.484  12.261 -0.1633 -0.0222 -1.2724
 6845TIP3   OH241949   3.954   2.949  12.559  0.1413 -0.1194 -0.0072
 6845TIP3    H141950   3.936   2.979  12.470 -0.9508 -0.5344  0.0669
 6845TIP3    H241951   4.033   2.997  12.585  0.0313  0.5664 -0.9149
 6846TIP3   OH241952   6.663   5.183   2.297  0.2429  0.1789  0.3084
 6846TIP3    H141953   6.609   5.106   2.313 -0.2794  0.4088 -0.3336
 6846TIP3    H241954   6.624   5.251   2.352 -0.5173  0.5110 -0.6128
 6847TIP3   OH241955   3.848   6.524   4.441  0.4311  0.0128 -0.6569
 6847TIP3    H141956   3.858   6.617   4.463 -0.7354  0.2004 -0.8300
 6847TIP3    H241957   3.932   6.499   4.403  1.1402  0.7070  0.3873
 6848TIP3   OH241958   1.307   6.100  11.892 -0.4163  0.6041 -0.8878
 6848TIP3    H141959   1.313   6.019  11.943 -2.1921 -0.1737 -1.8269
 6848TIP3    H241960   1.218   6.131  11.906 -0.2295  1.5953 -1.7442
 6849TIP3   OH241961   2.937   2.594  11.799 -0.4286 -0.0442 -1.0335
 6849TIP3    H141962   2.883   2.550  11.865 -2.3853  0.8085 -1.9924
 6849TIP3    H241963   2.947   2.530  11.729  0.9797 -0.6666 -0.3077
 6850TIP3   OH241964   0.258   0.636  12.335  0.2501 -0.7516 -0.2474
 6850TIP3    H141965   0.264   0.567  12.269  1.1205  0.4409 -1.4644
 6850TIP3    H241966   0.279   0.592  12.417 -2.5209 -2.6376 -0.4259
 6851TIP3   OH241967   0.393   4.151   0.102  0.2037 -0.3410  0.1940
 6851TIP3    H141968   0.404   4.096   0.024  0.0951  0.4309 -0.3784
 6851TIP3    H241969   0.453   4.114   0.166  0.4148 -0.8882 -0.3131
 6852TIP3   OH241970   2.802   4.950  14.713 -0.1127 -0.1729  0.1563
 6852TIP3    H141971   2.788   4.972  14.621  0.6251  1.3934  0.3854
 6852TIP3    H241972   2.851   4.868  14.711  1.0387  0.5166 -0.8837
 6853TIP3   OH241973   3.908   1.467   5.342  0.2480 -0.3530 -0.0170
 6853TIP3    H141974   3.900   1.372   5.356  0.3708 -0.4976 -0.8816
 6853TIP3    H241975   3.971   1.496   5.408  0.1572 -0.8611  0.2993
 6854TIP3   OH241976   2.412   4.401  14.355 -0.1447  0.4584 -0.4410
 6854TIP3    H141977   2.470   4.390  14.431  1.0512 -0.3630 -1.4341
 6854TIP3    H241978   2.344   4.335  14.367  0.7162 -0.4968 -0.6629
 6855TIP3   OH241979   4.206   6.401   4.361 -0.1383 -0.2188  0.2208
 6855TIP3    H141980   4.261   6.424   4.287 -0.0420  0.7737  0.5876
 6855TIP3    H241981   4.247   6.444   4.436 -2.2371  1.8573  0.2762
 6856TIP3   OH241982   3.486   4.670  16.467 -0.4520  0.1632  0.5128
 6856TIP3    H141983   3.541   4.678  16.545 -0.2849 -3.4084  0.8904
 6856TIP3    H241984   3.402   4.638  16.499 -0.5444 -0.8769 -0.6933
 6857TIP3   OH241985   3.348   1.031  12.746  0.3458  0.2209 -0.4329
 6857TIP3    H141986   3.383   1.068  12.666 -0.8011 -0.5329 -1.3169
 6857TIP3    H241987   3.362   0.937  12.737  0.7642  0.1775  0.5478
 6858TIP3   OH241988   3.655   1.298   5.798 -0.0387 -0.6999  0.1304
 6858TIP3    H141989   3.608   1.223   5.835  0.5214 -0.8595  0.5202
 6858TIP3    H241990   3.668   1.357   5.872  1.1167 -1.0381  0.2018
 6859TIP3   OH241991   6.712   0.753   5.213  0.3882  0.0128  0.2258
 6859TIP3    H141992   6.755   0.816   5.271  2.4004 -1.2264  0.1862
 6859TIP3    H241993   6.637   0.800   5.177  0.0956  1.3881  2.4510
 6860TIP3   OH241994   0.180   5.167  15.275 -0.7753 -0.4797  0.2325
 6860TIP3    H141995   0.182   5.258  15.244 -1.0473 -0.6517 -0.2974
 6860TIP3    H241996   0.258   5.127  15.237 -1.5671 -0.9240 -0.9899
 6861TIP3   OH241997   0.899   2.790  11.818  0.6622  0.3865 -0.8234
 6861TIP3    H141998   0.859   2.868  11.856 -1.5230  0.3184 -2.7187
 6861TIP3    H241999   0.965   2.763  11.881 -0.5697  2.0400  1.3152
 6862TIP3   OH242000   4.961   4.614   0.858 -0.3929 -0.2581 -0.0987
 6862TIP3    H142001   5.039   4.613   0.913 -1.8291  1.3821  2.1329
 6862TIP3    H242002   4.992   4.651   0.775  1.6034 -1.6894 -0.0623
 6863TIP3   OH242003   4.421   2.245   0.422  0.3222  0.2980  0.4873
 6863TIP3    H142004   4.379   2.292   0.494 -1.0462  1.6095 -1.0974
 6863TIP3    H242005   4.497   2.299   0.399  0.4785  0.1331  0.6068
 6864TIP3   OH242006   5.385   5.299   3.769  0.5430  0.1202  0.4132
 6864TIP3    H142007   5.422   5.275   3.684  0.2936 -1.0209  0.5981
 6864TIP3    H242008   5.290   5.294   3.756  0.4880 -1.8737  1.1887
 6865TIP3   OH242009   6.632   3.573   3.329 -0.4377  0.0426  0.4667
 6865TIP3    H142010   6.675   3.625   3.397 -1.5338  1.2586  0.2735
 6865TIP3    H242011   6.645   3.482   3.356  4.0765  0.0982 -0.6303
 6866TIP3   OH242012   5.580   2.486  13.427  0.1297 -0.2357 -0.2537
 6866TIP3    H142013   5.637   2.462  13.354  1.9124  0.3519  0.8654
 6866TIP3    H242014   5.586   2.412  13.487 -0.1485 -0.0859 -0.0360
 6867TIP3   OH242015   4.455   6.272  13.885  0.4994 -0.2320  0.2365
 6867TIP3    H142016   4.472   6.188  13.842 -2.3664 -1.0933  0.5265
 6867TIP3    H242017   4.466   6.254  13.978  1.7876  0.2873  0.2061
 6868TIP3   OH242018   1.436   6.751   1.513  0.2869  0.4555  0.1427
 6868TIP3    H142019   1.495   6.684   1.477  0.4569  0.1056  1.0409
 6868TIP3    H242020   1.348   6.723   1.486  0.3782 -0.0111  0.3267
 6869TIP3   OH242021   2.582   0.678  11.798 -0.3460  0.0471 -0.2109
 6869TIP3    H142022   2.667   0.686  11.841 -0.5939 -0.5531  0.4116
 6869TIP3    H242023   2.544   0.766  11.804 -0.6089 -0.1416  1.3103
 6870TIP3   OH242024   2.468   2.217  11.626 -0.3853  0.0278  0.0206
 6870TIP3    H142025   2.378   2.184  11.629 -0.6241  0.6243 -0.5059
 6870TIP3    H242026   2.460   2.311  11.642  0.1332  0.1025 -0.1453
 6871TIP3   OH242027   5.845   6.752  13.872  0.0419 -0.1831  0.1027
 6871TIP3    H142028   5.817   6.686  13.809  0.0668 -0.1715  0.0791
 6871TIP3    H242029   5.798   6.832  13.844 -0.1324 -0.2361  0.2409
 6872TIP3   OH242030   5.402   2.908  10.903 -0.4552 -0.5145 -0.3105
 6872TIP3    H142031   5.494   2.935  10.907 -0.2848 -0.8403 -1.5669
 6872TIP3    H242032   5.353   2.986  10.928  0.1900 -1.0952  3.2043
 6873TIP3   OH242033   3.547   5.753   0.498 -0.4193  0.2655 -0.1785
 6873TIP3    H142034   3.610   5.685   0.523 -0.9390 -0.1954 -0.1107
 6873TIP3    H242035   3.582   5.789   0.417 -0.1150 -0.0479 -0.1884
 6874TIP3   OH242036   0.827   3.771  15.257  0.5119 -0.3547  0.0203
 6874TIP3    H142037   0.911   3.730  15.281 -0.6993 -3.3482 -0.3566
 6874TIP3    H242038   0.817   3.750  15.164 -0.2580  0.7726 -0.1651
 6875TIP3   OH242039   4.380   2.479  13.849 -0.2911  0.4609  0.1003
 6875TIP3    H142040   4.404   2.394  13.811  0.1920  0.1460  1.0827
 6875TIP3    H242041   4.285   2.481  13.847 -0.3707 -0.7996  1.5279
 6876TIP3   OH242042   2.954   0.775   6.021  0.3451 -0.3114 -0.0271
 6876TIP3    H142043   2.931   0.807   6.109  2.2831 -0.0468  0.4432
 6876TIP3    H242044   2.893   0.704   6.005 -0.7484  0.3261  1.0805
 6877TIP3   OH242045   0.983   2.412  15.050 -0.4493 -0.4559  0.4324
 6877TIP3    H142046   1.015   2.479  15.111 -0.3034  0.0724 -0.2151
 6877TIP3    H242047   0.894   2.440  15.027 -0.5337 -0.6955  0.4609
 6878TIP3   OH242048   0.114   2.997  16.232  0.2491  0.3659 -0.6626
 6878TIP3    H142049   0.126   3.090  16.213 -0.6310  0.3936 -1.1014
 6878TIP3    H242050   0.053   2.966  16.165 -0.0224 -0.3708 -0.0885
 6879TIP3   OH242051   0.742   6.593   2.998  0.3404  0.4724  0.2223
 6879TIP3    H142052   0.782   6.613   2.913 -0.5506  0.1192 -0.2924
 6879TIP3    H242053   0.648   6.605   2.984  0.1643  0.1958  1.0974
 6880TIP3   OH242054   2.335   0.672  15.889 -0.1937 -0.1216  0.6583
 6880TIP3    H142055   2.404   0.606  15.901 -1.2672 -1.1282  1.5702
 6880TIP3    H242056   2.298   0.683  15.976 -1.4954  0.0358  0.0968
 6881TIP3   OH242057   3.125   2.850  12.345 -0.3518  0.6060 -0.3277
 6881TIP3    H142058   3.088   2.808  12.423 -0.0229  2.3887  0.8503
 6881TIP3    H242059   3.191   2.788  12.313  1.5377  0.9883  2.4897
 6882TIP3   OH242060   0.321   5.841  14.721  0.3422 -0.2003  0.0836
 6882TIP3    H142061   0.355   5.860  14.633  0.5190 -0.0710  0.1795
 6882TIP3    H242062   0.280   5.923  14.749 -2.2078 -1.0050 -0.9874
 6883TIP3   OH242063   5.880   4.997   2.205 -0.2607 -0.4237 -0.3855
 6883TIP3    H142064   5.946   5.023   2.140 -0.7051 -0.7682 -0.9779
 6883TIP3    H242065   5.888   5.063   2.274 -0.6812  0.7168 -1.3981
 6884TIP3   OH242066   6.014   4.179   0.262  0.3442  0.2907 -0.9486
 6884TIP3    H142067   6.099   4.208   0.229 -0.2380 -0.3112 -3.1413
 6884TIP3    H242068   6.035   4.124   0.337  1.8926  0.1664 -1.4383
 6885TIP3   OH242069   5.600   4.038  12.554  0.1512 -0.7942  0.1162
 6885TIP3    H142070   5.594   4.012  12.462 -0.7692 -2.4816  0.5995
 6885TIP3    H242071   5.688   4.014  12.581 -0.1583 -1.9824  0.1174
 6886TIP3   OH242072   5.617   1.916  15.734  0.1795 -1.2586 -0.1104
 6886TIP3    H142073   5.607   1.827  15.766 -0.8335 -0.6141  1.4692
 6886TIP3    H242074   5.540   1.963  15.766  0.9779  0.3325 -0.3862
 6887TIP3   OH242075   1.546   3.367   4.131  0.0106 -0.0881  0.2954
 6887TIP3    H142076   1.531   3.281   4.171  0.1716 -0.0199  0.5016
 6887TIP3    H242077   1.597   3.348   4.052  0.2035 -0.1662  0.4372
 6888TIP3   OH242078   0.036   5.944  14.848  0.1314  0.6226  0.1874
 6888TIP3    H142079   0.064   5.854  14.828  3.5560  1.4166  0.7653
 6888TIP3    H242080   0.043   5.950  14.943  0.6553  1.7038  0.0878
 6889TIP3   OH242081   0.147   5.793  12.825 -0.1217  0.3810 -0.2188
 6889TIP3    H142082   0.102   5.832  12.900  0.3459 -0.1398  0.3475
 6889TIP3    H242083   0.090   5.722  12.797 -0.1709  0.4098 -0.1917
 6890TIP3   OH242084   6.016   5.746  11.404 -0.1956 -0.1692  0.0140
 6890TIP3    H142085   5.951   5.722  11.470  0.1638  0.0589  0.4543
 6890TIP3    H242086   6.018   5.671  11.344  0.8406 -1.2226  1.3194
 6891TIP3   OH242087   1.223   0.731  12.729  0.0443 -0.3085  0.6714
 6891TIP3    H142088   1.298   0.696  12.681  1.3744  1.1834  1.5677
 6891TIP3    H242089   1.147   0.687  12.690  1.2908 -1.2024 -0.8704
 6892TIP3   OH242090   4.347   0.102   3.168  0.2540 -0.0612 -0.4830
 6892TIP3    H142091   4.340   0.050   3.088  0.4660  0.5389 -0.8936
 6892TIP3    H242092   4.409   0.172   3.146 -1.9371  1.9101 -0.7693
 6893TIP3   OH242093   4.571   3.730  12.571  0.0096 -0.5493  0.0412
 6893TIP3    H142094   4.605   3.728  12.482  0.3380  2.3531  0.0312
 6893TIP3    H242095   4.500   3.794  12.569 -0.2978 -0.7797  1.7697
 6894TIP3   OH242096   3.589   1.790  11.971 -0.2453  0.9432 -0.1472
 6894TIP3    H142097   3.516   1.814  12.028 -0.6951 -0.5060 -0.0796
 6894TIP3    H242098   3.595   1.695  11.978  0.9477  0.9336 -1.0137
 6895TIP3   OH242099   4.188   1.831  15.499 -0.0993  0.0631  0.2688
 6895TIP3    H142100   4.254   1.838  15.567 -1.1980  0.7286  1.3197
 6895TIP3    H242101   4.147   1.746  15.514  0.1759 -0.1217 -0.0430
 6896TIP3   OH242102   3.246   4.873  17.205 -0.6796 -0.1080 -0.2932
 6896TIP3    H142103   3.233   4.919  17.122  0.4089 -2.8758 -2.1279
 6896TIP3    H242104   3.341   4.871  17.216 -0.7550 -1.0358  0.2643
 6897TIP3   OH242105   3.371   6.150  14.237 -0.2443  0.4061 -0.5345
 6897TIP3    H142106   3.395   6.199  14.316  0.0163 -0.6813  0.0771
 6897TIP3    H242107   3.280   6.174  14.220 -0.2681  0.7333  0.0329
 6898TIP3   OH242108   4.701   5.517  10.721 -0.1132 -0.2576 -0.1375
 6898TIP3    H142109   4.720   5.608  10.741  3.4577 -0.8499 -0.2473
 6898TIP3    H242110   4.780   5.469  10.747 -1.2954 -3.1356 -1.4042
 6899TIP3   OH242111   2.402   5.549  14.274  0.0927 -0.6490 -0.1706
 6899TIP3    H142112   2.490   5.517  14.254 -0.4356 -0.9834 -2.1879
 6899TIP3    H242113   2.345   5.473  14.262 -0.7095  0.0542 -1.0328
 6900TIP3   OH242114   1.674   2.682  15.863 -0.4278  0.1974 -0.2964
 6900TIP3    H142115   1.619   2.604  15.857 -0.9172  0.4551  0.5580
 6900TIP3    H242116   1.735   2.662  15.934 -0.5778  0.5984 -0.0518
 6901TIP3   OH242117   0.902   5.194   5.413 -0.0194 -0.7550  0.1687
 6901TIP3    H142118   0.856   5.150   5.485  1.4205 -0.6157  1.2184
 6901TIP3    H242119   0.993   5.164   5.422  0.9980  2.1998  0.8040
 6902TIP3   OH242120   0.137   6.001   1.215  0.6724  0.4173  0.2391
 6902TIP3    H142121   0.111   5.909   1.227  0.3761  0.6751  1.8900
 6902TIP3    H242122   0.055   6.046   1.196  0.3098  0.7421  2.3016
 6903TIP3   OH242123   2.543   3.898   1.186 -0.1278  0.3509 -1.0048
 6903TIP3    H142124   2.633   3.868   1.169  0.4828  1.7195 -0.2794
 6903TIP3    H242125   2.538   3.984   1.145 -1.2136  0.1657 -1.2834
 6904TIP3   OH242126   0.471   0.389   2.854  0.3860 -0.3640  0.6050
 6904TIP3    H142127   0.531   0.463   2.864  0.0694 -0.0719  0.3837
 6904TIP3    H242128   0.414   0.395   2.931  0.8741 -0.8624  1.0092
 6905TIP3   OH242129   3.008   4.370   5.087  0.3919  0.1224 -0.1254
 6905TIP3    H142130   3.019   4.287   5.041  1.7324  0.1218  0.1704
 6905TIP3    H242131   3.031   4.350   5.178  3.7380  1.4229 -0.5455
 6906TIP3   OH242132   2.427   0.211  14.195 -0.2321  0.7346 -0.2540
 6906TIP3    H142133   2.452   0.119  14.187  0.5145  0.9686 -0.6420
 6906TIP3    H242134   2.507   0.256  14.224 -1.3442  0.8030  3.2486
 6907TIP3   OH242135   2.696   1.810  12.249  0.2477 -0.4466  0.0435
 6907TIP3    H142136   2.620   1.771  12.206  0.2476 -0.8367  0.3963
 6907TIP3    H242137   2.758   1.826  12.177  0.9685 -2.7404  0.0800
 6908TIP3   OH242138   0.538   2.956  16.990  0.6917 -0.1582 -0.0141
 6908TIP3    H142139   0.581   2.878  16.956 -1.2891 -1.0325 -0.6529
 6908TIP3    H242140   0.585   2.976  17.071 -0.4682 -3.7708  1.7657
 6909TIP3   OH242141   6.337   3.231  14.815  0.2182  0.0096 -0.2396
 6909TIP3    H142142   6.270   3.294  14.790 -1.3797 -2.1524 -1.8496
 6909TIP3    H242143   6.305   3.192  14.897  2.1294  2.4176  1.8160
 6910TIP3   OH242144   1.803   5.359   5.299  0.6159 -0.5695 -0.1867
 6910TIP3    H142145   1.747   5.334   5.372 -2.5727 -0.7294 -2.4903
 6910TIP3    H242146   1.775   5.447   5.276  1.1723 -0.7151 -1.5407
 6911TIP3   OH242147   6.168   0.002   1.078 -0.3693 -0.1055  0.0415
 6911TIP3    H142148   6.099   0.000   1.145 -0.7374 -2.9298 -0.3065
 6911TIP3    H242149   6.122  -0.012   0.996  0.3924  0.4477 -0.4921
 6912TIP3   OH242150   2.546   5.940  13.334  0.0171  0.4789  0.0689
 6912TIP3    H142151   2.499   5.927  13.416 -1.6218 -0.8488 -1.0056
 6912TIP3    H242152   2.562   6.034  13.329  0.1697  0.5709  1.8972
 6913TIP3   OH242153   3.089   6.057   0.459  0.3167  0.2763 -0.2708
 6913TIP3    H142154   3.170   6.084   0.416 -0.3394  3.3818  0.2314
 6913TIP3    H242155   3.117   5.991   0.523  2.6196  1.8357  0.4691
 6914TIP3   OH242156   5.832   0.869  11.369 -0.1201 -0.2048  0.3181
 6914TIP3    H142157   5.817   0.962  11.387 -1.9775 -0.4992  0.4564
 6914TIP3    H242158   5.854   0.867  11.276  2.2742  0.5678  0.7940
 6915TIP3   OH242159   4.963   5.374  16.920 -0.1862  0.0552 -0.6853
 6915TIP3    H142160   4.926   5.323  16.992  0.8416 -0.4736 -0.5130
 6915TIP3    H242161   4.890   5.428  16.889 -1.2363 -1.3435 -0.7245
 6916TIP3   OH242162   4.893   5.151   3.173 -0.4368  0.3980 -0.3440
 6916TIP3    H142163   4.881   5.224   3.112 -1.1595 -0.8561 -1.7696
 6916TIP3    H242164   4.860   5.075   3.125  0.4376 -0.8930  1.0417
 6917TIP3   OH242165   0.444   3.100  12.277 -0.5143 -0.2325  0.8950
 6917TIP3    H142166   0.362   3.062  12.245 -0.8054 -0.1817  1.5581
 6917TIP3    H242167   0.417   3.176  12.328  0.0595  0.8683 -0.3818
 6918TIP3   OH242168   5.419   1.242  16.165  0.1737 -0.2410  0.3365
 6918TIP3    H142169   5.482   1.192  16.217  0.9962 -1.8074 -2.0014
 6918TIP3    H242170   5.333   1.213  16.197  0.5700  0.7577  2.4936
 6919TIP3   OH242171   3.191   6.681  12.741 -0.0159 -0.1850  0.9927
 6919TIP3    H142172   3.130   6.660  12.811 -1.4759 -0.5973 -0.3654
 6919TIP3    H242173   3.155   6.759  12.700 -0.0754 -0.8618 -0.2977
 6920TIP3   OH242174   4.966   0.140  10.871 -0.5765 -0.3269  0.0633
 6920TIP3    H142175   4.913   0.061  10.867 -1.3263  0.1288  0.8716
 6920TIP3    H242176   4.903   0.212  10.867  0.0176  0.2267  0.4659
 6921TIP3   OH242177   0.489   0.440   2.506  0.2750  0.0970 -0.6169
 6921TIP3    H142178   0.471   0.480   2.421  1.3930 -1.1126 -1.4519
 6921TIP3    H242179   0.554   0.497   2.547 -0.0602  0.5275 -0.6715
 6922TIP3   OH242180   2.819   3.984   5.047  0.1492 -0.3453 -0.4478
 6922TIP3    H142181   2.826   3.889   5.060 -0.7174 -0.3197  0.2746
 6922TIP3    H242182   2.728   3.998   5.019  0.2887  0.2708 -0.6116
 6923TIP3   OH242183   2.105   2.122   2.063  0.1405  0.2196 -0.0892
 6923TIP3    H142184   2.013   2.145   2.062  0.8471  3.5467 -1.3487
 6923TIP3    H242185   2.151   2.205   2.051  3.4061 -0.9845  2.5157
 6924TIP3   OH242186   2.531   6.541   5.811  0.5503 -0.1612  0.0187
 6924TIP3    H142187   2.467   6.476   5.783  0.1457  0.3928 -0.3587
 6924TIP3    H242188   2.561   6.511   5.897  0.9167 -1.2349 -0.4716
 6925TIP3   OH242189   1.702   0.276   4.393 -0.8460 -0.8240 -0.0718
 6925TIP3    H142190   1.786   0.264   4.437 -1.0169  0.1021  0.5210
 6925TIP3    H242191   1.703   0.367   4.364 -3.3912  0.7177  3.8326
 6926TIP3   OH242192   6.029   6.467   1.769 -0.4816 -0.5253  0.5939
 6926TIP3    H142193   5.999   6.511   1.848 -2.6904 -1.6982  0.4762
 6926TIP3    H242194   6.050   6.538   1.708 -1.0885  0.3715  1.4019
 6927TIP3   OH242195   3.768   1.441   1.684  0.0086  0.0157 -0.0803
 6927TIP3    H142196   3.783   1.436   1.779  1.1601 -1.8211 -0.2962
 6927TIP3    H242197   3.855   1.452   1.647 -0.0951 -1.9029 -1.0063
 6928TIP3   OH242198   3.773   3.920  12.208  0.4448 -0.1948 -0.7731
 6928TIP3    H142199   3.842   3.879  12.155  1.0455  0.5606 -0.5869
 6928TIP3    H242200   3.819   3.950  12.287  0.0022  0.7676 -0.8753
 6929TIP3   OH242201   3.890   6.434   0.274  0.2834  0.1611 -1.4317
 6929TIP3    H142202   3.884   6.361   0.335  1.9868 -0.9697 -2.5282
 6929TIP3    H242203   3.983   6.442   0.255  0.0883  2.3149 -1.7575
 6930TIP3   OH242204   5.154   6.433   1.704 -0.3067 -0.1151  0.1903
 6930TIP3    H142205   5.092   6.360   1.692  0.0491 -0.3770 -0.0768
 6930TIP3    H242206   5.236   6.390   1.728 -0.4023  0.2709  1.2483
 6931TIP3   OH242207   2.298   4.855   5.447 -0.0841  0.4921  0.4121
 6931TIP3    H142208   2.360   4.924   5.470 -0.3597  0.3631  1.5588
 6931TIP3    H242209   2.212   4.898   5.451 -0.0544  0.9958 -2.3364
 6932TIP3   OH242210   1.720   3.635   1.378 -0.1948  0.1373 -0.1861
 6932TIP3    H142211   1.696   3.728   1.367 -1.2239 -0.0006  0.7323
 6932TIP3    H242212   1.710   3.598   1.290 -1.5109  0.5303 -0.2322
 6933TIP3   OH242213   4.106   3.208   5.261 -0.0414  0.2249 -0.1675
 6933TIP3    H142214   4.058   3.207   5.178 -0.6206 -1.4652  0.1520
 6933TIP3    H242215   4.039   3.194   5.328  0.5147  0.9121  0.5520
 6934TIP3   OH242216   4.544   0.601   2.899 -0.2457  0.4321 -0.0127
 6934TIP3    H142217   4.526   0.547   2.822 -2.1944 -1.0992  1.4184
 6934TIP3    H242218   4.465   0.655   2.909  0.1002  0.8094  0.7521
 6935TIP3   OH242219   0.538   4.740   6.201  0.2248 -0.1461  0.1897
 6935TIP3    H142220   0.620   4.743   6.249 -0.0516 -1.5169  0.8044
 6935TIP3    H242221   0.553   4.794   6.123  2.0360 -1.1498 -0.2042
 6936TIP3   OH242222   0.239   1.702   5.002 -0.8656  0.3338  0.5188
 6936TIP3    H142223   0.268   1.690   4.911  0.5555 -0.0646  0.9936
 6936TIP3    H242224   0.283   1.782   5.030 -0.7930  0.1138  1.0393
 6937TIP3   OH242225   4.029   6.653  12.247  0.1748 -0.0563  0.0599
 6937TIP3    H142226   4.001   6.716  12.181  0.4896  0.0760  0.0553
 6937TIP3    H242227   3.989   6.570  12.220 -4.0059  0.9099  2.3964
 6938TIP3   OH242228   3.890   4.091  14.789 -0.5097  0.4199 -0.1817
 6938TIP3    H142229   3.880   4.009  14.741  2.7795 -0.2105 -0.0141
 6938TIP3    H242230   3.951   4.071  14.860 -1.8518  2.3744  1.6474
 6939TIP3   OH242231   6.143   4.416  14.529  0.4364 -0.1156 -0.4803
 6939TIP3    H142232   6.208   4.480  14.559  0.1010  0.0313 -0.0527
 6939TIP3    H242233   6.060   4.446  14.567  0.4343 -1.3652  0.5906
 6940TIP3   OH242234   5.969   0.027  16.891  0.0596 -0.3618  0.8952
 6940TIP3    H142235   6.062   0.025  16.912  0.2946  0.3939 -0.0131
 6940TIP3    H242236   5.926   0.057  16.972  0.9998  3.2299  0.2421
 6941TIP3   OH242237   1.331   5.612  13.811 -0.2775  0.1317  0.0366
 6941TIP3    H142238   1.277   5.533  13.810 -0.6792  0.3102 -3.1356
 6941TIP3    H242239   1.269   5.684  13.806  0.1579  0.4930 -0.2074
 6942TIP3   OH242240   5.181   6.762  13.382 -0.0491 -0.4503 -0.4347
 6942TIP3    H142241   5.086   6.755  13.375  0.0116 -2.3653  0.1359
 6942TIP3    H242242   5.214   6.734  13.296  0.0288 -1.7998  0.0109
 6943TIP3   OH242243   2.072   1.708  16.864  0.0369 -0.0635  0.0722
 6943TIP3    H142244   2.167   1.698  16.866  0.2381  1.4648 -0.6528
 6943TIP3    H242245   2.045   1.696  16.955  0.6180 -2.8081 -0.0347
 6944TIP3   OH242246   4.095   4.019   0.548  0.2226  0.6715 -0.0386
 6944TIP3    H142247   4.158   4.023   0.620 -0.6943  0.4164  0.7986
 6944TIP3    H242248   4.089   3.925   0.526  1.6680  0.8827 -1.5374
 6945TIP3   OH242249   6.257   0.583   2.804  0.1219 -0.4071  0.5443
 6945TIP3    H142250   6.248   0.513   2.740  0.2717 -0.6364  0.7735
 6945TIP3    H242251   6.264   0.663   2.751 -2.6229 -0.2350  0.3196
 6946TIP3   OH242252   4.677   5.145  12.903 -0.4082  0.6967 -0.7576
 6946TIP3    H142253   4.638   5.130  12.989 -0.7591 -1.6011 -1.2619
 6946TIP3    H242254   4.610   5.192  12.854  0.7044  4.4284  0.8667
 6947TIP3   OH242255   5.592   1.977   0.405 -1.0019  0.0755 -0.5453
 6947TIP3    H142256   5.685   1.971   0.425 -0.7112  1.4770 -1.3184
 6947TIP3    H242257   5.557   1.890   0.425  0.2071 -0.1022  0.9754
 6948TIP3   OH242258   0.248   6.066  15.858 -0.1486  0.4127  0.3513
 6948TIP3    H142259   0.184   6.087  15.789 -0.7936 -3.0465 -0.3176
 6948TIP3    H242260   0.237   6.136  15.923 -1.5521  2.2549 -1.7033
 6949TIP3   OH242261   5.086   4.343   3.770  0.4014  0.0455  0.1094
 6949TIP3    H142262   5.063   4.251   3.783 -0.8449  0.5856  2.2021
 6949TIP3    H242263   5.155   4.360   3.834  1.1735  0.3854 -0.8025
 6950TIP3   OH242264   0.241   2.985  15.872  0.6263  0.0411 -0.4201
 6950TIP3    H142265   0.176   3.038  15.918  1.0162  2.2241 -2.1616
 6950TIP3    H242266   0.200   2.965  15.787 -0.2637 -4.2475  0.7848
 6951TIP3   OH242267   4.247   2.689  16.001  0.5038  0.8330  0.6554
 6951TIP3    H142268   4.203   2.773  15.991  0.3147  0.9037  1.9211
 6951TIP3    H242269   4.176   2.625  16.005  0.6648  0.3226 -2.1654
 6952TIP3   OH242270   4.576   3.015  15.095 -0.6221  0.0364  0.7322
 6952TIP3    H142271   4.553   3.107  15.085 -2.2205 -0.5156 -1.4013
 6952TIP3    H242272   4.496   2.974  15.129 -1.2409 -1.0818 -1.8376
 6953TIP3   OH242273   0.866   4.078  16.781  0.2220 -0.0053 -0.3091
 6953TIP3    H142274   0.930   4.147  16.798  1.5993  0.0759 -4.5704
 6953TIP3    H242275   0.794   4.123  16.738  0.0235 -0.8633 -0.8980
 6954TIP3   OH242276   5.952   0.339   0.550  0.0032  0.2505 -0.1902
 6954TIP3    H142277   5.993   0.425   0.536 -0.1800  0.1851 -1.2833
 6954TIP3    H242278   5.910   0.319   0.466  0.6673 -1.2453 -0.2013
 6955TIP3   OH242279   5.747   0.660   4.161  0.2801 -0.1897  0.1688
 6955TIP3    H142280   5.706   0.700   4.085  0.4373 -0.0907  0.1356
 6955TIP3    H242281   5.706   0.703   4.236  1.0469  0.6456  0.1279
 6956TIP3   OH242282   1.611   4.193  17.249  0.3840  0.0658  0.1018
 6956TIP3    H142283   1.559   4.158  17.177 -0.4247  0.1919  0.6079
 6956TIP3    H242284   1.689   4.228  17.207  0.1926 -0.3792 -0.6478
 6957TIP3   OH242285   1.546   5.836   1.403  0.7926 -0.0323  0.0183
 6957TIP3    H142286   1.542   5.888   1.483  2.5940 -1.6943  1.2816
 6957TIP3    H242287   1.483   5.765   1.416  0.2476  0.3235 -0.5764
 6958TIP3   OH242288   5.919   5.307   5.947 -0.3273 -0.2340 -0.0083
 6958TIP3    H142289   5.933   5.264   6.031  0.5227  0.2372  0.0943
 6958TIP3    H242290   5.877   5.390   5.969  0.4114  0.1421  0.0033
 6959TIP3   OH242291   1.373   2.888   6.516  1.0973 -0.0424 -0.4666
 6959TIP3    H142292   1.450   2.921   6.562  0.0893  0.2215  1.0722
 6959TIP3    H242293   1.341   2.816   6.569 -0.2651  0.4556 -0.5712
 6960TIP3   OH242294   2.054   0.790  13.215  0.7837  1.1524 -0.3772
 6960TIP3    H142295   2.091   0.769  13.130  1.3375 -0.8336  0.2889
 6960TIP3    H242296   2.130   0.802  13.272  0.4587 -0.3666  0.4306
 6961TIP3   OH242297   4.616   0.953   6.028 -0.2016  0.3978 -0.0394
 6961TIP3    H142298   4.611   0.862   5.997 -0.4122 -0.2141  1.6885
 6961TIP3    H242299   4.529   0.971   6.064  0.4289  0.5545  1.4855
 6962TIP3   OH242300   2.090   5.072   2.577 -0.1173  0.2619 -0.3819
 6962TIP3    H142301   2.061   5.005   2.639  1.7444 -0.0802  0.1694
 6962TIP3    H242302   2.057   5.041   2.492 -0.1843 -0.8159  0.0188
 6963TIP3   OH242303   1.304   4.238  12.411  0.3962 -0.1487  0.0432
 6963TIP3    H142304   1.225   4.200  12.449 -0.6114 -0.0374 -1.8597
 6963TIP3    H242305   1.289   4.333  12.415  1.7401  0.0492  2.3018
 6964TIP3   OH242306   1.341   5.723  17.167 -0.0040 -0.1954  0.6406
 6964TIP3    H142307   1.276   5.787  17.139  0.2086  0.3368  1.3304
 6964TIP3    H242308   1.415   5.776  17.197  0.7930 -0.7864 -0.2256
 6965TIP3   OH242309   3.694   6.078   4.747 -0.4839  0.1544 -0.0516
 6965TIP3    H142310   3.621   6.085   4.809 -0.1196  1.3195  0.2637
 6965TIP3    H242311   3.692   6.159   4.698 -1.0522 -0.9446 -1.9469
 6966TIP3   OH242312   2.695   2.832   4.526 -0.1482 -0.3450 -0.3570
 6966TIP3    H142313   2.625   2.782   4.485  1.2342 -1.7804 -1.1161
 6966TIP3    H242314   2.691   2.918   4.484 -0.4754 -0.9176 -1.5402
 6967TIP3   OH242315   4.598   1.677   2.156  0.1557  0.2227 -0.2005
 6967TIP3    H142316   4.619   1.599   2.104  0.6637 -0.6386  1.2255
 6967TIP3    H242317   4.505   1.670   2.173  0.5663 -1.3698  1.8233
 6968TIP3   OH242318   1.665   5.359   4.010  0.6449  0.0064  0.0303
 6968TIP3    H142319   1.588   5.340   4.062  0.5486  2.6870  1.0712
 6968TIP3    H242320   1.634   5.363   3.919 -0.6953  1.8286  0.5080
 6969TIP3   OH242321   1.858   2.206  10.436 -0.1265  0.2953  0.1728
 6969TIP3    H142322   1.788   2.141  10.429 -0.6472  0.8013  0.6115
 6969TIP3    H242323   1.920   2.168  10.499 -0.7802  0.5233  0.9734
 6970TIP3   OH242324   3.003   5.051   4.167 -0.0389  0.0934  0.1389
 6970TIP3    H142325   3.068   5.097   4.220 -1.2577  1.2618  0.6597
 6970TIP3    H242326   2.974   5.115   4.102 -0.7633 -0.3655 -0.0052
 6971TIP3   OH242327   1.127   4.094   2.354  0.3551  0.3642  0.1998
 6971TIP3    H142328   1.092   4.049   2.277 -1.5759  1.0132  0.6544
 6971TIP3    H242329   1.177   4.027   2.400  1.7684  0.0172 -1.7146
 6972TIP3   OH242330   6.754   0.189  17.041 -0.0542  0.1346  0.4718
 6972TIP3    H142331   6.801   0.231  16.969  1.0239 -1.2305  0.3257
 6972TIP3    H242332   6.759   0.095  17.020 -1.2067 -0.1657  1.4578
 6973TIP3   OH242333   5.826   4.928  16.385 -0.5323  0.5071 -0.1482
 6973TIP3    H142334   5.860   5.001  16.436 -1.5872  0.2397  0.9827
 6973TIP3    H242335   5.734   4.920  16.411 -1.0091  0.0775 -1.7822
 6974TIP3   OH242336   4.852   6.536   1.842 -0.2507 -0.0120 -0.2608
 6974TIP3    H142337   4.794   6.591   1.896 -2.1392 -0.0530 -2.1009
 6974TIP3    H242338   4.848   6.450   1.883 -3.5781 -0.6707 -1.5679
 6975TIP3   OH242339   5.962   0.863  16.799 -0.2225  0.2248 -0.2776
 6975TIP3    H142340   5.922   0.786  16.759  1.8444 -0.4705 -1.0922
 6975TIP3    H242341   6.025   0.828  16.862  0.4463  1.2417 -0.3556
 6976TIP3   OH242342   6.773   2.620  11.465  0.0004  0.1126  0.3009
 6976TIP3    H142343   6.774   2.709  11.430 -1.6702  0.1303  0.2253
 6976TIP3    H242344   6.815   2.628  11.550  3.9339  0.1052 -1.4356
 6977TIP3   OH242345   3.874   0.371   1.369 -0.1049  0.7247 -0.4179
 6977TIP3    H142346   3.913   0.439   1.314  0.1154 -0.3188 -1.6018
 6977TIP3    H242347   3.948   0.314   1.393 -0.2992  0.8319  0.4757
 6978TIP3   OH242348   6.208   6.697   3.219  0.1152 -0.2893  0.1247
 6978TIP3    H142349   6.138   6.645   3.259 -0.5938 -0.1402 -0.8937
 6978TIP3    H242350   6.226   6.653   3.136 -0.9224  1.3755 -1.0552
 6979TIP3   OH242351   2.523   5.266   5.097  0.6329  0.6120 -0.2163
 6979TIP3    H142352   2.591   5.228   5.042 -0.5593  1.7971 -2.7249
 6979TIP3    H242353   2.553   5.355   5.114  0.9628  0.2689  1.0333
 6980TIP3   OH242354   1.934   6.528   0.213  0.0037  0.2838  0.3333
 6980TIP3    H142355   1.910   6.448   0.259  0.0751  0.1661  0.1665
 6980TIP3    H242356   1.930   6.504   0.120 -2.5105  1.1498  0.1308
 6981TIP3   OH242357   5.157   0.756  13.995 -0.1378 -0.1703 -0.2261
 6981TIP3    H142358   5.184   0.787  14.081 -2.0800 -1.8803  1.1040
 6981TIP3    H242359   5.184   0.665  13.992  0.6513  0.0816 -1.8106
 6982TIP3   OH242360   4.071   5.354  12.446 -0.2850  0.2142 -0.3067
 6982TIP3    H142361   4.119   5.382  12.524  1.5859  0.1800 -1.3856
 6982TIP3    H242362   4.061   5.259  12.457  1.9670 -0.1555 -1.1025
 6983TIP3   OH242363   4.951   1.444   4.363 -0.8987 -0.1857  0.2798
 6983TIP3    H142364   4.996   1.378   4.310 -1.7789  1.4092 -2.7091
 6983TIP3    H242365   4.989   1.527   4.334 -2.7882  0.8916  0.7339
 6984TIP3   OH242366   3.487   1.927   5.241 -0.2091  0.2168 -0.2281
 6984TIP3    H142367   3.537   1.893   5.167 -0.7924 -2.2096  0.4176
 6984TIP3    H242368   3.461   1.850   5.291 -1.6125  1.6309  1.3859
 6985TIP3   OH242369   1.774   2.150   3.684  0.7945 -0.4984  0.4370
 6985TIP3    H142370   1.812   2.199   3.756  2.0333 -2.0421  0.8846
 6985TIP3    H242371   1.702   2.101   3.723  1.4812 -1.3539  0.6515
 6986TIP3   OH242372   3.193   2.032   6.257  0.0228  0.7324 -0.1635
 6986TIP3    H142373   3.191   1.959   6.195  1.0288  0.1963  0.4153
 6986TIP3    H242374   3.246   2.099   6.212  2.1614 -0.2723  0.7184
 6987TIP3   OH242375   0.670   2.015  16.459  0.5717  0.6795  0.3369
 6987TIP3    H142376   0.645   1.923  16.459  1.1457  0.3342  4.4566
 6987TIP3    H242377   0.595   2.061  16.499  1.2042  1.6302  0.4746
 6988TIP3   OH242378   1.099   6.071  14.417  0.6805  0.3038  0.6136
 6988TIP3    H142379   1.134   6.047  14.331  1.0689 -1.8050  1.2941
 6988TIP3    H242380   1.164   6.038  14.479 -0.1469  0.7604  1.7524
 6989TIP3   OH242381   6.109   0.313   1.047  0.0583 -0.1121 -0.5107
 6989TIP3    H142382   6.107   0.224   1.013  0.4568 -0.1514 -0.4351
 6989TIP3    H242383   6.074   0.366   0.975 -0.7088 -0.3837 -0.3527
 6990TIP3   OH242384   2.371   4.663   4.463 -0.0464 -0.2037  0.6926
 6990TIP3    H142385   2.283   4.644   4.430  0.9614 -2.2103 -1.0719
 6990TIP3    H242386   2.376   4.614   4.546 -0.2812 -0.8927  0.3113
 6991TIP3   OH242387   3.395   2.789  14.328  0.6549 -0.2354  0.5615
 6991TIP3    H142388   3.404   2.869  14.275  0.7808 -0.5133  0.1597
 6991TIP3    H242389   3.470   2.735  14.303 -1.3295 -2.0597 -1.8961
 6992TIP3   OH242390   2.343   6.651  12.453 -0.8726 -0.1453 -0.0237
 6992TIP3    H142391   2.364   6.700  12.374 -3.6033  1.2717  0.0104
 6992TIP3    H242392   2.318   6.564  12.421 -0.9386  0.0852 -0.6208
 6993TIP3   OH242393   0.451   3.746   4.591 -0.1617  0.0771  0.2304
 6993TIP3    H142394   0.520   3.727   4.655 -0.1857  1.1296  0.5999
 6993TIP3    H242395   0.388   3.799   4.640 -0.5600  0.2471 -0.4595
 6994TIP3   OH242396   0.300   1.399   2.087  0.1793 -0.1083  0.1810
 6994TIP3    H142397   0.306   1.403   1.992 -1.0685 -2.3415 -0.0633
 6994TIP3    H242398   0.387   1.424   2.118  0.2255  2.0046 -1.4320
 6995TIP3   OH242399   2.218   0.533   0.979  0.5793  0.2962  0.4367
 6995TIP3    H142400   2.222   0.527   1.075  1.0340 -0.6829  0.3732
 6995TIP3    H242401   2.153   0.601   0.962 -0.9964 -0.8678  1.4428
 6996TIP3   OH242402   6.142   0.878   4.015 -0.0961 -0.0032 -0.7087
 6996TIP3    H142403   6.099   0.829   3.945  1.0767 -0.1372 -1.3657
 6996TIP3    H242404   6.125   0.827   4.094  0.5562 -1.1408 -1.2777
 6997TIP3   OH242405   6.213   0.135  16.055  0.2877 -0.8276  0.2007
 6997TIP3    H142406   6.221   0.206  15.991  0.9253 -0.0874  1.0725
 6997TIP3    H242407   6.301   0.099  16.063  0.9698  1.0784  2.8180
 6998TIP3   OH242408   5.134   4.939  16.538  0.1671 -0.5162  0.6171
 6998TIP3    H142409   5.065   4.911  16.478 -1.0776  0.2179  1.6258
 6998TIP3    H242410   5.207   4.880  16.522 -0.4048 -0.7979 -1.0688
 6999TIP3   OH242411   6.682   6.700  16.079  0.1367  0.0642 -0.6140
 6999TIP3    H142412   6.696   6.730  16.168 -0.1926  1.3032 -0.9681
 6999TIP3    H242413   6.765   6.718  16.034 -0.5519  1.9471 -1.2165
 7000TIP3   OH242414   6.458   0.894  17.266  0.0775 -0.1172 -0.1228
 7000TIP3    H142415   6.401   0.967  17.289 -2.0491 -2.2941  2.1057
 7000TIP3    H242416   6.405   0.839  17.208  1.2192 -0.5064 -0.8423
 7001TIP3   OH242417   5.322   2.778   2.642 -0.2525  0.0780 -0.4578
 7001TIP3    H142418   5.374   2.702   2.615 -0.3017 -0.3422  0.5850
 7001TIP3    H242419   5.232   2.747   2.640 -0.2349 -0.0441  0.4380
 7002TIP3   OH242420   5.321   0.744   4.136  0.3570  0.6273 -0.6010
 7002TIP3    H142421   5.227   0.740   4.116 -0.0251 -1.4975  1.2178
 7002TIP3    H242422   5.355   0.659   4.110  0.6930 -0.5936  3.2385
 7003TIP3   OH242423   1.788   2.603  12.115  0.2706  0.8674 -0.1468
 7003TIP3    H142424   1.816   2.689  12.082  2.9814  1.0398  2.1713
 7003TIP3    H242425   1.723   2.623  12.182  0.2041  1.0312 -0.2588
 7004TIP3   OH242426   2.720   1.819  14.687  0.4921 -0.3108  0.7230
 7004TIP3    H142427   2.634   1.860  14.686  0.1103 -1.0907 -0.8699
 7004TIP3    H242428   2.781   1.892  14.675 -0.2042 -0.1439 -2.9863
 7005TIP3   OH242429   6.087   4.517   5.666 -0.0300 -0.2692  0.9867
 7005TIP3    H142430   6.127   4.440   5.625  0.1639  0.5790 -0.4848
 7005TIP3    H242431   5.993   4.498   5.663 -0.0466 -0.0962 -0.1830
 7006TIP3   OH242432   5.016   4.729  13.545 -0.2292  0.0048  0.4323
 7006TIP3    H142433   5.074   4.798  13.514 -1.0459 -0.0117 -1.2025
 7006TIP3    H242434   4.945   4.726  13.482 -0.7311 -1.6658  1.0064
 7007TIP3   OH242435   0.224   2.174   5.646  0.1750 -0.2392 -0.2257
 7007TIP3    H142436   0.255   2.197   5.733  1.5372  2.0599 -1.2256
 7007TIP3    H242437   0.131   2.194   5.647 -0.2426 -1.9947  1.1824
 7008TIP3   OH242438   1.300   5.037   0.163 -0.2069 -0.3311  0.1247
 7008TIP3    H142439   1.292   5.082   0.247 -0.7434  1.0241 -0.6176
 7008TIP3    H242440   1.359   5.093   0.112 -0.1569 -0.9610 -0.5224
 7009TIP3   OH242441   0.800   4.892  16.984 -0.3951  0.2012  0.5563
 7009TIP3    H142442   0.770   4.802  16.972 -0.1383 -0.0755  1.7851
 7009TIP3    H242443   0.895   4.886  16.982 -0.3736  0.6394 -0.5069
 7010TIP3   OH242444   2.814   2.061   5.429 -0.2482 -0.2620 -0.6973
 7010TIP3    H142445   2.801   1.974   5.392  1.2678 -0.4469 -0.8529
 7010TIP3    H242446   2.909   2.072   5.433 -0.4063  1.2114 -0.2635
 7011TIP3   OH242447   5.776   0.674  16.091  0.4348 -0.4059  0.1536
 7011TIP3    H142448   5.693   0.704  16.054  1.4527  0.5933 -1.4802
 7011TIP3    H242449   5.777   0.580  16.076 -1.3766 -0.8512  2.3377
 7012TIP3   OH242450   0.234   2.461  13.685 -0.4302  0.1241  0.0702
 7012TIP3    H142451   0.291   2.488  13.757  0.7548 -0.9676 -0.4366
 7012TIP3    H242452   0.248   2.367  13.677 -1.2686  0.0722 -0.9780
 7013TIP3   OH242453   1.341   2.307  11.276  0.1170 -0.2061 -0.2227
 7013TIP3    H142454   1.399   2.236  11.301  0.5287 -0.4433 -1.7792
 7013TIP3    H242455   1.255   2.266  11.268  0.2870 -0.4591 -0.7685
 7014TIP3   OH242456   0.662   2.531   5.553 -0.4829 -0.2425 -0.2466
 7014TIP3    H142457   0.709   2.509   5.633 -3.5131  1.2279  2.1355
 7014TIP3    H242458   0.692   2.620   5.532 -0.5758 -0.1529 -0.0057
 7015TIP3   OH242459   3.571   5.497  14.755  0.6028 -0.0284  0.5614
 7015TIP3    H142460   3.544   5.419  14.706 -0.9347  0.4662  0.5480
 7015TIP3    H242461   3.494   5.519  14.809  1.0446  1.3960  0.6521
 7016TIP3   OH242462   5.675   6.623   2.166 -0.2262  0.4146 -0.2815
 7016TIP3    H142463   5.719   6.654   2.086  1.2353  0.4805  0.5018
 7016TIP3    H242464   5.655   6.531   2.149  3.2732 -0.6651  0.4379
 7017TIP3   OH242465   1.409   0.232  16.743 -0.1256  0.9670 -0.9176
 7017TIP3    H142466   1.462   0.171  16.795 -1.9382  0.0537 -0.0431
 7017TIP3    H242467   1.433   0.214  16.652  2.1535  1.6824 -0.5218
 7018TIP3   OH242468   2.883   1.626  12.017  0.0981  0.3506  0.3287
 7018TIP3    H142469   2.918   1.708  12.052  2.4679 -0.9493  1.2121
 7018TIP3    H242470   2.865   1.573  12.095  0.5598 -0.7006 -0.2593
 7019TIP3   OH242471   1.964   6.417  14.320 -0.4102 -0.1554  0.2268
 7019TIP3    H142472   1.901   6.370  14.374 -0.1336 -0.5914  0.1743
 7019TIP3    H242473   1.996   6.488  14.376 -1.4759  0.5208  0.0135
 7020TIP3   OH242474   2.385   0.360  16.893 -0.0688 -0.3070 -0.2573
 7020TIP3    H142475   2.445   0.332  16.962 -1.6612  0.7562  1.7007
 7020TIP3    H242476   2.348   0.279  16.858  1.4946 -0.9048 -0.5883
 7021TIP3   OH242477   1.531   3.512   3.095 -0.7511  0.3994 -0.2497
 7021TIP3    H142478   1.489   3.545   3.015  1.1044 -0.9296 -1.8708
 7021TIP3    H242479   1.553   3.591   3.144 -0.5484  1.3747 -1.8151
 7022TIP3   OH242480   3.025   1.202   4.857  0.5835 -0.2917 -0.1694
 7022TIP3    H142481   2.968   1.261   4.807 -1.3231 -2.5470 -0.8131
 7022TIP3    H242482   3.107   1.200   4.807  0.1204  0.5701 -0.9986
 7023TIP3   OH242483   5.081   0.346   5.485 -0.1353 -0.1044 -0.1669
 7023TIP3    H142484   5.174   0.367   5.477 -0.1212 -0.1545 -0.1269
 7023TIP3    H242485   5.037   0.432   5.487 -0.0968 -0.0825 -0.2660
 7024TIP3   OH242486   1.403   4.489  12.378  0.5141  0.0654 -0.2739
 7024TIP3    H142487   1.422   4.570  12.427  0.7298  0.0436 -0.3220
 7024TIP3    H242488   1.485   4.440  12.379  0.3009 -0.2924  0.0107
 7025TIP3   OH242489   4.221   2.511  14.217  0.6267  0.0435 -0.3964
 7025TIP3    H142490   4.221   2.599  14.254  0.6145  0.1440 -0.6342
 7025TIP3    H242491   4.145   2.468  14.257 -0.1019  0.5378 -1.2107
 7026TIP3   OH242492   2.147   2.075  16.387 -0.3938 -0.1563 -0.1162
 7026TIP3    H142493   2.057   2.089  16.415 -0.1951  0.3718  0.2580
 7026TIP3    H242494   2.180   2.005  16.444  0.6748  2.2902  2.4881
 7027TIP3   OH242495   4.734   3.029   2.312  0.4063  0.2478  0.6775
 7027TIP3    H142496   4.651   3.039   2.266 -0.4324 -1.4750  1.6923
 7027TIP3    H242497   4.799   3.022   2.243 -0.6876 -1.2584 -0.2767
 7028TIP3   OH242498   4.912   2.152   0.050 -0.0293 -0.1994  0.3403
 7028TIP3    H142499   4.965   2.092  -0.002  0.0431  0.6658 -0.6292
 7028TIP3    H242500   4.973   2.190   0.113  0.5993  0.9122 -0.8762
 7029TIP3   OH242501   5.677   3.036  12.203  0.1042 -0.2153 -0.1063
 7029TIP3    H142502   5.607   2.978  12.233 -1.1240  1.2476 -0.0175
 7029TIP3    H242503   5.690   3.097  12.275  2.7626 -1.5238  0.6115
 7030TIP3   OH242504   5.857   3.673  13.469 -0.5043 -0.0589  0.3532
 7030TIP3    H142505   5.855   3.767  13.485 -0.2441 -0.4146  2.8919
 7030TIP3    H242506   5.941   3.658  13.425 -0.1651  0.7860  0.7012
 7031TIP3   OH242507   1.711   2.847  14.069  0.5708  0.2255  0.1455
 7031TIP3    H142508   1.687   2.929  14.026  1.0908  0.5231  0.4129
 7031TIP3    H242509   1.786   2.870  14.125  0.2244 -0.2539  0.8260
 7032TIP3   OH242510   0.898   0.569  14.566  1.0941 -0.0306 -0.2174
 7032TIP3    H142511   0.860   0.568  14.654  1.5273  1.0340 -0.0075
 7032TIP3    H242512   0.985   0.532  14.577  1.4202  0.7714 -0.0601
 7033TIP3   OH242513   3.070   2.405   1.204 -0.2706 -0.1101 -0.0070
 7033TIP3    H142514   3.022   2.341   1.152  0.7814 -0.6367 -0.3607
 7033TIP3    H242515   3.030   2.489   1.180 -0.4011 -0.4335 -0.9958
 7034TIP3   OH242516   2.387   1.115   5.671  0.4141  0.0917  0.3985
 7034TIP3    H142517   2.314   1.176   5.665 -0.3596 -0.8818 -0.6558
 7034TIP3    H242518   2.447   1.141   5.601  2.1622  2.1558  2.5099
 7035TIP3   OH242519   3.291   0.009   2.497 -0.0629  0.2343  0.0817
 7035TIP3    H142520   3.224  -0.005   2.564 -1.0632  0.8846 -0.7711
 7035TIP3    H242521   3.281  -0.065   2.438  0.5948 -0.1537  0.4344
 7036TIP3   OH242522   6.235   3.333  15.539  0.4035  0.4679  0.1411
 7036TIP3    H142523   6.244   3.350  15.446  0.5590  2.0233  0.4264
 7036TIP3    H242524   6.144   3.355  15.560  0.1268 -0.6680  0.2157
 7037TIP3   OH242525   5.170   1.148   3.876  0.3898 -0.2181  0.0017
 7037TIP3    H142526   5.118   1.202   3.817  2.4520  0.7649 -1.0184
 7037TIP3    H242527   5.112   1.075   3.899 -1.7294  1.2970 -0.2632
 7038TIP3   OH242528   3.437   3.178   4.585 -0.2201  0.4917  0.0508
 7038TIP3    H142529   3.447   3.166   4.491  0.5701  0.5287  0.1234
 7038TIP3    H242530   3.381   3.105   4.613  0.6912 -0.3478 -0.2344
 7039TIP3   OH242531   3.824   1.711   3.682 -0.0971  0.1099 -0.3101
 7039TIP3    H142532   3.782   1.714   3.768 -0.0480 -0.9106 -0.2302
 7039TIP3    H242533   3.768   1.653   3.630  0.7974 -0.6912 -0.4233
 7040TIP3   OH242534   3.931   1.177   2.672 -0.3229  0.3394 -0.1291
 7040TIP3    H142535   3.943   1.168   2.766  1.7811 -0.1691 -0.4094
 7040TIP3    H242536   4.015   1.152   2.634 -1.3167 -0.1081 -2.1898
 7041TIP3   OH242537   5.941   3.438   2.310 -0.6491 -0.1258 -0.0939
 7041TIP3    H142538   6.019   3.489   2.285 -0.0933 -0.4980  0.8269
 7041TIP3    H242539   5.925   3.462   2.401 -0.5815 -1.3260  0.2528
 7042TIP3   OH242540   3.514   4.415  13.228  0.1267 -0.1062  0.0012
 7042TIP3    H142541   3.572   4.363  13.173  1.3682 -0.1669  1.3110
 7042TIP3    H242542   3.466   4.351  13.280  1.4926 -0.0086  1.4535
 7043TIP3   OH242543   5.522   3.253   4.013  0.4330 -0.3341 -0.0050
 7043TIP3    H142544   5.577   3.186   4.052 -1.3086 -2.5528 -1.0927
 7043TIP3    H242545   5.513   3.226   3.921 -1.4932  0.5553 -0.1269
 7044TIP3   OH242546   3.310   1.357  12.281  0.1127 -0.3366 -0.4881
 7044TIP3    H142547   3.383   1.417  12.301 -0.1019 -0.3583  0.4156
 7044TIP3    H242548   3.257   1.405  12.217 -0.7135  1.0009  1.1080
 7045TIP3   OH242549   0.940   5.075   1.445 -0.0080  0.1265  0.2276
 7045TIP3    H142550   0.889   5.013   1.497  0.0246  0.3669  0.5506
 7045TIP3    H242551   0.931   5.158   1.491  0.7312  0.1586  0.3271
 7046TIP3   OH242552   1.859   4.502  15.165 -0.7421 -0.1856 -0.0636
 7046TIP3    H142553   1.913   4.428  15.193 -0.6490 -0.7325 -1.5779
 7046TIP3    H242554   1.777   4.491  15.212 -0.0276 -0.1091  1.2373
 7047TIP3   OH242555   6.149   5.238   5.772 -0.0825  0.2781  0.1192
 7047TIP3    H142556   6.152   5.146   5.800 -0.1670  0.1572 -0.2539
 7047TIP3    H242557   6.065   5.270   5.805  0.6516  0.7035  1.6732
 7048TIP3   OH242558   5.508   2.853  12.326  0.4650 -0.0166  0.0565
 7048TIP3    H142559   5.441   2.813  12.381  1.4891 -0.5876  0.9133
 7048TIP3    H242560   5.580   2.874  12.386  2.5886 -2.7439 -1.3079
 7049TIP3   OH242561   0.835   4.282  12.452 -0.3027 -0.4938 -0.2449
 7049TIP3    H142562   0.840   4.341  12.527  2.8312  0.7399 -1.2222
 7049TIP3    H242563   0.742   4.264  12.440 -1.0849  1.4085  2.2692
 7050TIP3   OH242564   5.930   3.500   4.397 -0.5360  0.0929  0.6791
 7050TIP3    H142565   5.917   3.406   4.415  1.2300 -0.0584  1.3478
 7050TIP3    H242566   5.842   3.537   4.403 -1.6718 -1.8581 -1.9731
 7051TIP3   OH242567   3.302   6.600   2.240  0.8371 -0.6469 -0.0088
 7051TIP3    H142568   3.228   6.553   2.202  0.8662 -1.0680  0.4425
 7051TIP3    H242569   3.328   6.663   2.173 -0.7059  0.3588  0.2843
 7052TIP3   OH242570   2.053   6.611   3.069 -0.4281  0.1266  0.3417
 7052TIP3    H142571   1.982   6.595   3.006  0.8341  1.3125 -1.4935
 7052TIP3    H242572   2.092   6.525   3.082 -1.1101 -0.2507 -0.0073
 7053TIP3   OH242573   1.516   6.313   4.053 -0.1112  0.2779  0.1113
 7053TIP3    H142574   1.528   6.276   4.140 -1.6642  1.0011  0.6640
 7053TIP3    H242575   1.455   6.385   4.066 -0.7482  0.0954 -1.6590
 7054TIP3   OH242576   4.174   4.321   3.725 -0.5577  0.4238 -0.5532
 7054TIP3    H142577   4.242   4.290   3.665  0.6382 -0.6974  1.2839
 7054TIP3    H242578   4.093   4.283   3.691  0.1345 -0.4348 -1.3075
 7055TIP3   OH242579   3.923   5.909  12.145  0.3838  0.0927 -0.4125
 7055TIP3    H142580   3.889   5.998  12.132  2.4208  1.2194  1.3954
 7055TIP3    H242581   3.883   5.858  12.074 -0.5168  2.5161 -1.7846
 7056TIP3   OH242582   6.635   1.283   5.175 -0.1971  0.7886 -0.1656
 7056TIP3    H142583   6.616   1.241   5.091  1.3479  1.2126 -0.7462
 7056TIP3    H242584   6.717   1.329   5.161 -0.2571  1.4148  1.3968
 7057TIP3   OH242585   4.031   3.536  13.311 -0.2369  0.4405  0.4325
 7057TIP3    H142586   3.991   3.563  13.228 -0.0297  0.6754  0.4092
 7057TIP3    H242587   4.047   3.443  13.300  0.9420  0.6958 -0.2773
 7058TIP3   OH242588   1.722   5.095   3.772  0.2976  0.1883  0.2968
 7058TIP3    H142589   1.630   5.110   3.793  0.9432  3.1505  1.5376
 7058TIP3    H242590   1.744   5.164   3.709  1.6131 -0.6907 -0.2608
 7059TIP3   OH242591   5.650   0.355   1.893  0.6123  0.3705  0.3429
 7059TIP3    H142592   5.708   0.298   1.842 -1.7188 -1.6504 -0.2617
 7059TIP3    H242593   5.696   0.439   1.897  3.1127 -0.8294 -0.8403
 7060TIP3   OH242594   3.668   0.593  11.180  0.3675 -0.1662 -0.2831
 7060TIP3    H142595   3.607   0.527  11.146 -0.5485  0.1183  0.7361
 7060TIP3    H242596   3.683   0.652  11.107 -0.6932 -0.1754 -0.5308
 7061TIP3   OH242597   3.183   4.910   5.569 -0.0118 -0.2296  0.2752
 7061TIP3    H142598   3.234   4.877   5.494  1.1621  0.8142  0.5703
 7061TIP3    H242599   3.232   4.880   5.645 -1.0999 -1.1231  0.6330
 7062TIP3   OH242600   0.868   1.895   5.893  0.4730  0.0328  0.2655
 7062TIP3    H142601   0.857   1.925   5.983  1.2928  0.3730  0.2589
 7062TIP3    H242602   0.805   1.823   5.884 -1.2002  1.4099  0.4164
 7063TIP3   OH242603   5.892   1.885  16.719 -0.1572 -1.0544 -0.0416
 7063TIP3    H142604   5.957   1.874  16.650 -0.0276  0.5721 -0.2095
 7063TIP3    H242605   5.942   1.915  16.795 -0.5659 -0.8082  0.1342
 7064TIP3   OH242606   3.370   5.960  13.204 -0.0795 -0.3879 -0.0997
 7064TIP3    H142607   3.457   5.924  13.185 -0.3457 -2.0660  1.5934
 7064TIP3    H242608   3.310   5.887  13.188 -1.1115  0.5153 -0.4628
 7065TIP3   OH242609   4.642   3.513   2.667 -0.2230 -0.7403  0.6844
 7065TIP3    H142610   4.599   3.496   2.583 -1.2135  0.1665  0.9719
 7065TIP3    H242611   4.574   3.557   2.719  0.5178 -0.8850  1.7977
 7066TIP3   OH242612   0.485   5.156  14.283  0.1454 -0.1622  0.1050
 7066TIP3    H142613   0.563   5.211  14.289 -0.0315  0.2539 -1.0909
 7066TIP3    H242614   0.444   5.163  14.369  2.0483 -1.3737  1.1842
 7067TIP3   OH242615   0.615   5.355   4.304  0.1227  0.2281 -0.3131
 7067TIP3    H142616   0.555   5.385   4.235 -0.2752 -0.1668 -0.1438
 7067TIP3    H242617   0.572   5.381   4.385 -0.1112 -0.5821 -0.1737
 7068TIP3   OH242618   4.104   0.152  16.242  0.0557  0.9168  0.2027
 7068TIP3    H142619   4.077   0.072  16.288 -0.0596  2.0274  2.1600
 7068TIP3    H242620   4.063   0.145  16.156  0.0569 -1.1192  0.3134
 7069TIP3   OH242621   6.101   3.053   1.867 -0.0843  0.3877  0.6699
 7069TIP3    H142622   6.126   3.134   1.822 -0.7592  0.6860  0.8284
 7069TIP3    H242623   6.006   3.049   1.859 -0.2111  0.3809  1.9684
 7070TIP3   OH242624   5.913   1.587  14.739 -0.2141  0.5941  0.2603
 7070TIP3    H142625   5.822   1.562  14.754 -0.0803  0.1450  0.3227
 7070TIP3    H242626   5.923   1.670  14.786 -1.2354  1.8859 -1.6530
 7071TIP3   OH242627   3.773   6.107   0.244 -0.3539  0.3769  0.3347
 7071TIP3    H142628   3.824   6.032   0.214 -0.4422 -0.6933  2.6388
 7071TIP3    H242629   3.816   6.134   0.326 -0.2987  2.9100 -0.4398
 7072TIP3   OH242630   3.890   1.661  13.714 -0.3189  0.2024  0.1797
 7072TIP3    H142631   3.857   1.644  13.626  0.3183 -0.9722  0.1431
 7072TIP3    H242632   3.984   1.645  13.708 -0.3724 -0.6582  1.2364
 7073TIP3   OH242633   3.548   4.556   2.560 -0.6638 -0.1707 -0.0677
 7073TIP3    H142634   3.602   4.634   2.550  1.7419 -1.6766  0.2058
 7073TIP3    H242635   3.529   4.552   2.654  0.0435 -0.3733  0.0794
 7074TIP3   OH242636   1.861   6.325  14.956 -0.7797  0.0576  0.1583
 7074TIP3    H142637   1.819   6.393  15.009 -1.1456 -0.0817  0.0479
 7074TIP3    H242638   1.790   6.288  14.903 -0.1895  1.1894 -1.5186
 7075TIP3   OH242639   3.011   4.757   1.851 -0.9481 -0.2804 -0.2339
 7075TIP3    H142640   3.100   4.736   1.881  0.7291  2.4737 -2.7076
 7075TIP3    H242641   2.975   4.673   1.821  1.8703 -1.1391 -1.5501
 7076TIP3   OH242642   5.520   5.774  13.712 -0.1054 -0.0985  0.0941
 7076TIP3    H142643   5.609   5.750  13.739 -0.4597  0.3450  1.7478
 7076TIP3    H242644   5.467   5.763  13.791 -1.1865  1.3791 -0.3813
 7077TIP3   OH242645   3.695   5.248   4.734 -0.3110  0.2150  0.4536
 7077TIP3    H142646   3.697   5.195   4.814 -0.9132 -0.6410 -0.0824
 7077TIP3    H242647   3.605   5.281   4.730  0.1933  1.7343  1.0555
 7078TIP3   OH242648   0.746   2.804   5.600  0.7049 -0.0638 -0.1282
 7078TIP3    H142649   0.720   2.807   5.692 -1.2991  2.9371 -0.6386
 7078TIP3    H242650   0.781   2.892   5.583 -0.1869 -0.1150 -2.5208
 7079TIP3   OH242651   1.095   2.010  14.542 -0.2080 -0.0229 -0.5348
 7079TIP3    H142652   1.106   1.971  14.455 -0.4995  0.5169 -0.8226
 7079TIP3    H242653   1.182   2.038  14.567 -0.5075  2.5596 -1.9912
 7080TIP3   OH242654   2.216   4.947   5.753  0.1067 -0.0258 -0.4904
 7080TIP3    H142655   2.253   5.027   5.715 -0.5356  0.0059 -1.0673
 7080TIP3    H242656   2.147   4.921   5.692 -1.3516  0.3454  0.9299
 7081TIP3   OH242657   1.131   0.252  11.176  0.7033  0.1116  0.4736
 7081TIP3    H142658   1.064   0.208  11.124  1.7354 -3.3346  1.7944
 7081TIP3    H242659   1.091   0.263  11.263  0.7992  0.9785  0.4200
 7082TIP3   OH242660   6.333   6.214   4.659 -0.3024  0.0692 -0.4050
 7082TIP3    H142661   6.355   6.175   4.744 -2.3820  0.5049  0.3899
 7082TIP3    H242662   6.358   6.306   4.667 -2.3056  0.5884  0.5345
 7083TIP3   OH242663   5.460   3.907  11.006 -0.0376  0.2183 -0.7959
 7083TIP3    H142664   5.550   3.878  10.994 -0.7752 -1.8060 -1.8040
 7083TIP3    H242665   5.407   3.840  10.963 -2.1795 -0.1259  2.1099
 7084TIP3   OH242666   3.406   5.604  13.476 -0.4797 -0.0944 -0.3459
 7084TIP3    H142667   3.322   5.607  13.521 -0.7983 -0.6354 -0.8858
 7084TIP3    H242668   3.433   5.512  13.480  0.4739  0.1985  0.4989
 7085TIP3   OH242669   0.634   6.623  12.384 -0.0560 -0.1031 -0.2161
 7085TIP3    H142670   0.703   6.557  12.371  0.1911  0.0723  0.1808
 7085TIP3    H242671   0.610   6.650  12.296 -0.4280 -1.0008 -0.4023
 7086TIP3   OH242672   0.209   3.221   0.035  0.1997 -0.8623  0.0868
 7086TIP3    H142673   0.195   3.300  -0.017 -0.0852 -0.7603  0.3170
 7086TIP3    H242674   0.122   3.194   0.062  0.4254 -0.1413  1.6453
 7087TIP3   OH242675   1.624   5.475   0.469  0.0565 -0.4528  0.0985
 7087TIP3    H142676   1.714   5.466   0.500 -1.0729 -2.7156  3.1537
 7087TIP3    H242677   1.617   5.412   0.397  0.1833 -2.5287  1.8375
 7088TIP3   OH242678   0.088   6.134   6.322 -0.1218 -0.4996  0.3478
 7088TIP3    H142679   0.037   6.175   6.391 -0.1139 -0.2450  0.2007
 7088TIP3    H242680   0.062   6.179   6.242  2.2791  1.5073  0.5869
 7089TIP3   OH242681   5.568   5.468  12.521  0.2514  0.8949 -0.2758
 7089TIP3    H142682   5.638   5.427  12.471  1.5431  1.0812  1.3278
 7089TIP3    H242683   5.585   5.562  12.515  0.0502  0.9525 -0.0067
 7090TIP3   OH242684   2.377   5.595  14.550 -0.6958  0.1080  0.1258
 7090TIP3    H142685   2.404   5.590  14.459  1.0261 -2.9596  0.6444
 7090TIP3    H242686   2.454   5.565  14.599 -2.2264 -0.3018  2.4224
 7091TIP3   OH242687   5.281   0.700   3.462  0.3227 -0.3690 -0.1632
 7091TIP3    H142688   5.362   0.705   3.411 -0.3307  0.4245 -1.1507
 7091TIP3    H242689   5.303   0.740   3.546  0.7538  0.5936 -0.7172
 7092TIP3   OH242690   4.581   4.474  11.956  0.0579 -0.1913  0.2946
 7092TIP3    H142691   4.593   4.396  12.010  1.5417 -1.2025 -1.4158
 7092TIP3    H242692   4.492   4.465  11.920 -0.9458  0.4833  2.4065
 7093TIP3   OH242693   0.547   5.478   0.275 -0.1873  0.5637 -0.4813
 7093TIP3    H142694   0.596   5.403   0.240 -1.0722 -1.2216  1.8505
 7093TIP3    H242695   0.471   5.439   0.318 -0.2740  2.7340  1.5415
 7094TIP3   OH242696   5.703   1.206   2.054  0.3346  0.0889  0.4478
 7094TIP3    H142697   5.659   1.170   2.131  1.3699  0.3662  1.1929
 7094TIP3    H242698   5.663   1.292   2.042 -3.1610 -1.6767 -2.1873
 7095TIP3   OH242699   2.426   6.598  14.533 -0.0269 -0.6647  1.0226
 7095TIP3    H142700   2.406   6.689  14.553 -0.5359 -0.9113  1.6554
 7095TIP3    H242701   2.376   6.579  14.453 -0.5459 -0.6166  1.3342
 7096TIP3   OH242702   5.727   3.434  13.437  0.3878  0.4205 -0.9787
 7096TIP3    H142703   5.807   3.398  13.398 -0.5447 -0.2341 -2.3789
 7096TIP3    H242704   5.745   3.528  13.444  0.9893  0.4159 -2.0701
 7097TIP3   OH242705   5.982   4.829   5.633  0.0411  0.1023 -0.0548
 7097TIP3    H142706   5.977   4.915   5.591  1.1543  0.5045  0.5653
 7097TIP3    H242707   5.896   4.815   5.671  0.1510  1.4501  0.7563
 7098TIP3   OH242708   3.185   5.274   2.717 -0.0600 -0.1613 -0.2830
 7098TIP3    H142709   3.252   5.219   2.758 -0.6174 -1.0117 -0.4708
 7098TIP3    H242710   3.145   5.321   2.791  0.3224 -0.1275 -0.0967
 7099TIP3   OH242711   2.016   3.003  12.558  0.1920 -0.5618  0.2104
 7099TIP3    H142712   1.955   3.015  12.631 -0.1515  0.0862 -0.1782
 7099TIP3    H242713   2.031   2.909  12.555 -1.7404 -0.8857 -0.4493
 7100TIP3   OH242714   4.261   3.380  16.126 -0.1074  0.2732  0.5134
 7100TIP3    H142715   4.167   3.362  16.129 -0.3757  1.4892 -0.0489
 7100TIP3    H242716   4.301   3.294  16.118 -1.3005 -0.1278 -1.8520
 7101TIP3   OH242717   1.266   2.878   4.565 -0.3692  0.7586 -0.0058
 7101TIP3    H142718   1.243   2.805   4.622 -0.4601  1.0483  0.3290
 7101TIP3    H242719   1.233   2.852   4.479  0.6736 -0.1426 -0.1622
 7102TIP3   OH242720   5.319   3.552   4.425 -0.0543  0.2615  0.3646
 7102TIP3    H142721   5.367   3.621   4.471  2.3572 -1.1953  0.2652
 7102TIP3    H242722   5.308   3.483   4.490 -0.4564 -0.1291 -0.1095
 7103TIP3   OH242723   6.762   5.668   2.406  0.1926 -0.5801 -0.0788
 7103TIP3    H142724   6.780   5.734   2.339  0.0641  0.1419  0.5829
 7103TIP3    H242725   6.848   5.630   2.426  0.6885  1.0905  1.2540
 7104TIP3   OH242726   1.353   1.629  15.642  0.1063  0.1023 -0.3042
 7104TIP3    H142727   1.291   1.701  15.639 -0.4345 -0.3325  0.1299
 7104TIP3    H242728   1.425   1.656  15.586 -1.1422 -0.0210 -2.0254
 7105TIP3   OH242729   0.356   5.698   5.651  0.6426  0.1610 -0.4791
 7105TIP3    H142730   0.405   5.773   5.618  2.1329 -0.4001  0.3561
 7105TIP3    H242731   0.337   5.720   5.743 -2.7677  1.3677 -1.3379
 7106TIP3   OH242732   6.052   5.464   4.154  0.2843  0.4563  0.5757
 7106TIP3    H142733   6.066   5.369   4.161  1.0079  0.5996  1.1692
 7106TIP3    H242734   6.135   5.498   4.122 -0.2687  0.8024 -0.5289
 7107TIP3   OH242735   6.371   5.204  16.011  0.5340 -0.3409  0.5501
 7107TIP3    H142736   6.365   5.233  15.920  0.1460 -0.1685  0.6296
 7107TIP3    H242737   6.308   5.132  16.018  1.0390 -0.7971  0.5152
 7108TIP3   OH242738   3.262   4.877   2.410 -0.3650  0.0015 -0.5521
 7108TIP3    H142739   3.178   4.869   2.456 -0.1955  3.4026  0.6559
 7108TIP3    H242740   3.327   4.848   2.475 -0.4763 -1.3027 -0.9969
 7109TIP3   OH242741   5.553   0.748   4.648  0.1860 -0.3888  0.0057
 7109TIP3    H142742   5.544   0.840   4.673 -1.0320  0.2813 -2.5517
 7109TIP3    H242743   5.506   0.700   4.715  0.0437  0.9386  0.8927
 7110TIP3   OH242744   4.281   5.186   3.323 -0.3967  0.0482 -0.2133
 7110TIP3    H142745   4.283   5.134   3.243 -0.9823  0.5324 -0.5451
 7110TIP3    H242746   4.360   5.159   3.371  0.3307  0.2680 -1.2695
 7111TIP3   OH242747   0.050   4.596  15.285 -0.0718 -0.3046  0.0415
 7111TIP3    H142748   0.145   4.607  15.282  0.0106 -0.7531  0.6925
 7111TIP3    H242749   0.023   4.647  15.362 -0.1890 -1.2541  0.6414
 7112TIP3   OH242750   1.221   6.047   0.426 -0.4270 -0.1536  0.3063
 7112TIP3    H142751   1.228   5.951   0.427  0.8526 -0.0989  2.4662
 7112TIP3    H242752   1.201   6.070   0.516 -1.9969  1.5854 -0.4229
 7113TIP3   OH242753   5.312   3.373  13.848 -0.4115 -0.3267  0.2610
 7113TIP3    H142754   5.312   3.467  13.869 -1.8120 -0.2217 -0.1426
 7113TIP3    H242755   5.349   3.332  13.926 -2.0331  0.3820  1.4649
 7114TIP3   OH242756   5.307   2.906  12.692  0.1585  0.0618  0.1459
 7114TIP3    H142757   5.337   2.960  12.620 -0.3358 -1.6026 -1.3786
 7114TIP3    H242758   5.378   2.910  12.757  1.1267  0.6757 -0.9311
 7115TIP3   OH242759   3.570   2.561  10.347  0.0014  0.3218  0.0351
 7115TIP3    H142760   3.619   2.620  10.290 -0.1605 -0.9020 -1.4474
 7115TIP3    H242761   3.564   2.607  10.430  2.0165  1.3171 -0.3060
 7116TIP3   OH242762   0.901   0.834  15.628  0.1766  0.9417  0.2090
 7116TIP3    H142763   0.928   0.742  15.627  0.2775  0.9088  2.1061
 7116TIP3    H242764   0.840   0.840  15.701 -0.7155  2.1689 -0.5887
 7117TIP3   OH242765   0.804   4.042   3.692  0.1526 -0.6693 -0.0971
 7117TIP3    H142766   0.780   4.050   3.784 -1.8730 -0.3590 -0.5952
 7117TIP3    H242767   0.786   3.950   3.671 -0.9565 -0.3582 -0.5591
 7118TIP3   OH242768   5.817   3.874   4.884  0.5781  0.0272  0.4200
 7118TIP3    H142769   5.775   3.942   4.831  3.5635  1.1465 -0.7060
 7118TIP3    H242770   5.827   3.801   4.823 -1.1432 -0.8992  1.1743
 7119TIP3   OH242771   2.146   4.231   1.401  0.0637 -0.0182 -0.2239
 7119TIP3    H142772   2.237   4.233   1.371 -0.5003  0.9065 -2.0720
 7119TIP3    H242773   2.099   4.189   1.329 -0.9944 -0.3001  0.6194
 7120TIP3   OH242774   6.021   2.267   3.063  0.1817  0.3354  0.3110
 7120TIP3    H142775   6.061   2.182   3.046  0.2022  0.2403  0.8376
 7120TIP3    H242776   6.043   2.287   3.154 -0.9360  0.3023  0.6015
 7121TIP3   OH242777   0.067   3.545  12.457  0.1939 -0.3148  0.2595
 7121TIP3    H142778   0.129   3.476  12.433  0.6631 -0.4126  1.7114
 7121TIP3    H242779   0.030   3.573  12.373  0.9769 -1.3970 -0.4772
 7122TIP3   OH242780   0.785   1.118   1.916  0.4568 -0.4053 -0.1981
 7122TIP3    H142781   0.777   1.190   1.853  2.0996  0.0350  0.0600
 7122TIP3    H242782   0.722   1.053   1.885  2.4675 -1.0182 -3.4502
 7123TIP3   OH242783   1.825   3.843   3.467 -0.2548  0.2193 -0.0073
 7123TIP3    H142784   1.902   3.787   3.473  0.2651  0.8837 -0.4620
 7123TIP3    H242785   1.828   3.896   3.547 -0.8114 -0.4642  0.4820
 7124TIP3   OH242786   4.604   4.259   5.679  0.4406  0.1219  0.1990
 7124TIP3    H142787   4.660   4.274   5.603  0.5757  1.8032  0.5935
 7124TIP3    H242788   4.663   4.232   5.749  0.5976  0.5937  0.2527
 7125TIP3   OH242789   0.500   4.615   4.586 -0.2265 -0.4833  0.8023
 7125TIP3    H142790   0.426   4.603   4.645 -0.4514 -0.3776  0.5427
 7125TIP3    H242791   0.469   4.582   4.502 -0.4622  0.8710  0.3455
 7126TIP3   OH242792   1.221   0.852   2.707  0.3132 -0.1436  0.2043
 7126TIP3    H142793   1.224   0.788   2.777 -1.2587  0.1900  0.6140
 7126TIP3    H242794   1.188   0.804   2.631  0.3845 -0.1086  0.1503
 7127TIP3   OH242795   6.404   3.075  12.015  0.2703 -0.2906  0.1048
 7127TIP3    H142796   6.416   3.113  12.102 -2.7635  1.2321 -0.0259
 7127TIP3    H242797   6.317   3.036  12.018  0.5925 -1.2885 -1.9222
 7128TIP3   OH242798   4.811   0.971   5.820  0.1358 -0.3370 -0.2754
 7128TIP3    H142799   4.731   0.961   5.871  0.9374 -0.6642  0.9523
 7128TIP3    H242800   4.878   0.926   5.871  1.4881  1.4683 -0.3401
 7129TIP3   OH242801   4.974   6.023   3.568  0.2126  0.4848 -0.0552
 7129TIP3    H142802   5.026   5.949   3.537  1.8946  1.9719 -0.9723
 7129TIP3    H242803   4.890   5.984   3.594  1.7433 -2.0187  1.5161
 7130TIP3   OH242804   3.322   1.285   4.949 -0.0152 -0.3704  0.0040
 7130TIP3    H142805   3.402   1.305   4.999 -0.2525 -2.2195  1.2380
 7130TIP3    H242806   3.268   1.363   4.958  1.0109  0.3088  0.4826
 7131TIP3   OH242807   0.353   4.907  15.500  0.1264  0.0014  0.5789
 7131TIP3    H142808   0.376   5.000  15.511  2.6573 -0.1673 -2.0730
 7131TIP3    H242809   0.309   4.884  15.582  1.1049  3.0504  2.1382
 7132TIP3   OH242810   0.904   2.609   1.438 -0.2668  0.1926  0.5398
 7132TIP3    H142811   0.956   2.687   1.418 -1.1248  0.5717 -0.2766
 7132TIP3    H242812   0.814   2.634   1.421 -0.5422 -1.0524 -0.0082
 7133TIP3   OH242813   1.930   5.185   3.236  0.8940  0.2885 -0.8950
 7133TIP3    H142814   1.876   5.250   3.192  0.0896  0.8589  0.8363
 7133TIP3    H242815   1.868   5.117   3.263  1.0369  0.7827  0.8180
 7134TIP3   OH242816   2.633   4.099  13.729  0.8768  0.3634  0.1050
 7134TIP3    H142817   2.691   4.174  13.745  0.7115  0.6099 -0.4123
 7134TIP3    H242818   2.589   4.121  13.647  1.8215 -0.9276 -0.7908
 7135TIP3   OH242819   0.702   4.060   0.664  0.0621  1.2773 -0.2283
 7135TIP3    H142820   0.728   4.138   0.615 -0.8046  1.1963 -0.8415
 7135TIP3    H242821   0.735   3.987   0.612 -1.6911  1.1631 -1.2231
 7136TIP3   OH242822   2.480   5.304  13.963  0.4791  0.1200  0.2750
 7136TIP3    H142823   2.396   5.332  13.928  1.1848  0.4915 -1.1976
 7136TIP3    H242824   2.506   5.231  13.907  0.1831 -1.4093  2.0417
 7137TIP3   OH242825   6.733   1.949  11.386 -0.7738  0.6946 -0.4203
 7137TIP3    H142826   6.664   1.961  11.451  0.3996  0.1849  0.9756
 7137TIP3    H242827   6.686   1.930  11.305 -2.3089 -1.8573  0.9106
 7138TIP3   OH242828   4.657   3.737  14.266  0.2735 -0.0637  0.3112
 7138TIP3    H142829   4.701   3.764  14.347 -0.3484  2.4348 -0.1065
 7138TIP3    H242830   4.565   3.761  14.279  0.1916  0.5218 -1.1621
 7139TIP3   OH242831   0.821   3.663   5.965 -0.1602  0.2026  0.3563
 7139TIP3    H142832   0.770   3.642   5.888 -0.4917  1.6318  0.1555
 7139TIP3    H242833   0.782   3.610   6.035 -1.5732  0.8513  0.0941
 7140TIP3   OH242834   3.882   0.309  12.112 -0.5352  0.0543  0.4148
 7140TIP3    H142835   3.788   0.329  12.105 -0.8306 -0.2728  2.6083
 7140TIP3    H242836   3.910   0.354  12.192  2.1471  3.3641 -2.0801
 7141TIP3   OH242837   2.130   0.095   3.165 -0.2739  0.2110 -0.1061
 7141TIP3    H142838   2.110   0.009   3.129 -1.4741  0.1912  0.5692
 7141TIP3    H242839   2.219   0.085   3.201 -1.1779 -1.4289  1.8839
 7142TIP3   OH242840   0.365   1.447   3.179  0.3830  0.3465 -0.0840
 7142TIP3    H142841   0.402   1.534   3.163 -0.3164  0.6356 -0.1568
 7142TIP3    H242842   0.314   1.428   3.101 -0.8261  0.5968  0.6141
 7143TIP3   OH242843   0.242   0.970   5.107  0.0081 -0.0026 -0.2588
 7143TIP3    H142844   0.294   0.892   5.127 -0.8258 -0.8110 -1.1068
 7143TIP3    H242845   0.282   1.006   5.028 -0.2396 -0.1820 -0.4686
 7144TIP3   OH242846   5.325   0.436  13.712 -0.1521 -0.7928 -0.1958
 7144TIP3    H142847   5.240   0.472  13.686 -0.2562 -0.3211  0.7598
 7144TIP3    H242848   5.389   0.493  13.670 -0.3200 -0.0425  0.5317
 7145TIP3   OH242849   3.568   0.305   5.595 -0.8001  0.1519 -0.1943
 7145TIP3    H142850   3.559   0.341   5.683 -2.9251  0.2823 -0.4108
 7145TIP3    H242851   3.512   0.227   5.596  2.5641 -2.4742 -0.1603
 7146TIP3   OH242852   0.409   3.537  14.024 -0.4012  0.1440 -0.2171
 7146TIP3    H142853   0.442   3.461  13.976 -0.4194 -0.7745  1.1803
 7146TIP3    H242854   0.342   3.502  14.083  0.1419  1.1006  1.0192
 7147TIP3   OH242855   0.441   6.644  13.904  0.3871 -0.4329 -0.2658
 7147TIP3    H142856   0.462   6.736  13.887 -0.0397 -0.6107 -1.9313
 7147TIP3    H242857   0.398   6.614  13.823 -1.9294 -1.3662  1.1996
 7148TIP3   OH242858   6.432   3.794  11.272  0.0005 -0.1103 -0.1527
 7148TIP3    H142859   6.437   3.700  11.289  2.4983  0.0649  0.5416
 7148TIP3    H242860   6.371   3.802  11.199 -1.9511 -2.0315  1.1526
 7149TIP3   OH242861   1.174   5.817  12.309 -0.1037 -0.0628 -0.1153
 7149TIP3    H142862   1.264   5.824  12.340 -0.1429 -0.7693  0.1892
 7149TIP3    H242863   1.139   5.906  12.316  0.4840  0.1618  0.0290
 7150TIP3   OH242864   3.845   3.055  14.515  0.0459  0.6233  0.3450
 7150TIP3    H142865   3.785   3.017  14.451 -1.0300 -3.1828  3.2174
 7150TIP3    H242866   3.930   3.016  14.494 -0.1179  0.0858  0.6588
 7151TIP3   OH242867   2.050   5.822  16.933 -0.5563 -0.3293  0.2691
 7151TIP3    H142868   2.017   5.752  16.990 -1.8308  0.9099  1.1031
 7151TIP3    H242869   2.049   5.900  16.988  2.7818  0.0573  0.0274
 7152TIP3   OH242870   0.521   2.656   4.570 -0.0908  0.0416 -1.1459
 7152TIP3    H142871   0.533   2.632   4.478  1.1269  0.0030 -0.9853
 7152TIP3    H242872   0.472   2.583   4.608 -0.1537 -0.1740 -1.6435
 7153TIP3   OH242873   0.972   5.585  13.338 -0.5464  0.0675  0.0590
 7153TIP3    H142874   0.908   5.576  13.408 -1.0089  1.3195 -0.1664
 7153TIP3    H242875   0.990   5.679  13.334 -0.0968 -0.0500 -1.1207
 7154TIP3   OH242876   5.986   5.270  10.737  0.5130  0.2691 -0.3554
 7154TIP3    H142877   6.006   5.226  10.655  2.6941 -1.4582  0.9586
 7154TIP3    H242878   5.911   5.326  10.718  1.0215  0.0513 -3.5159
 7155TIP3   OH242879   3.297   4.159  12.837  0.1414 -0.4536 -0.4011
 7155TIP3    H142880   3.213   4.149  12.882 -0.0767 -0.2275 -0.7614
 7155TIP3    H242881   3.360   4.119  12.897  0.1098  1.3687  0.9509
 7156TIP3   OH242882   5.828   1.931   3.854 -0.4365  0.9447  0.1460
 7156TIP3    H142883   5.896   1.947   3.920  0.1443  0.6806 -0.3710
 7156TIP3    H242884   5.877   1.902   3.776 -1.3044 -2.0720  0.6137
 7157TIP3   OH242885   6.142   3.277   1.706  0.2227  0.5854 -0.0487
 7157TIP3    H142886   6.065   3.314   1.662 -0.1753 -0.2767 -0.1037
 7157TIP3    H242887   6.215   3.297   1.648 -0.3288 -0.7372 -1.2373
 7158TIP3   OH242888   4.278   4.808   0.909 -0.0898 -0.1863  0.2217
 7158TIP3    H142889   4.262   4.902   0.914 -1.2136 -0.3571  0.1229
 7158TIP3    H242890   4.228   4.771   0.982  0.5263 -0.6899  0.3970
 7159TIP3   OH242891   6.284   6.428   4.971  0.6947 -0.1991 -0.7681
 7159TIP3    H142892   6.291   6.517   5.007 -1.0358  0.5021 -2.0439
 7159TIP3    H242893   6.303   6.371   5.046 -1.3094  1.2218  0.9835
 7160TIP3   OH242894   1.898   3.549  11.219  0.4296  0.1291 -0.5083
 7160TIP3    H142895   1.929   3.482  11.280  0.1735  0.8242  0.4152
 7160TIP3    H242896   1.911   3.511  11.132  2.5407 -0.1564 -0.1167
 7161TIP3   OH242897   6.355   5.140   5.583  0.1528 -0.2168 -0.2562
 7161TIP3    H142898   6.432   5.176   5.627  0.6362 -0.2011 -1.0772
 7161TIP3    H242899   6.281   5.182   5.626  0.6895  1.5956 -1.0021
 7162TIP3   OH242900   5.992   5.943  12.907 -0.0715  0.5821 -0.3377
 7162TIP3    H142901   6.045   6.020  12.886 -0.2528  1.0666  0.8769
 7162TIP3    H242902   5.969   5.955  12.999  0.0600 -1.0254 -0.0682
 7163TIP3   OH242903   6.329   2.576  15.029 -0.5573 -0.1184  0.2112
 7163TIP3    H142904   6.372   2.531  15.103  0.4785  0.9671  0.2953
 7163TIP3    H242905   6.383   2.653  15.013 -1.3590  0.2155 -1.0259
 7164TIP3   OH242906   6.565   0.606  16.126 -0.3188 -0.2701 -0.0394
 7164TIP3    H142907   6.535   0.689  16.163 -0.2626  0.1531 -0.9117
 7164TIP3    H242908   6.651   0.591  16.167 -0.4829 -0.0833  0.3836
 7165TIP3   OH242909   0.328   3.736   1.684 -0.8522  0.8386 -0.2584
 7165TIP3    H142910   0.336   3.761   1.592  2.8841 -0.6419 -0.5168
 7165TIP3    H242911   0.401   3.781   1.728  0.0629 -1.7523  1.0836
 7166TIP3   OH242912   1.731   5.130  12.595  0.0177 -0.1907  0.2665
 7166TIP3    H142913   1.820   5.163  12.604 -0.7375  1.6122  1.8084
 7166TIP3    H242914   1.723   5.063  12.663 -0.4214  1.2322  1.6850
 7167TIP3   OH242915   2.872   1.806  15.141  0.4462  0.5755  1.0247
 7167TIP3    H142916   2.953   1.758  15.153 -0.5651 -1.4394  0.3419
 7167TIP3    H242917   2.808   1.739  15.116 -1.1656  2.2428  0.4340
 7168TIP3   OH242918   5.857   0.615  13.329  0.1427 -0.1768 -0.3018
 7168TIP3    H142919   5.825   0.702  13.301 -0.2342  0.5128  2.0927
 7168TIP3    H242920   5.786   0.579  13.382  1.4760 -0.6106  1.2753
 7169TIP3   OH242921   1.897   0.372   4.716  0.2111  0.3840  0.0857
 7169TIP3    H142922   1.928   0.311   4.649 -0.1533 -0.7614  0.9310
 7169TIP3    H242923   1.903   0.458   4.674 -0.8328 -0.3679 -1.7507
 7170TIP3   OH242924   2.104   3.500   1.139 -0.1878 -0.3279  0.7146
 7170TIP3    H142925   2.102   3.594   1.154  0.4459  0.2078 -1.9909
 7170TIP3    H242926   2.148   3.464   1.217  2.4484  1.9940  0.4625
 7171TIP3   OH242927   3.624   3.872   5.871 -0.2835  0.7607  0.5075
 7171TIP3    H142928   3.604   3.789   5.827  1.5014  0.5071  0.0765
 7171TIP3    H242929   3.620   3.851   5.964  0.1615  0.1602  0.4028
 7172TIP3   OH242930   5.222   4.893   3.407  0.1647  0.0925  0.2957
 7172TIP3    H142931   5.200   4.928   3.321 -0.3505 -1.3375 -0.1894
 7172TIP3    H242932   5.146   4.841   3.432  1.0941 -1.1151  0.7241
 7173TIP3   OH242933   3.575   2.894  12.201  0.3397  0.2587 -0.6527
 7173TIP3    H142934   3.522   2.948  12.259  1.7099 -0.1447  1.0826
 7173TIP3    H242935   3.514   2.833  12.160 -0.7737  1.1030 -0.2743
 7174TIP3   OH242936   5.798   0.517  15.392 -0.4452 -0.0749  0.3089
 7174TIP3    H142937   5.707   0.487  15.399  0.0177 -1.2217  2.0031
 7174TIP3    H242938   5.843   0.448  15.344 -0.0154 -0.6299  1.4856
 7175TIP3   OH242939   4.380   2.682  13.514  0.4653  0.5746  0.2403
 7175TIP3    H142940   4.462   2.693  13.562  0.7490 -1.2509  0.2420
 7175TIP3    H242941   4.333   2.764  13.527  0.4487  0.1520  3.7900
 7176TIP3   OH242942   0.611   3.603   2.858  0.3808 -0.1149 -0.6172
 7176TIP3    H142943   0.595   3.573   2.769 -1.3073 -0.4297 -0.2338
 7176TIP3    H242944   0.526   3.634   2.889  1.3619  2.0936  0.1345
 7177TIP3   OH242945   2.579   3.779   1.942  0.4973  0.2925 -0.0739
 7177TIP3    H142946   2.558   3.686   1.929 -0.9855  0.5538  0.3625
 7177TIP3    H242947   2.622   3.805   1.860 -0.3407 -0.4368 -0.7647
 7178TIP3   OH242948   0.942   1.867   0.068 -0.5226  0.3599  0.0328
 7178TIP3    H142949   0.940   1.962   0.067 -1.0931  0.4470 -3.8209
 7178TIP3    H242950   0.876   1.842   0.133  0.2945  2.4765  1.8092
 7179TIP3   OH242951   6.500   0.569   5.789 -0.6733 -0.1871 -0.4182
 7179TIP3    H142952   6.482   0.476   5.808 -0.2479 -0.5303 -1.6248
 7179TIP3    H242953   6.531   0.569   5.699 -1.4537  1.2421 -0.7081
 7180TIP3   OH242954   4.276   5.342  15.951  0.2565  0.6864 -0.7666
 7180TIP3    H142955   4.364   5.374  15.971  0.4135 -0.3616  0.3115
 7180TIP3    H242956   4.286   5.247  15.947 -0.9069  0.5220 -0.1311
 7181TIP3   OH242957   0.706   0.833   3.931 -0.3861 -0.3577  0.1246
 7181TIP3    H142958   0.620   0.849   3.892  0.9413  2.1080 -2.1211
 7181TIP3    H242959   0.718   0.905   3.993  0.7539  0.4256 -0.9627
 7182TIP3   OH242960   4.997   5.446  16.466  0.3033 -0.3810 -0.8912
 7182TIP3    H142961   5.015   5.360  16.504 -0.0767 -0.6177 -1.2398
 7182TIP3    H242962   4.972   5.501  16.541  2.9469  0.1280 -0.2645
 7183TIP3   OH242963   4.343   3.096  14.895 -0.3670 -0.0416  0.3190
 7183TIP3    H142964   4.378   3.110  14.808  0.1397 -0.4568  0.4563
 7183TIP3    H242965   4.274   3.162  14.904  0.7293  1.1509  0.2523
 7184TIP3   OH242966   2.466   6.609   3.522  0.2380  0.4727  0.1636
 7184TIP3    H142967   2.441   6.579   3.610  0.0169  1.0347  0.2970
 7184TIP3    H242968   2.504   6.695   3.536 -0.0350  0.6754 -0.3206
 7185TIP3   OH242969   6.169   5.555  11.788  0.1046  0.1168 -0.2010
 7185TIP3    H142970   6.095   5.603  11.753 -0.8511 -2.9074 -2.7827
 7185TIP3    H242971   6.208   5.614  11.853 -3.6996  2.3439  0.3287
 7186TIP3   OH242972   0.031   0.975  12.126 -0.4078 -0.5454  0.0840
 7186TIP3    H142973   0.075   0.935  12.201  1.0221  0.4264 -0.2007
 7186TIP3    H242974   0.003   1.061  12.158 -3.4147 -1.5929  0.6771
 7187TIP3   OH242975   2.221   2.174  11.331 -0.0228 -0.1941 -0.3557
 7187TIP3    H142976   2.243   2.094  11.378  0.2867  0.6108  0.9213
 7187TIP3    H242977   2.147   2.211  11.380  0.2183  0.5919 -0.5651
 7188TIP3   OH242978   1.028   2.192   0.553  0.2753 -0.2751  0.6498
 7188TIP3    H142979   1.005   2.186   0.646 -0.7620 -3.0089  0.3071
 7188TIP3    H242980   1.051   2.284   0.540 -1.3959  0.6055  3.1783
 7189TIP3   OH242981   1.260   5.538   2.879  0.6391 -0.3640 -0.4811
 7189TIP3    H142982   1.194   5.607   2.874 -1.2278 -2.0475 -0.1801
 7189TIP3    H242983   1.210   5.458   2.893  2.7633 -1.7376 -0.3384
 7190TIP3   OH242984   5.902   5.861  16.758  0.1504 -0.4616 -0.2745
 7190TIP3    H142985   5.825   5.902  16.798 -0.9819 -1.3104 -1.5112
 7190TIP3    H242986   5.959   5.935  16.736 -1.2552  0.3841 -1.2365
 7191TIP3   OH242987   5.530   3.360   2.604 -0.5791 -0.0016  0.0492
 7191TIP3    H142988   5.490   3.313   2.530  0.3588 -0.9034  0.0875
 7191TIP3    H242989   5.561   3.290   2.662  0.9578  0.6540  0.0660
 7192TIP3   OH242990   4.670   5.515  12.369 -0.3498  0.6533 -0.4232
 7192TIP3    H142991   4.608   5.560  12.313 -0.9046  0.1021 -0.2651
 7192TIP3    H242992   4.693   5.435  12.321 -3.0248 -1.3192  1.2653
 7193TIP3   OH242993   0.971   3.790   1.642  0.0989 -0.2041  0.1849
 7193TIP3    H142994   0.943   3.880   1.625 -0.6805 -0.5872 -0.6265
 7193TIP3    H242995   0.997   3.791   1.734  0.3728  0.9128  0.1187
 7194TIP3   OH242996   6.669   4.672   5.785 -0.0646  0.5006  0.6539
 7194TIP3    H142997   6.745   4.727   5.762  0.1844  1.1480  2.8130
 7194TIP3    H242998   6.601   4.735   5.809 -0.0486 -0.0813  2.3356
 7195TIP3   OH242999   3.574   0.547  16.889  0.2182 -0.0063  0.0296
 7195TIP3    H143000   3.550   0.464  16.930 -2.7063  0.2973 -0.8462
 7195TIP3    H243001   3.665   0.561  16.916  0.6101 -3.1031  0.7892
 7196TIP3   OH243002   0.930   5.937  11.151  0.8138  0.6915  0.3734
 7196TIP3    H143003   0.907   5.978  11.068  0.4630 -0.3983 -0.0936
 7196TIP3    H243004   0.856   5.957  11.209 -0.3135 -0.8498 -0.4318
 7197TIP3   OH243005   5.297   6.031  12.201 -0.2963  0.0041  0.2780
 7197TIP3    H143006   5.207   6.045  12.230 -0.7917  1.3847 -1.7035
 7197TIP3    H243007   5.333   6.119  12.190  0.8733 -0.5078 -0.1744
 7198TIP3   OH243008   4.183   6.090  15.225  0.3175 -0.7298  0.2216
 7198TIP3    H143009   4.261   6.117  15.274 -0.5359  2.0919  0.2200
 7198TIP3    H243010   4.111   6.101  15.287 -0.2955 -1.5258 -0.3307
 7199TIP3   OH243011   5.559   1.358   1.713 -0.3158  0.0497  0.2320
 7199TIP3    H143012   5.576   1.269   1.746  1.0067  0.6332  1.2324
 7199TIP3    H243013   5.522   1.404   1.788  0.1409  0.6598  0.0860
 7200TIP3   OH243014   1.212   5.801  11.819  0.1435  0.5060 -0.4311
 7200TIP3    H143015   1.297   5.767  11.792  0.3256  0.7316 -0.1361
 7200TIP3    H243016   1.157   5.792  11.740  0.1041 -0.7361 -0.2794
 7201TIP3   OH243017   6.112   4.449  13.116  0.0605 -0.1854  0.5650
 7201TIP3    H143018   6.164   4.529  13.125 -1.5649  0.8020  1.6407
 7201TIP3    H243019   6.102   4.416  13.205 -0.4223 -0.8315  0.2819
 7202TIP3   OH243020   1.236   1.986  15.131  0.3376  0.0331  0.2376
 7202TIP3    H143021   1.265   2.036  15.207 -0.4697  1.2911 -0.2476
 7202TIP3    H243022   1.173   2.044  15.087 -0.2406 -1.2149 -0.6322
 7203TIP3   OH243023   0.671   5.549  14.529  0.3181 -0.1991 -0.0755
 7203TIP3    H143024   0.727   5.598  14.468  0.9899 -1.7791 -0.7764
 7203TIP3    H243025   0.618   5.616  14.572  1.5061  1.1746 -0.6837
 7204TIP3   OH243026   0.959   0.517   3.383 -0.4629 -0.7438 -0.2649
 7204TIP3    H143027   1.036   0.551   3.429 -0.8784 -0.1026 -0.0244
 7204TIP3    H243028   0.995   0.463   3.313  0.1848 -2.1754  1.1064
 7205TIP3   OH243029   1.959   4.932   4.367 -0.2204 -0.2454  0.7740
 7205TIP3    H143030   1.865   4.934   4.353 -0.0146  0.1385 -0.6757
 7205TIP3    H243031   1.990   5.018   4.339  0.5049 -0.1827  1.7157
 7206TIP3   OH243032   3.268   6.455   5.603 -0.0422  0.0739 -0.2459
 7206TIP3    H143033   3.357   6.419   5.602 -0.5091 -1.1259 -1.2743
 7206TIP3    H243034   3.245   6.458   5.696  0.5847 -0.9225 -0.0353
 7207TIP3   OH243035   5.780   2.184  16.157 -0.0042  0.1395  0.1598
 7207TIP3    H143036   5.723   2.252  16.192  0.2065  0.5405 -0.2688
 7207TIP3    H243037   5.868   2.209  16.186  0.0437 -0.0831  0.2076
 7208TIP3   OH243038   6.527   2.545   2.110  0.2837  0.2349 -0.4109
 7208TIP3    H143039   6.604   2.535   2.054 -0.1034  0.5871 -1.0192
 7208TIP3    H243040   6.464   2.481   2.075  1.0418 -1.6718  1.4573
 7209TIP3   OH243041   3.525   4.478  11.332  0.1537  0.0782 -0.0849
 7209TIP3    H143042   3.566   4.564  11.342 -0.3672  0.5886 -1.8895
 7209TIP3    H243043   3.431   4.496  11.331  0.0007 -0.6505  0.5979
 7210TIP3   OH243044   2.489   0.938   1.156 -0.1995 -0.4789  0.3836
 7210TIP3    H143045   2.490   0.998   1.081  1.9541 -1.0068 -0.0785
 7210TIP3    H243046   2.405   0.955   1.199 -0.5833  1.3297 -0.9425
 7211TIP3   OH243047   0.432   5.994  13.535  0.1044  0.0326 -0.6350
 7211TIP3    H143048   0.357   6.053  13.525  0.2609  0.4997  0.7278
 7211TIP3    H243049   0.401   5.909  13.505 -0.3585  0.6357 -1.9252
 7212TIP3   OH243050   5.468   0.519   1.383 -0.2715 -0.2502 -0.3600
 7212TIP3    H143051   5.512   0.586   1.332 -0.5765 -0.4800 -0.9394
 7212TIP3    H243052   5.469   0.442   1.327  0.4768 -0.8686  0.4832
 7213TIP3   OH243053   2.893   6.245  13.400 -0.0264  0.1097 -0.0042
 7213TIP3    H143054   2.959   6.244  13.469 -0.4775 -2.6007  0.5115
 7213TIP3    H243055   2.913   6.168  13.347 -1.6760  0.2674 -0.9264
 7214TIP3   OH243056   4.282   3.905   4.055 -0.1765 -1.0956  0.8207
 7214TIP3    H143057   4.370   3.894   4.018 -0.5133 -2.6742  0.4001
 7214TIP3    H243058   4.271   4.000   4.063  2.3306 -0.8791  2.7961
 7215TIP3   OH243059   6.438   6.363  14.155 -0.6142 -0.0923 -0.2279
 7215TIP3    H143060   6.504   6.346  14.222 -1.0401  0.6642  0.4064
 7215TIP3    H243061   6.411   6.277  14.125  0.4967 -0.4182 -0.3444
 7216TIP3   OH243062   3.841   1.057   0.256  0.0632  0.1196  0.4844
 7216TIP3    H143063   3.757   1.084   0.294  0.4987  2.3729  0.0207
 7216TIP3    H243064   3.906   1.082   0.322  0.5153  0.3816 -0.0473
 7217TIP3   OH243065   3.742   2.291  11.496  0.4387  0.3857  0.1938
 7217TIP3    H143066   3.710   2.212  11.541 -0.4366  1.4728  1.5690
 7217TIP3    H243067   3.834   2.271  11.476  0.6174 -0.5185  1.6898
 7218TIP3   OH243068   0.354   4.479   0.626 -0.6252 -0.2622 -0.1779
 7218TIP3    H143069   0.387   4.486   0.536  0.8719 -1.9742  0.1761
 7218TIP3    H243070   0.427   4.441   0.675 -1.2821  0.9814  1.8643
 7219TIP3   OH243071   2.069   0.253  16.217  0.1061  0.3869  0.6266
 7219TIP3    H143072   2.098   0.275  16.129 -2.4157  0.8092 -0.1689
 7219TIP3    H243073   2.042   0.161  16.211 -0.1716  0.4470  0.9080
 7220TIP3   OH243074   5.019   0.794  16.008  0.1793 -0.4229  1.0979
 7220TIP3    H143075   5.044   0.776  15.918  1.1702  0.7993  1.0881
 7220TIP3    H243076   5.059   0.724  16.059  0.4562 -0.5764  0.6736
 7221TIP3   OH243077   4.450   3.736  15.225  0.0329  0.3019  0.4142
 7221TIP3    H143078   4.434   3.818  15.179 -2.5008  0.3819  1.2569
 7221TIP3    H243079   4.362   3.699  15.239  1.1118 -3.8484 -2.1569
 7222TIP3   OH243080   3.557   3.395  15.186 -0.0215  0.0775  0.0684
 7222TIP3    H143081   3.537   3.364  15.275  2.9807  0.4885  0.9961
 7222TIP3    H243082   3.644   3.361  15.168 -0.8390 -0.6592 -3.1281
 7223TIP3   OH243083   5.708   4.615  14.226 -0.6022 -0.0717 -0.0947
 7223TIP3    H143084   5.631   4.656  14.265  0.7198 -0.4609  3.2630
 7223TIP3    H243085   5.747   4.683  14.171  0.1642  2.5476  3.3455
 7224TIP3   OH243086   3.421   1.342  12.864 -0.0660 -0.1974  0.1767
 7224TIP3    H143087   3.470   1.364  12.784  1.6260  2.1406  1.7457
 7224TIP3    H243088   3.484   1.295  12.918  0.1757  1.8031  1.7336
 7225TIP3   OH243089   4.297   4.144   5.279  0.4435 -0.2330 -0.0706
 7225TIP3    H143090   4.257   4.102   5.203 -0.5172  0.9037 -0.2366
 7225TIP3    H243091   4.231   4.135   5.348 -0.2068  1.7340 -0.3657
 7226TIP3   OH243092   5.682   1.500  12.050 -0.0230  0.5042 -0.0507
 7226TIP3    H143093   5.643   1.468  12.131  1.3237  0.0437  0.4539
 7226TIP3    H243094   5.612   1.496  11.985 -0.8962  0.1079  0.8957
 7227TIP3   OH243095   1.885   4.984   1.759  0.2203 -0.0207 -0.3631
 7227TIP3    H143096   1.966   4.996   1.709  1.0022 -1.4913  0.4844
 7227TIP3    H243097   1.906   5.017   1.847 -0.5367  0.7639 -0.4526
 7228TIP3   OH243098   1.167   6.600  15.719  0.1236 -0.8356 -0.1984
 7228TIP3    H143099   1.187   6.656  15.794 -0.8490 -1.0501  0.2364
 7228TIP3    H243100   1.233   6.623  15.654  0.1652  0.3298  0.2268
 7229TIP3   OH243101   5.154   2.751  11.219 -0.0852 -1.1408 -0.1553
 7229TIP3    H143102   5.146   2.705  11.136  1.0843 -1.5708 -0.0605
 7229TIP3    H243103   5.127   2.841  11.200  1.0878 -0.9918 -1.2553
 7230TIP3   OH243104   3.492   3.965  17.205  0.5685  0.2020 -0.3476
 7230TIP3    H143105   3.571   3.916  17.226 -0.3803 -0.6025  1.5586
 7230TIP3    H243106   3.524   4.049  17.173  2.1919 -0.7612 -1.4551
 7231TIP3   OH243107   3.320   3.056  14.478 -0.7610 -0.4725  0.2315
 7231TIP3    H143108   3.262   3.051  14.402  1.7410 -0.4328 -1.8079
 7231TIP3    H243109   3.300   3.140  14.519 -2.3031 -0.6023 -0.2120
 7232TIP3   OH243110   3.796   6.449   3.801 -0.7636 -0.3612 -0.7717
 7232TIP3    H143111   3.780   6.525   3.857 -1.6243 -0.4965 -0.8123
 7232TIP3    H243112   3.812   6.377   3.862 -0.3929 -0.2379 -0.7240
 7233TIP3   OH243113   5.277   4.277   0.580  0.3799 -0.3426 -0.0707
 7233TIP3    H143114   5.269   4.333   0.503  1.5755  1.6163  1.1486
 7233TIP3    H243115   5.186   4.262   0.607 -0.0562 -0.9007 -1.6895
 7234TIP3   OH243116   5.021   1.574  12.853  0.1589  0.4789  0.8227
 7234TIP3    H143117   5.033   1.552  12.761 -2.1783  0.8009  0.3962
 7234TIP3    H243118   5.007   1.669  12.853 -0.0780  0.4465  1.4922
 7235TIP3   OH243119   6.228   6.775  16.811  0.5234 -0.0206 -0.5060
 7235TIP3    H143120   6.182   6.697  16.779 -4.1087  1.9832  0.5463
 7235TIP3    H243121   6.187   6.848  16.765  4.9877  2.0489 -1.7988
 7236TIP3   OH243122   2.395   1.401   2.282  0.4313  0.1640  0.9791
 7236TIP3    H143123   2.398   1.313   2.320 -1.2476 -0.0154  0.7820
 7236TIP3    H243124   2.372   1.386   2.190  0.6144  0.7925  0.8280
 7237TIP3   OH243125   3.861   0.964  13.309 -0.4822  0.0923 -0.1003
 7237TIP3    H143126   3.873   0.984  13.216 -0.0829 -0.0026 -0.0697
 7237TIP3    H243127   3.866   0.869  13.314 -0.1241  0.1192  0.0716
 7238TIP3   OH243128   2.945   4.730   4.801 -0.2769  0.1472  0.3593
 7238TIP3    H143129   3.006   4.657   4.788  0.9471  1.2096 -0.1244
 7238TIP3    H243130   2.887   4.701   4.871 -0.3204 -1.5857 -0.3463
 7239TIP3   OH243131   0.205   3.516   4.759  0.0754 -0.2113  0.0624
 7239TIP3    H143132   0.159   3.584   4.709 -2.1686 -1.6406  0.0661
 7239TIP3    H243133   0.243   3.459   4.693 -1.2553 -1.0261 -0.0237
 7240TIP3   OH243134   1.382   0.512  10.970  0.3462 -0.0614 -0.1457
 7240TIP3    H143135   1.457   0.572  10.973 -0.3486  0.7999  0.5149
 7240TIP3    H243136   1.383   0.468  11.055 -0.4773  0.6990  0.2748
 7241TIP3   OH243137   3.241   5.992   4.727 -0.5904  0.2003  0.2679
 7241TIP3    H143138   3.334   5.971   4.722  0.2239  3.4172 -0.6556
 7241TIP3    H243139   3.228   6.021   4.817 -0.7027 -0.2188  0.3882
 7242TIP3   OH243140   4.183   1.095   4.215 -0.1300  0.4592  0.0056
 7242TIP3    H143141   4.111   1.033   4.227  0.7983 -0.5169  0.7194
 7242TIP3    H243142   4.162   1.168   4.273  0.4401 -0.7461  1.7983
 7243TIP3   OH243143   6.779   0.437  12.140 -0.4493  0.6470  0.0972
 7243TIP3    H143144   6.861   0.389  12.155 -0.6237  0.4199  0.3265
 7243TIP3    H243145   6.746   0.403  12.057 -1.0091 -0.2513  0.6738
 7244TIP3   OH243146   6.542   1.968  14.187 -0.1126 -0.1758  0.0409
 7244TIP3    H143147   6.611   1.975  14.253  0.3937 -0.0512 -0.4972
 7244TIP3    H243148   6.486   1.897  14.219  1.4329 -1.7423 -0.5637
 7245TIP3   OH243149   3.742   2.361   4.285 -0.3369 -0.3585 -0.1328
 7245TIP3    H143150   3.666   2.417   4.270 -1.1035 -0.7937  1.7977
 7245TIP3    H243151   3.818   2.419   4.272 -1.0922  1.0162  1.2917
 7246TIP3   OH243152   1.520   3.218  13.628  0.1107 -0.1782  0.6207
 7246TIP3    H143153   1.547   3.139  13.581  1.5038  0.4526  0.3111
 7246TIP3    H243154   1.547   3.202  13.718 -1.1488 -0.7422  0.9121
 7247TIP3   OH243155   2.830   3.587  15.330 -0.1285  0.7902 -0.2282
 7247TIP3    H143156   2.925   3.596  15.336  0.1262 -1.4877  0.1344
 7247TIP3    H243157   2.802   3.572  15.420 -0.7054  0.4175 -0.4690
 7248TIP3   OH243158   0.115   4.526   3.445  0.1349 -0.0149  0.0440
 7248TIP3    H143159   0.141   4.473   3.520  2.0419 -1.5805 -1.6211
 7248TIP3    H243160   0.037   4.482   3.411  0.4316 -0.4762 -0.0465
 7249TIP3   OH243161   1.841   3.802  12.928  0.2975 -0.0232  0.5935
 7249TIP3    H143162   1.864   3.878  12.875  1.5366  0.3236  1.5756
 7249TIP3    H243163   1.814   3.735  12.865  2.1572  0.2260 -0.5363
 7250TIP3   OH243164   2.975   4.463   0.826 -0.0884  0.4836 -0.3911
 7250TIP3    H143165   2.934   4.490   0.908 -1.3985 -1.1981 -0.4417
 7250TIP3    H243166   3.009   4.375   0.844  0.3534  0.4256 -1.4139
 7251TIP3   OH243167   0.138   2.913   5.334 -0.3182 -0.4549 -0.5555
 7251TIP3    H143168   0.152   2.833   5.385  0.0043  0.3669  0.6946
 7251TIP3    H243169   0.047   2.936   5.350  0.5375  1.5511  2.4181
 7252TIP3   OH243170   5.917   3.361  16.562 -0.6813 -0.1507 -0.4196
 7252TIP3    H143171   5.926   3.386  16.655  0.5480  0.2197 -0.6200
 7252TIP3    H243172   5.827   3.382  16.541 -0.4666  1.5621  0.2023
 7253TIP3   OH243173   2.701   3.448  13.663  0.8753 -0.3339  0.2475
 7253TIP3    H143174   2.668   3.360  13.683  1.2557 -0.4572  0.3419
 7253TIP3    H243175   2.623   3.503  13.662  0.7494 -0.4711  1.2854
 7254TIP3   OH243176   0.069   2.756  13.620  0.2222 -0.0852 -0.1787
 7254TIP3    H143177   0.058   2.768  13.525  0.8002 -0.6180 -0.3203
 7254TIP3    H243178   0.029   2.834  13.659 -0.9293 -0.3365 -0.8130
 7255TIP3   OH243179   3.580   6.522  17.235  0.8431  0.1320 -0.1607
 7255TIP3    H143180   3.644   6.572  17.186 -0.1546  2.3175  0.6438
 7255TIP3    H243181   3.540   6.585  17.295 -0.1400 -1.7453  1.2910
 7256TIP3   OH243182   3.143   2.120  12.054  0.5494 -0.5675  0.4311
 7256TIP3    H143183   3.179   2.208  12.069  0.7497 -0.3047 -1.3657
 7256TIP3    H243184   3.065   2.135  12.001  0.9555 -1.4990 -0.4636
 7257TIP3   OH243185   6.306   5.023  12.899  0.6110  0.1241  0.2183
 7257TIP3    H143186   6.260   5.084  12.841  2.0797  2.1942  1.0933
 7257TIP3    H243187   6.348   4.961  12.841 -2.5661 -1.4107 -0.6389
 7258TIP3   OH243188   5.829   3.422   4.919 -0.1905 -0.4623  0.6164
 7258TIP3    H143189   5.814   3.335   4.881  1.9677 -0.6692  0.1339
 7258TIP3    H243190   5.803   3.413   5.011  0.6582 -1.8338  0.7480
 7259TIP3   OH243191   1.761   3.018   0.094 -0.3053 -0.1306 -0.2919
 7259TIP3    H143192   1.795   2.933   0.065  2.1895  1.6947 -3.4032
 7259TIP3    H243193   1.701   3.044   0.024  0.0630  1.2418 -0.1160
 7260TIP3   OH243194   6.460   0.615   4.258  0.4086  0.6234 -0.6147
 7260TIP3    H143195   6.473   0.613   4.163  1.4812 -0.0047 -0.4715
 7260TIP3    H243196   6.548   0.612   4.295 -0.0301 -1.0793  0.4206
 7261TIP3   OH243197   0.764   1.488  11.661  0.5776 -0.3846 -0.4716
 7261TIP3    H143198   0.702   1.515  11.730 -0.1895 -1.9323 -0.5224
 7261TIP3    H243199   0.810   1.569  11.639 -1.9695  1.0636 -0.9831
 7262TIP3   OH243200   3.665   1.905   5.965  0.0349 -0.3938  0.5981
 7262TIP3    H143201   3.731   1.835   5.963  0.8606  0.3090  1.8147
 7262TIP3    H243202   3.716   1.986   5.968 -0.9021  0.2199  0.3861
 7263TIP3   OH243203   6.271   2.744  12.520 -0.0175  0.6981  0.8218
 7263TIP3    H143204   6.251   2.800  12.445 -1.1447  0.2030  0.7344
 7263TIP3    H243205   6.356   2.706  12.499 -0.3695  0.4708 -0.2845
 7264TIP3   OH243206   6.057   4.223   2.493 -0.0555 -0.8303 -0.0464
 7264TIP3    H143207   5.963   4.220   2.472 -0.1496 -2.9673  0.4953
 7264TIP3    H243208   6.061   4.217   2.588  0.6240 -2.8601 -0.1471
 7265TIP3   OH243209   6.250   5.372   6.002 -0.1064 -0.1118 -0.3731
 7265TIP3    H143210   6.218   5.329   5.922  0.8056  0.8360 -1.2772
 7265TIP3    H243211   6.266   5.462   5.976  0.6978  0.0951  0.7595
 7266TIP3   OH243212   0.546   1.405   5.261 -0.0275 -0.2967  0.0852
 7266TIP3    H143213   0.548   1.310   5.268  0.0591 -0.3160 -0.1883
 7266TIP3    H243214   0.619   1.435   5.315 -0.4268 -0.3521  0.6694
 7267TIP3   OH243215   4.479   3.371  10.648  0.3513 -0.2340  0.4237
 7267TIP3    H143216   4.532   3.396  10.724  0.7203 -0.3944  0.2168
 7267TIP3    H243217   4.452   3.281  10.666 -0.5196  0.1143  0.9068
 7268TIP3   OH243218   0.970   5.605   1.402  0.1755 -0.7782 -0.3484
 7268TIP3    H143219   1.063   5.618   1.418  0.2590  0.1581 -1.3911
 7268TIP3    H243220   0.929   5.687   1.430 -0.3260 -1.1378 -0.0063
 7269TIP3   OH243221   5.529   2.162  15.399 -0.0897  0.1317 -0.5044
 7269TIP3    H143222   5.557   2.135  15.311 -0.2596 -1.3666 -0.1265
 7269TIP3    H243223   5.601   2.138  15.456 -0.3115  0.3560 -0.1210
 7270TIP3   OH243224   1.092   6.570  12.721  0.3891 -0.3879 -0.5956
 7270TIP3    H143225   1.027   6.547  12.655 -0.0330 -0.7290 -0.0664
 7270TIP3    H243226   1.173   6.530  12.690  0.2964 -0.1635 -1.1344
 7271TIP3   OH243227   2.900   4.120   4.098  0.3969 -1.4336  0.8534
 7271TIP3    H143228   2.961   4.118   4.024  0.7490  1.1521  0.9778
 7271TIP3    H243229   2.955   4.147   4.173 -0.8606  1.3903  0.8842
 7272TIP3   OH243230   4.649   0.686  15.114 -0.1158  0.2146 -0.2679
 7272TIP3    H143231   4.703   0.760  15.139 -1.5605  1.4141 -0.5343
 7272TIP3    H243232   4.682   0.659  15.028  0.1105  0.8826 -0.3945
 7273TIP3   OH243233   1.080   2.114   2.094  0.5912 -0.7024 -0.0763
 7273TIP3    H143234   1.101   2.045   2.030 -0.2490 -1.6075  0.5895
 7273TIP3    H243235   1.146   2.104   2.162  1.7738  0.5673 -0.9924
 7274TIP3   OH243236   6.322   6.010   3.331  0.0784  0.0603  0.5878
 7274TIP3    H143237   6.372   5.928   3.331 -0.1924 -0.1140  1.4557
 7274TIP3    H243238   6.249   5.994   3.271  0.6837  0.0870 -0.1709
 7275TIP3   OH243239   5.333   3.042  16.615  0.0556  0.0249 -0.5167
 7275TIP3    H143240   5.305   2.982  16.545  2.0233 -0.3812 -1.0226
 7275TIP3    H243241   5.326   2.989  16.694 -0.4147 -0.1181 -0.6474
 7276TIP3   OH243242   4.363   2.847   4.595  0.1157 -0.4671 -0.1016
 7276TIP3    H143243   4.395   2.757   4.603  0.7360 -0.7178 -3.9082
 7276TIP3    H243244   4.277   2.839   4.555 -0.4735  0.6207  0.8885
 7277TIP3   OH243245   2.825   6.376   4.134  0.2216 -0.3886  0.1174
 7277TIP3    H143246   2.742   6.363   4.179 -2.2891  0.6796 -3.6347
 7277TIP3    H243247   2.824   6.469   4.108  2.6688 -0.3106  0.0036
 7278TIP3   OH243248   5.462   3.380  12.703  0.8170  0.2520  0.5018
 7278TIP3    H143249   5.488   3.303  12.753 -2.9375 -0.1105  2.2178
 7278TIP3    H243250   5.484   3.454  12.761 -1.4315 -0.0303  1.8191
 7279TIP3   OH243251   5.913   4.080  16.719  0.3596 -0.0655  0.0878
 7279TIP3    H143252   5.982   4.042  16.665  1.7566  0.2204  1.6009
 7279TIP3    H243253   5.891   4.012  16.782 -0.3910  0.0311 -0.0543
 7280TIP3   OH243254   0.385   4.637  16.299 -0.0712 -0.4960  0.6974
 7280TIP3    H143255   0.349   4.649  16.387 -2.3854  1.4424 -0.3937
 7280TIP3    H243256   0.452   4.705  16.290 -1.6927  1.1118  0.1449
 7281TIP3   OH243257   5.149   0.028  11.325  0.2069 -0.4957 -0.2409
 7281TIP3    H143258   5.210  -0.044  11.340 -0.5495 -1.1107 -0.0966
 7281TIP3    H243259   5.086  -0.006  11.261  0.2298  0.2657 -0.6869
 7282TIP3   OH243260   6.621   3.863   1.812  0.5734 -0.0562  0.3619
 7282TIP3    H143261   6.569   3.926   1.762 -0.8363  0.3407  2.2389
 7282TIP3    H243262   6.688   3.834   1.750 -1.0419  0.4224 -1.7415
 7283TIP3   OH243263   3.361   1.256   4.288 -0.2771  0.0511  0.7561
 7283TIP3    H143264   3.426   1.316   4.252 -1.8717  1.4504  0.0560
 7283TIP3    H243265   3.411   1.199   4.348  2.1872 -1.2580 -2.2609
 7284TIP3   OH243266   2.303   3.718   0.976 -0.1872  0.1036 -0.2406
 7284TIP3    H143267   2.334   3.633   0.945 -2.4535 -0.9341  0.1637
 7284TIP3    H243268   2.381   3.762   1.009  1.3331 -1.0845 -2.0772
 7285TIP3   OH243269   6.385   1.008  14.753  0.2014 -0.2635 -0.2965
 7285TIP3    H143270   6.392   1.101  14.775  0.9918 -0.2422 -0.5887
 7285TIP3    H243271   6.292   0.993  14.740 -0.3787 -0.2701  2.9476
 7286TIP3   OH243272   0.413   3.711   3.750  0.0032  0.1423 -0.1765
 7286TIP3    H143273   0.392   3.774   3.682 -0.7954 -0.4895 -0.5312
 7286TIP3    H243274   0.339   3.715   3.811 -0.0870 -0.4768 -0.2349
 7287TIP3   OH243275   5.308   5.836  13.152 -0.2447  0.4726  0.3048
 7287TIP3    H143276   5.393   5.799  13.131 -0.5884  0.7664 -1.8193
 7287TIP3    H243277   5.298   5.910  13.092 -0.6591  2.4902  2.7079
 7288TIP3   OH243278   6.157   2.113  13.616 -0.2497  0.9150  0.2593
 7288TIP3    H143279   6.094   2.112  13.544 -0.7454 -2.3151  0.5950
 7288TIP3    H243280   6.105   2.132  13.694 -0.6671 -0.6350  0.3864
 7289TIP3   OH243281   2.140   2.026  13.607 -0.4640 -0.0275 -0.5671
 7289TIP3    H143282   2.092   2.057  13.684 -1.1749 -1.5067 -0.3880
 7289TIP3    H243283   2.223   1.993  13.641 -0.6861 -0.4760 -0.4573
 7290TIP3   OH243284   1.612   3.495   5.375  0.1676  0.8859  0.3599
 7290TIP3    H143285   1.642   3.410   5.408 -1.7563 -0.6897 -1.6070
 7290TIP3    H243286   1.652   3.503   5.288 -1.6199  0.7459 -0.5174
 7291TIP3   OH243287   2.308   2.624   0.035  0.4374 -0.0925 -0.5797
 7291TIP3    H143288   2.374   2.563   0.002 -0.7620 -1.2832 -0.8618
 7291TIP3    H243289   2.234   2.613  -0.024  0.1518  1.6024 -0.5822
 7292TIP3   OH243290   6.758   0.150   1.815  0.6470  0.6320  0.2210
 7292TIP3    H143291   6.803   0.066   1.809  0.6630  0.6389  0.2452
 7292TIP3    H243292   6.667   0.131   1.792  0.5911  0.5583  0.5067
 7293TIP3   OH243293   4.260   3.211  15.232  0.4516 -0.1346  0.3080
 7293TIP3    H143294   4.351   3.226  15.205  0.2385  0.7058  0.0278
 7293TIP3    H243295   4.265   3.196  15.326  0.8794 -0.0428  0.3013
 7294TIP3   OH243296   4.488   4.373   1.742 -0.3559 -0.4481  0.3108
 7294TIP3    H143297   4.554   4.355   1.676 -0.1458 -2.5409  1.0096
 7294TIP3    H243298   4.526   4.341   1.824 -1.2818  0.5224  1.1576
 7295TIP3   OH243299   1.671   3.645  15.206 -0.1700 -0.1361 -0.2262
 7295TIP3    H143300   1.761   3.671  15.225 -0.8320  2.0132  0.2675
 7295TIP3    H243301   1.652   3.577  15.271  1.0454 -0.5623 -0.2881
 7296TIP3   OH243302   3.277   4.495  16.546 -0.4009  0.2281 -0.8063
 7296TIP3    H143303   3.286   4.440  16.467 -0.9093  1.2203 -1.5746
 7296TIP3    H243304   3.244   4.435  16.613  0.7545 -0.8114 -1.1157
 7297TIP3   OH243305   6.013   1.690   1.245 -0.7354 -0.2596 -0.1729
 7297TIP3    H143306   6.004   1.755   1.315 -0.6890  1.2448 -1.4984
 7297TIP3    H243307   6.106   1.695   1.220 -0.6141 -1.2271  0.0480
 7298TIP3   OH243308   4.103   6.079  16.155  0.0017  0.0563 -0.5255
 7298TIP3    H143309   4.093   6.033  16.071 -0.5809 -0.0775 -0.3880
 7298TIP3    H243310   4.124   6.169  16.130 -4.4724  1.2331 -1.0532
 7299TIP3   OH243311   1.444   4.273  14.412 -0.3019 -0.3400  0.3016
 7299TIP3    H143312   1.372   4.229  14.458  0.6439 -1.6476  0.5815
 7299TIP3    H243313   1.521   4.254  14.465  0.5411 -0.4889 -0.9415
 7300TIP3   OH243314   3.176   0.410  11.579 -0.2371 -0.2021 -0.1876
 7300TIP3    H143315   3.207   0.324  11.606 -0.2041 -0.5579 -1.3144
 7300TIP3    H243316   3.085   0.413  11.609  0.9318  1.1658  3.8637
 7301TIP3   OH243317   4.933   2.776  17.107  0.3074 -0.3522 -0.3628
 7301TIP3    H143318   4.905   2.826  17.030 -0.2439 -1.6809 -1.0603
 7301TIP3    H243319   4.879   2.697  17.105  0.1755 -0.3480  1.5003
 7302TIP3   OH243320   3.995   0.069   3.428  0.1103 -0.2682  0.0427
 7302TIP3    H143321   3.960   0.141   3.479 -0.0852  0.9363 -1.7119
 7302TIP3    H243322   4.025   0.005   3.493 -1.7951  0.3635  1.6164
 7303TIP3   OH243323   0.194   2.052  14.896 -0.6251  0.1468  0.5294
 7303TIP3    H143324   0.239   2.035  14.813  0.1867  1.2338  0.7293
 7303TIP3    H243325   0.260   2.037  14.963 -0.8624  0.6911  0.8964
 7304TIP3   OH243326   4.368   5.119   5.136  0.1160  0.2288  0.2614
 7304TIP3    H143327   4.460   5.092   5.143 -0.4541 -1.5298  2.5126
 7304TIP3    H243328   4.363   5.171   5.057  2.8022 -0.7193 -0.6217
 7305TIP3   OH243329   0.450   2.418   3.574  0.1881  0.6264  0.3246
 7305TIP3    H143330   0.470   2.425   3.480  1.2679 -0.1816  0.4694
 7305TIP3    H243331   0.495   2.337   3.601 -1.5991 -0.1314  1.1531
 7306TIP3   OH243332   6.558   0.386  14.593  0.2399  0.0019  0.6739
 7306TIP3    H143333   6.591   0.474  14.573 -2.0528  0.9123  0.6278
 7306TIP3    H243334   6.483   0.374  14.536 -0.5441 -1.2907  1.9043
 7307TIP3   OH243335   1.554   3.062  12.009 -0.1719  0.3933  0.0183
 7307TIP3    H143336   1.588   3.148  12.033  0.1876  0.5113 -0.8615
 7307TIP3    H243337   1.567   3.057  11.914  1.1785 -1.2247  0.2460
 7308TIP3   OH243338   1.450   4.807  11.791 -0.1604  0.1815 -0.6164
 7308TIP3    H143339   1.454   4.752  11.712 -1.4412  0.7486 -1.1020
 7308TIP3    H243340   1.540   4.808  11.824 -0.1156 -2.4315 -0.4161
 7309TIP3   OH243341   3.366   0.065  15.790  0.4282 -0.1007  0.0318
 7309TIP3    H143342   3.286   0.116  15.799 -0.1802 -0.8314 -0.9921
 7309TIP3    H243343   3.336  -0.026  15.781  1.3136 -0.3165 -0.9939
 7310TIP3   OH243344   5.560   3.284  11.126  0.2225 -0.1421  0.5978
 7310TIP3    H143345   5.485   3.327  11.085  0.6676 -0.2847 -0.3982
 7310TIP3    H243346   5.523   3.238  11.202 -0.8474 -0.8789 -0.3270
 7311TIP3   OH243347   2.759   6.447   6.536 -0.1373  0.5273  0.4813
 7311TIP3    H143348   2.805   6.486   6.461  2.9421 -2.2867  0.6706
 7311TIP3    H243349   2.735   6.522   6.591  2.4317  2.3862 -0.7146
 7312TIP3   OH243350   6.502   5.464   5.754 -0.5309  0.3159 -0.2734
 7312TIP3    H143351   6.531   5.536   5.809  1.7109  0.8680 -2.0391
 7312TIP3    H243352   6.410   5.482   5.737 -0.6360  1.4312  1.2616
 7313TIP3   OH243353   4.526   6.316   5.254 -0.2821  0.2036  0.2596
 7313TIP3    H143354   4.496   6.342   5.167  1.2697  1.5065  0.0673
 7313TIP3    H243355   4.456   6.343   5.313 -0.5970  0.8681 -0.4114
 7314TIP3   OH243356   5.075   1.245   2.669  0.1929 -0.0296 -0.3518
 7314TIP3    H143357   5.081   1.276   2.759 -0.2451  0.5640 -0.5193
 7314TIP3    H243358   5.038   1.319   2.621  0.2169 -0.4195 -0.9787
 7315TIP3   OH243359   5.050   5.610  14.128  0.1536 -0.3551 -0.0588
 7315TIP3    H143360   5.075   5.624  14.036  0.2213  0.0866  0.0281
 7315TIP3    H243361   4.961   5.574  14.124 -0.2674  0.6891 -0.2520
 7316TIP3   OH243362   2.436   0.355   2.795 -0.4198 -0.3800 -0.1629
 7316TIP3    H143363   2.350   0.325   2.824 -1.8177  1.2260 -2.2840
 7316TIP3    H243364   2.457   0.429   2.852 -0.1269 -1.1659  0.7623
 7317TIP3   OH243365   0.978   2.469   3.550 -0.4684  0.3267  0.3716
 7317TIP3    H143366   1.061   2.479   3.502 -0.3072  1.5347  0.8537
 7317TIP3    H243367   0.921   2.423   3.489  0.5773 -0.5880  0.0546
 7318TIP3   OH243368   2.923   5.755  14.279 -0.3514  0.0646 -0.0148
 7318TIP3    H143369   2.863   5.745  14.353 -0.8336  0.3649 -0.3577
 7318TIP3    H243370   3.003   5.712  14.307 -0.3724  0.5633  0.8643
 7319TIP3   OH243371   6.040   1.118  11.480 -0.1071 -0.0371 -0.4267
 7319TIP3    H143372   6.044   1.198  11.428 -1.1094 -0.6335 -1.4663
 7319TIP3    H243373   6.057   1.147  11.570  0.6245  1.1630 -0.9233
 7320TIP3   OH243374   0.275   0.282   0.390  0.3257 -0.0906  0.0796
 7320TIP3    H143375   0.200   0.223   0.391 -0.2996  0.6797  0.0116
 7320TIP3    H243376   0.282   0.314   0.480  1.5216 -1.2946  0.4492
 7321TIP3   OH243377   1.269   5.110   5.646 -0.4293 -0.3774  0.5351
 7321TIP3    H143378   1.330   5.044   5.680 -0.4532 -0.5541  0.2415
 7321TIP3    H243379   1.305   5.194   5.676 -0.6913 -0.5530  1.3655
 7322TIP3   OH243380   0.280   5.897  16.567  0.0328 -0.1989 -0.2548
 7322TIP3    H143381   0.333   5.828  16.606 -1.0956 -0.9043  0.0905
 7322TIP3    H243382   0.256   5.953  16.641 -0.1706 -0.2033 -0.3178
 7323TIP3   OH243383   2.507   4.608  12.736 -0.0581 -0.3249  0.4939
 7323TIP3    H143384   2.574   4.633  12.672 -1.6336 -0.1647 -1.1743
 7323TIP3    H243385   2.539   4.643  12.819  1.1859  1.1182 -0.5297
 7324TIP3   OH243386   0.257   3.114  16.779 -0.5927 -0.4643  0.2479
 7324TIP3    H143387   0.261   3.025  16.745  0.1471 -0.2998 -0.1134
 7324TIP3    H243388   0.315   3.114  16.855  1.1007  0.2158 -0.9805
 7325TIP3   OH243389   6.674   1.495   5.957  0.1560  0.1019 -0.8047
 7325TIP3    H143390   6.714   1.548   6.026 -0.1453  2.2250 -2.1654
 7325TIP3    H243391   6.712   1.529   5.876 -1.3179 -0.6251 -1.8469
 7326TIP3   OH243392   2.019   3.933  14.118 -0.1246 -0.4945  0.3474
 7326TIP3    H143393   2.090   3.872  14.134  1.7022  1.4992  0.3083
 7326TIP3    H243394   1.963   3.889  14.055  1.9739 -1.5121 -0.9094
 7327TIP3   OH243395   0.679   2.736   5.211 -0.4205 -0.1786  0.4510
 7327TIP3    H143396   0.704   2.814   5.162  1.7764 -1.3351 -0.4393
 7327TIP3    H243397   0.743   2.730   5.282 -1.0214 -0.7539  0.9575
 7328TIP3   OH243398   2.882   3.342   2.720 -0.6277 -0.6619 -0.0766
 7328TIP3    H143399   2.814   3.380   2.663  0.4247  0.7795 -0.4361
 7328TIP3    H243400   2.881   3.399   2.798  0.7478 -0.0469 -0.4720
 7329TIP3   OH243401   4.200   2.035  12.017  0.1626 -0.3877  0.3751
 7329TIP3    H143402   4.259   1.979  12.068  0.3125  0.9515  1.7421
 7329TIP3    H243403   4.168   2.099  12.080  0.8896  1.7985 -1.3487
 7330TIP3   OH243404   4.161   3.214   1.501 -0.3529 -0.0641  0.2097
 7330TIP3    H143405   4.095   3.157   1.541  1.3451 -1.3716  1.2798
 7330TIP3    H243406   4.154   3.198   1.407 -0.9885 -0.7886  0.3730
 7331TIP3   OH243407   6.057   4.031  17.172  0.5189 -0.3558  0.3630
 7331TIP3    H143408   5.974   4.070  17.145  0.1519  1.4026  3.5323
 7331TIP3    H243409   6.124   4.092  17.142  0.5957 -1.0606 -0.9652
 7332TIP3   OH243410   2.019   3.299  15.888  0.3050  0.1643  0.1496
 7332TIP3    H143411   1.973   3.335  15.812  1.2133  0.5005 -0.2481
 7332TIP3    H243412   2.029   3.373  15.947  1.9335  0.5321 -0.5508
 7333TIP3   OH243413   2.105   0.404  11.823 -0.2705  0.1558 -0.3066
 7333TIP3    H143414   2.176   0.373  11.879  0.5861 -1.3595 -2.1384
 7333TIP3    H243415   2.029   0.407  11.881  0.5888 -1.2236  0.9774
 7334TIP3   OH243416   0.530   4.158   2.795  0.2684  0.6314 -0.4488
 7334TIP3    H143417   0.568   4.131   2.712 -0.1103 -0.7285 -0.2062
 7334TIP3    H243418   0.536   4.080   2.850  1.5606  1.8076  1.1951
 7335TIP3   OH243419   6.448   5.910  14.192  0.0148 -0.8386 -0.4382
 7335TIP3    H143420   6.532   5.926  14.236 -0.1786 -1.6355  0.2478
 7335TIP3    H243421   6.397   5.989  14.207 -0.2776 -1.3235  1.3564
 7336TIP3   OH243422   3.623   1.605  17.000  0.0261  0.0578 -0.5451
 7336TIP3    H143423   3.712   1.570  17.005  0.1931  0.6228  2.1776
 7336TIP3    H243424   3.577   1.563  17.073 -0.7761  2.7215  0.6059
 7337TIP3   OH243425   1.984   6.353   2.859  0.1257  0.2291 -0.3855
 7337TIP3    H143426   1.972   6.401   2.778  0.1388 -1.1939 -1.2689
 7337TIP3    H243427   1.918   6.388   2.918 -0.3856  0.7639 -1.2510
 7338TIP3   OH243428   1.402   6.181   5.787  0.2869  0.9081 -0.2993
 7338TIP3    H143429   1.346   6.105   5.775  0.0031  1.3094 -1.6852
 7338TIP3    H243430   1.485   6.145   5.818  0.1212  0.0465 -0.8180
 7339TIP3   OH243431   0.890   1.368   2.537  0.0474 -0.0380  0.0606
 7339TIP3    H143432   0.877   1.321   2.619 -0.8783  1.9717  1.1299
 7339TIP3    H243433   0.942   1.308   2.483  2.7257 -0.5078  2.9288
 7340TIP3   OH243434   4.563   1.175  16.385 -0.1474 -0.5935  0.5618
 7340TIP3    H143435   4.570   1.080  16.376 -2.3430 -0.7147 -0.4425
 7340TIP3    H243436   4.491   1.188  16.447  0.2483  0.4347  0.8269
 7341TIP3   OH243437   0.175   6.041   2.319  0.1149  0.0735  0.2348
 7341TIP3    H143438   0.097   5.988   2.303 -1.1218  2.1502 -1.0140
 7341TIP3    H243439   0.218   6.047   2.233  0.2713  1.0129  0.3689
 7342TIP3   OH243440   5.384   1.564   1.843  0.1832  0.7797 -0.4477
 7342TIP3    H143441   5.417   1.620   1.773 -0.2029  2.6980  0.8457
 7342TIP3    H243442   5.311   1.613   1.881 -0.6610 -0.9359  0.2865
 7343TIP3   OH243443   3.596   4.907   5.386 -0.3203  0.1009 -0.0981
 7343TIP3    H143444   3.664   4.975   5.384  0.3103 -0.4749  0.9205
 7343TIP3    H243445   3.644   4.825   5.376 -0.4949 -0.5326  3.2155
 7344TIP3   OH243446   2.842   1.061  10.538 -0.2411 -0.4204 -0.1921
 7344TIP3    H143447   2.769   1.120  10.559  0.4643  0.2549  0.3902
 7344TIP3    H243448   2.896   1.059  10.617  0.4053 -0.8748 -0.6347
 7345TIP3   OH243449   0.492   5.775  11.664  0.7193  0.6418 -0.2688
 7345TIP3    H143450   0.458   5.768  11.574  2.7103  0.2452 -1.0462
 7345TIP3    H243451   0.462   5.860  11.694  1.0289  1.3147 -1.7773
 7346TIP3   OH243452   4.389   0.681   3.270 -0.3514 -0.2791  0.2088
 7346TIP3    H143453   4.432   0.735   3.203  0.4687  2.0876  2.4667
 7346TIP3    H243454   4.304   0.722   3.282 -0.7320 -1.0577  0.2343
 7347TIP3   OH243455   2.049   6.203   6.068  0.2470 -0.0246  0.4589
 7347TIP3    H143456   2.102   6.129   6.039 -1.7315 -1.9986  1.5448
 7347TIP3    H243457   2.096   6.237   6.145  1.6833  0.5442 -0.6293
 7348TIP3   OH243458   2.532   6.271   3.309  0.0900 -0.4086 -0.0587
 7348TIP3    H143459   2.464   6.237   3.367 -0.5420 -1.1708 -1.2049
 7348TIP3    H243460   2.611   6.223   3.335 -0.1052 -0.4807  0.4072
 7349TIP3   OH243461   3.362   2.081  14.169 -0.3022  0.4621  0.1156
 7349TIP3    H143462   3.362   2.052  14.078  0.1587  0.8679 -0.0194
 7349TIP3    H243463   3.273   2.066  14.200 -1.2343  2.7793 -1.1832
 7350TIP3   OH243464   5.424   0.424  11.399  0.3964  0.3809  0.4295
 7350TIP3    H143465   5.415   0.333  11.369  0.3159  0.3279  0.6100
 7350TIP3    H243466   5.367   0.474  11.341  1.4624  0.5119 -0.5451
 7351TIP3   OH243467   6.685   2.015  14.779 -0.0395  0.5458 -0.2829
 7351TIP3    H143468   6.634   2.030  14.858  0.2118 -1.8215  0.3975
 7351TIP3    H243469   6.638   1.945  14.733  0.7846  0.6622 -1.3404
 7352TIP3   OH243470   6.338   2.297   0.183 -0.5284 -0.7238 -0.0739
 7352TIP3    H143471   6.346   2.234   0.255 -0.8879 -2.4762 -1.5054
 7352TIP3    H243472   6.250   2.333   0.191 -1.3280 -2.4326 -0.7869
 7353TIP3   OH243473   0.861   0.702  16.916  0.0994 -0.1820  0.0772
 7353TIP3    H143474   0.768   0.695  16.894 -0.2242 -0.7792  1.5183
 7353TIP3    H243475   0.874   0.634  16.983  1.0121  1.5014  1.6783
 7354TIP3   OH243476   6.628   3.275   0.891  0.0686 -0.4318 -0.4856
 7354TIP3    H143477   6.618   3.259   0.797 -0.3915  0.8626 -0.6813
 7354TIP3    H243478   6.643   3.188   0.929 -0.7904 -1.1024 -1.6194
 7355TIP3   OH243479   0.991   1.583   1.816  0.0021  0.2962 -0.0920
 7355TIP3    H143480   1.001   1.521   1.744 -0.1029 -0.7999  0.8229
 7355TIP3    H243481   1.072   1.634   1.816  0.1252  0.1051 -0.7984
 7356TIP3   OH243482   2.361   3.637   4.094  0.4264 -0.1080 -0.2955
 7356TIP3    H143483   2.287   3.662   4.149  0.1160 -0.0026 -0.7519
 7356TIP3    H243484   2.368   3.542   4.105 -0.5997 -0.3040 -1.2430
 7357TIP3   OH243485   0.068   3.319  14.077 -0.0984 -0.4711 -0.7747
 7357TIP3    H143486   0.123   3.390  14.109  1.6157 -0.6721 -3.0357
 7357TIP3    H243487  -0.017   3.360  14.061  0.7800  1.0564 -1.7914
 7358TIP3   OH243488   5.742   0.578   4.892 -0.1279 -0.5439  0.2634
 7358TIP3    H143489   5.739   0.600   4.799  0.7208 -0.5790  0.2215
 7358TIP3    H243490   5.821   0.525   4.902  0.1762  0.0593  1.1387
 7359TIP3   OH243491   3.763   6.177  14.406  0.1314 -0.4530 -0.4465
 7359TIP3    H143492   3.721   6.096  14.434 -0.9980  0.6638  1.3578
 7359TIP3    H243493   3.854   6.154  14.391 -0.2349 -2.1003 -0.2643
 7360TIP3   OH243494   3.584   5.015  15.890  0.0735 -0.3015 -0.3201
 7360TIP3    H143495   3.655   5.010  15.955  1.3191  1.0754 -1.5078
 7360TIP3    H243496   3.627   5.043  15.809 -1.9436  1.4993 -0.8636
 7361TIP3   OH243497   3.897   2.112  13.803  0.5962  0.1526  0.1879
 7361TIP3    H143498   3.984   2.149  13.800  1.7266 -2.2771  0.2643
 7361TIP3    H243499   3.839   2.181  13.772  2.6481  1.5118 -0.7760
 7362TIP3   OH243500   2.876   3.918   0.002 -0.0031  0.1429 -0.1204
 7362TIP3    H143501   2.898   3.842   0.056  0.7016 -0.1200 -0.7615
 7362TIP3    H243502   2.870   3.991   0.064  2.8154  0.2580  0.1387
 7363TIP3   OH243503   5.912   1.072   3.599 -0.1812 -0.3004  0.4282
 7363TIP3    H143504   5.926   1.075   3.504  1.2529 -0.1254  0.6276
 7363TIP3    H243505   5.850   1.000   3.611 -1.8186  0.8352 -0.7783
 7364TIP3   OH243506   0.224   3.303   4.930  0.2881 -0.0855  0.0496
 7364TIP3    H143507   0.320   3.297   4.934  0.3819  0.2307 -1.2902
 7364TIP3    H243508   0.207   3.385   4.883 -0.6798  0.5314  1.4249
 7365TIP3   OH243509   1.923   2.625  14.287 -0.0884 -0.0244 -0.0378
 7365TIP3    H143510   1.895   2.708  14.325  1.9050  1.2380 -1.1512
 7365TIP3    H243511   1.951   2.573  14.362  1.0552  1.3271  0.5295
 7366TIP3   OH243512   3.183   4.799   0.558  0.1217 -0.7285  0.7597
 7366TIP3    H143513   3.259   4.836   0.602  0.3749  0.5505 -0.6525
 7366TIP3    H243514   3.114   4.864   0.571  0.1267 -0.4570 -0.4311
 7367TIP3   OH243515   2.849   1.886  15.955 -0.0617  0.1894 -0.4289
 7367TIP3    H143516   2.912   1.925  15.895 -1.4277  1.1613 -1.2844
 7367TIP3    H243517   2.764   1.895  15.911 -0.7466 -1.6582  0.3910
 7368TIP3   OH243518   6.517   1.737  14.978 -0.1402  0.0982  0.0637
 7368TIP3    H143519   6.547   1.744  14.887 -1.0906 -1.5810 -0.4152
 7368TIP3    H243520   6.577   1.673  15.017 -0.4484 -0.0478  0.2946
 7369TIP3   OH243521   4.344   4.074   2.782  0.3227  0.1310 -0.5583
 7369TIP3    H143522   4.280   4.142   2.801 -0.7586 -0.3771 -2.1842
 7369TIP3    H243523   4.347   4.069   2.686  2.9331  0.2333 -0.5769
 7370TIP3   OH243524   3.632   6.028   6.012 -0.7249 -0.4197 -0.1583
 7370TIP3    H143525   3.694   6.024   6.084  1.0159 -0.3228 -1.6047
 7370TIP3    H243526   3.549   5.999   6.051  0.3359 -1.1583  1.6727
 7371TIP3   OH243527   6.058   2.806  12.289  0.3207  0.8602  0.2678
 7371TIP3    H143528   6.109   2.730  12.262 -2.1252 -1.2355  1.1482
 7371TIP3    H243529   6.123   2.868  12.322  2.4595 -0.5422 -1.0621
 7372TIP3   OH243530   5.225   4.290  11.578 -0.2108  0.5595 -0.0456
 7372TIP3    H143531   5.186   4.208  11.546 -1.0049  1.1572 -0.6576
 7372TIP3    H243532   5.222   4.348  11.502 -0.3118  1.3776  0.5781
 7373TIP3   OH243533   4.420   5.222  15.581  0.1819 -0.4918 -0.3991
 7373TIP3    H143534   4.388   5.304  15.617  3.7335  1.2840 -0.8333
 7373TIP3    H243535   4.424   5.163  15.656 -3.4927 -0.8233 -0.2794
 7374TIP3   OH243536   1.206   2.904  10.478 -0.3185  0.4625  0.0646
 7374TIP3    H143537   1.229   2.843  10.548  1.0262  1.4728  0.5334
 7374TIP3    H243538   1.194   2.988  10.521 -0.3546  0.9174 -0.8041
 7375TIP3   OH243539   0.843   0.622  10.293  0.2746 -0.3503 -0.3668
 7375TIP3    H143540   0.901   0.698  10.296  0.2464 -0.3541  0.6641
 7375TIP3    H243541   0.902   0.546  10.290  0.3106 -0.2962 -2.4085
 7376TIP3   OH243542   3.011   4.938   3.732 -0.3177 -0.6908  0.0052
 7376TIP3    H143543   3.006   4.919   3.826  2.5208 -0.9774  0.1780
 7376TIP3    H243544   3.038   4.856   3.692  0.2210 -0.1152 -0.8449
 7377TIP3   OH243545   1.917   5.236  13.008 -0.2089 -0.1973  0.3422
 7377TIP3    H143546   1.941   5.147  12.985 -0.0713  0.1696 -1.0080
 7377TIP3    H243547   1.822   5.234  13.015 -0.2601 -0.2914 -0.3838
 7378TIP3   OH243548   4.871   1.355  14.395 -0.2209  0.1561 -0.0137
 7378TIP3    H143549   4.946   1.380  14.341 -0.8687  0.3769 -0.8209
 7378TIP3    H243550   4.803   1.332  14.333 -1.1719  0.9533  0.6958
 7379TIP3   OH243551   5.750   1.262  13.062  0.3812 -0.2270  0.0812
 7379TIP3    H143552   5.776   1.206  12.989 -0.2120 -0.3354 -0.0542
 7379TIP3    H243553   5.765   1.351  13.030  1.4144 -0.3050  0.3311
 7380TIP3   OH243554   5.767   5.869  13.308  0.7163  0.1276  0.2812
 7380TIP3    H143555   5.838   5.807  13.294  2.1358  1.7496 -0.0947
 7380TIP3    H243556   5.811   5.954  13.313 -0.9386  0.9274  2.7077
 7381TIP3   OH243557   1.140   6.549   2.784  0.0458 -0.1037 -0.4550
 7381TIP3    H143558   1.135   6.531   2.690  0.2344  1.0452 -0.7015
 7381TIP3    H243559   1.222   6.597   2.795  0.3775 -0.8300  0.4141
 7382TIP3   OH243560   3.361   6.072  11.632  0.4574 -0.4715  0.7126
 7382TIP3    H143561   3.278   6.059  11.677  0.2751 -1.7075  0.0594
 7382TIP3    H243562   3.401   5.985  11.630  1.7671  0.0950  0.9987
 7383TIP3   OH243563   1.577   6.432  13.109  0.5513 -0.2257  0.1278
 7383TIP3    H143564   1.574   6.355  13.052  0.6724  0.2227 -0.4980
 7383TIP3    H243565   1.654   6.419  13.164  2.4757  0.9284 -2.1547
 7384TIP3   OH243566   6.234   3.698   4.271  0.0512 -0.0580 -0.0883
 7384TIP3    H143567   6.317   3.659   4.245  1.0211  1.3853  0.6666
 7384TIP3    H243568   6.220   3.669   4.361 -0.6150 -0.8287 -0.4313
 7385TIP3   OH243569   1.667   1.736  16.045 -0.1441  0.0976  0.1815
 7385TIP3    H143570   1.646   1.692  15.962 -1.5440 -0.4336  0.7737
 7385TIP3    H243571   1.715   1.670  16.095  0.1686  0.2043  0.0211
 7386TIP3   OH243572   2.984   1.573   2.996 -0.1185 -0.2008 -0.1089
 7386TIP3    H143573   3.003   1.480   3.007  1.3383  0.0891  0.1309
 7386TIP3    H243574   3.071   1.615   2.995 -0.7566  1.2229  0.5105
 7387TIP3   OH243575   0.619   4.275  14.523  0.2070  0.2374 -0.2020
 7387TIP3    H143576   0.596   4.184  14.539  0.8917 -0.2203 -1.6838
 7387TIP3    H243577   0.709   4.283  14.555  0.0086  0.5234  0.3094
 7388TIP3   OH243578   4.137   1.364   2.567 -0.0277 -0.6527 -0.1818
 7388TIP3    H143579   4.119   1.397   2.655  0.6713 -2.1515  0.5655
 7388TIP3    H243580   4.232   1.372   2.558 -0.1195 -0.3019 -0.8966
 7389TIP3   OH243581   2.198   2.356   5.408  0.0614  0.0258 -0.2907
 7389TIP3    H143582   2.202   2.353   5.312 -0.4836 -0.1340 -0.3099
 7389TIP3    H243583   2.149   2.435   5.428 -0.8026 -0.5195 -0.1773
 7390TIP3   OH243584   4.567   5.051   0.151  0.0347 -0.0172 -0.2404
 7390TIP3    H143585   4.507   5.055   0.225  0.4214  1.3948  0.0277
 7390TIP3    H243586   4.652   5.033   0.190  0.0454 -0.4962 -0.4731
 7391TIP3   OH243587   5.155   6.769  16.647 -0.1426  0.1898  0.3397
 7391TIP3    H143588   5.135   6.831  16.578 -1.8805  0.1875  0.8034
 7391TIP3    H243589   5.175   6.823  16.723 -1.7823  0.2305  0.7777
 7392TIP3   OH243590   1.534   3.800  16.397  0.3554  0.2090 -0.2096
 7392TIP3    H143591   1.496   3.869  16.450 -1.7538 -1.0767  0.0678
 7392TIP3    H243592   1.464   3.735  16.387  1.3479 -0.6165 -2.7605
 7393TIP3   OH243593   4.079   1.555   5.579 -0.3348 -0.2133 -0.1021
 7393TIP3    H143594   4.101   1.468   5.612 -0.0685  0.0375  0.3991
 7393TIP3    H243595   4.127   1.615   5.636  1.1393  0.2038 -1.7062
 7394TIP3   OH243596   2.829   5.230  14.693  0.1010  0.2482 -0.6201
 7394TIP3    H143597   2.805   5.148  14.737 -1.4601  0.1225 -1.6266
 7394TIP3    H243598   2.746   5.266  14.662  0.8671  1.7291 -1.0553
 7395TIP3   OH243599   5.558   2.912   1.375 -0.4836  0.2246 -0.3889
 7395TIP3    H143600   5.534   2.840   1.432  2.1430 -0.3048  0.1799
 7395TIP3    H243601   5.475   2.951   1.348 -1.8696 -0.2744  2.7750
 7396TIP3   OH243602   6.219   0.709  15.496 -0.1886 -0.9542 -0.2298
 7396TIP3    H143603   6.123   0.702  15.499 -0.4831  1.4716  3.2861
 7396TIP3    H243604   6.235   0.803  15.490  1.7376 -0.8487  3.6849
 7397TIP3   OH243605   0.504   3.635  11.853  0.5770 -0.1607 -0.5993
 7397TIP3    H143606   0.528   3.543  11.852 -0.9156 -0.5972  0.6166
 7397TIP3    H243607   0.412   3.636  11.879  0.5909  1.6759 -0.4808
 7398TIP3   OH243608   1.458   3.142  14.496 -0.3933 -0.0334 -0.2466
 7398TIP3    H143609   1.371   3.160  14.461 -0.6048  0.7314  0.6532
 7398TIP3    H243610   1.497   3.082  14.432 -1.6359 -0.5323 -0.5695
 7399TIP3   OH243611   1.562   1.510  13.625 -0.0413 -0.0608  0.1137
 7399TIP3    H143612   1.619   1.508  13.549  0.0896 -0.9093  0.2271
 7399TIP3    H243613   1.621   1.505  13.701 -0.2225 -0.2410  0.2451
 7400TIP3   OH243614   4.673   4.625  10.999 -0.4217 -0.3352  0.2608
 7400TIP3    H143615   4.639   4.664  10.918  1.1447 -0.9807 -0.7646
 7400TIP3    H243616   4.708   4.698  11.049  0.3966 -0.1339 -0.5836
 7401TIP3   OH243617   0.831   5.401  16.460 -0.3659 -0.1312  0.0691
 7401TIP3    H143618   0.847   5.321  16.511  0.5204 -0.7615 -1.1447
 7401TIP3    H243619   0.824   5.470  16.525  1.7642 -0.7363  1.0223
 7402TIP3   OH243620   0.727   3.441   3.313 -0.0066  0.4562  0.7608
 7402TIP3    H143621   0.806   3.397   3.281  0.5537  0.9486  1.4271
 7402TIP3    H243622   0.698   3.387   3.387 -0.7293 -0.1342  0.0580
 7403TIP3   OH243623   3.273   1.339  14.471 -0.1811 -0.7049 -0.3970
 7403TIP3    H143624   3.207   1.393  14.427 -1.7388 -2.6943 -0.6131
 7403TIP3    H243625   3.325   1.302  14.400  0.0308 -0.5689 -0.3151
 7404TIP3   OH243626   1.876   1.878  11.227 -0.0228 -0.5778  0.2380
 7404TIP3    H143627   1.835   1.953  11.182  0.1554 -0.7113 -0.1503
 7404TIP3    H243628   1.871   1.807  11.163 -0.8737 -1.1112  0.8806
 7405TIP3   OH243629   0.463   2.256   3.902  0.0997 -0.2621  0.2171
 7405TIP3    H143630   0.420   2.178   3.866 -1.3587  0.7519 -0.3427
 7405TIP3    H243631   0.502   2.225   3.984 -1.3160 -1.3906  0.5222
 7406TIP3   OH243632   0.765   1.625   0.952 -0.3930 -0.7827  0.0249
 7406TIP3    H143633   0.847   1.664   0.984 -0.5263 -1.3377  1.0508
 7406TIP3    H243634   0.704   1.699   0.950  0.0119 -0.4433 -0.3882
 7407TIP3   OH243635   0.044   1.676   5.740  0.0335  0.1670 -0.0330
 7407TIP3    H143636   0.046   1.770   5.721  0.7474 -0.1345 -1.5830
 7407TIP3    H243637   0.107   1.664   5.811  0.8525  0.7033 -0.6581
 7408TIP3   OH243638   6.583   3.566  11.315  0.1938 -0.8352 -0.5579
 7408TIP3    H143639   6.626   3.561  11.230  1.3289 -1.0162  0.0069
 7408TIP3    H243640   6.576   3.476  11.344  0.4590 -0.7239 -0.1466
 7409TIP3   OH243641   0.216   3.941  12.403 -0.1890 -0.4740 -0.3124
 7409TIP3    H143642   0.263   4.007  12.454 -0.3370 -0.9841  0.5039
 7409TIP3    H243643   0.124   3.959  12.418 -0.2306 -1.4060  0.6553
 7410TIP3   OH243644   2.578   2.822  11.989  0.3342 -0.4479  0.3230
 7410TIP3    H143645   2.602   2.781  11.905 -0.6962 -1.4923  0.5125
 7410TIP3    H243646   2.659   2.817  12.041  1.5406  1.8320 -1.1556
 7411TIP3   OH243647   1.976   5.638  15.989  0.1062 -0.1053  0.0818
 7411TIP3    H143648   1.915   5.698  16.032  1.1315 -0.1351  1.6667
 7411TIP3    H243649   2.053   5.691  15.971 -0.1226 -0.2268 -1.3106
 7412TIP3   OH243650   6.320   6.074  15.441 -0.9204 -0.2512  0.2744
 7412TIP3    H143651   6.290   5.990  15.406 -3.1894  0.0883  1.1901
 7412TIP3    H243652   6.345   6.056  15.531 -0.2308 -0.1601  0.1044
 7413TIP3   OH243653   6.448   0.083  14.557  0.2404  0.1506 -0.3894
 7413TIP3    H143654   6.483   0.046  14.638  0.1806 -0.3373 -0.5843
 7413TIP3    H243655   6.525   0.115  14.510  0.2814  0.3789 -0.1692
 7414TIP3   OH243656   2.715   4.200  14.636 -0.0656  0.2889  0.5113
 7414TIP3    H143657   2.784   4.163  14.692 -0.4426 -0.7987  0.2734
 7414TIP3    H243658   2.664   4.124  14.607 -0.1179  0.8615 -0.9986
 7415TIP3   OH243659   1.937   4.540   2.294 -0.0214  0.0102 -0.0362
 7415TIP3    H143660   1.843   4.544   2.275 -0.1660  2.2182  0.7840
 7415TIP3    H243661   1.946   4.584   2.379  1.6650 -1.0419  0.3900
 7416TIP3   OH243662   0.443   2.940  12.929 -0.2061 -0.0154  0.4914
 7416TIP3    H143663   0.462   2.972  13.017  0.3798  0.7593  0.1054
 7416TIP3    H243664   0.476   3.009  12.871  1.6355 -1.5275 -0.4142
 7417TIP3   OH243665   4.099   4.203  16.201  0.3621  0.0368 -0.4350
 7417TIP3    H143666   4.130   4.116  16.225 -0.1428 -0.2257 -0.7157
 7417TIP3    H243667   4.060   4.192  16.114 -0.7320  0.2952  0.0073
 7418TIP3   OH243668   3.582   5.553  12.577 -0.4016 -0.4702  0.3568
 7418TIP3    H143669   3.654   5.561  12.640 -0.9853  0.6452  0.9248
 7418TIP3    H243670   3.531   5.634  12.589 -0.7783 -0.4315 -1.2506
 7419TIP3   OH243671   2.630   1.347  11.519 -0.2435  0.1756  0.4942
 7419TIP3    H143672   2.708   1.293  11.527  0.1379  0.5972 -0.3124
 7419TIP3    H243673   2.568   1.309  11.581 -0.8928 -2.7551 -1.7243
 7420TIP3   OH243674   6.749   2.801  14.547 -0.0309  0.3429  0.2451
 7420TIP3    H143675   6.835   2.843  14.547 -0.7779  1.9709  0.4126
 7420TIP3    H243676   6.749   2.745  14.624  0.1738  1.9339  1.4509
 7421TIP3   OH243677   1.793   2.074   1.369 -0.2943  0.2742  0.3505
 7421TIP3    H143678   1.835   1.989   1.359  1.6650  0.8965  2.5065
 7421TIP3    H243679   1.723   2.059   1.432 -0.9738 -0.0162 -0.4529
 7422TIP3   OH243680   0.707   1.442   0.487 -0.1465  0.3853 -0.0641
 7422TIP3    H143681   0.760   1.522   0.489 -0.6376  0.7489 -1.2665
 7422TIP3    H243682   0.748   1.386   0.553  0.5952  1.3757  0.3493
 7423TIP3   OH243683   4.697   3.734   4.737 -0.7932  1.0804 -0.5083
 7423TIP3    H143684   4.727   3.651   4.774 -0.1382  2.3473  2.0379
 7423TIP3    H243685   4.670   3.712   4.648 -2.3919 -2.2113  0.6267
 7424TIP3   OH243686   4.858   5.155  11.719 -0.1479  0.2390 -0.2970
 7424TIP3    H143687   4.899   5.155  11.632  0.2474  0.1780 -0.1148
 7424TIP3    H243688   4.785   5.217  11.711 -0.9008 -0.7220 -1.0257
 7425TIP3   OH243689   4.251   4.665  12.192  0.2473  0.3845 -0.3452
 7425TIP3    H143690   4.247   4.751  12.234  0.1155 -0.5710  1.6916
 7425TIP3    H243691   4.335   4.665  12.146  0.3361  1.5184 -0.2140
 7426TIP3   OH243692   5.611   0.233   0.210  0.7996  0.3523  0.4225
 7426TIP3    H143693   5.558   0.292   0.264  0.0229 -0.2086  0.2905
 7426TIP3    H243694   5.627   0.283   0.129  0.2816  0.4503  0.3740
 7427TIP3   OH243695   1.897   1.840   1.233  0.7168 -0.5420 -0.0257
 7427TIP3    H143696   1.850   1.767   1.272  0.8726 -1.1473 -0.9453
 7427TIP3    H243697   1.969   1.800   1.185  0.2189  0.1188 -1.3897
 7428TIP3   OH243698   4.005   0.875  12.237 -0.4066  0.0529  0.2256
 7428TIP3    H143699   4.059   0.800  12.214 -1.0619 -0.6000  0.7379
 7428TIP3    H243700   4.020   0.887  12.331  0.0891  0.8990  0.0451
 7429TIP3   OH243701   3.292   3.514   5.765  0.5292 -0.1959  0.1423
 7429TIP3    H143702   3.239   3.544   5.691 -0.7153 -0.1556  1.0213
 7429TIP3    H243703   3.283   3.419   5.765  1.1738 -0.2618 -0.2202
 7430TIP3   OH243704   5.701   4.360  15.102 -0.0048 -0.1754 -0.5541
 7430TIP3    H143705   5.688   4.455  15.105  0.0177 -0.1849  0.0289
 7430TIP3    H243706   5.769   4.347  15.037  1.8265  0.4416  1.1442
 7431TIP3   OH243707   5.283   2.044  14.178  0.4275  0.0182 -0.8128
 7431TIP3    H143708   5.346   2.115  14.165 -0.6681  1.5875  1.6488
 7431TIP3    H243709   5.334   1.965  14.164  2.5686  1.2413 -0.4442
 7432TIP3   OH243710   1.931   2.438   1.809 -0.2659 -0.4876  0.1430
 7432TIP3    H143711   1.838   2.439   1.832 -0.8817 -0.5297 -2.1253
 7432TIP3    H243712   1.933   2.447   1.714  1.9427 -3.1706 -0.2029
 7433TIP3   OH243713   1.321   0.686  13.315  0.0604  0.3788  0.5461
 7433TIP3    H143714   1.356   0.694  13.226 -2.3037 -0.7907 -0.5611
 7433TIP3    H243715   1.227   0.699  13.306 -0.2399  0.3816  2.9261
 7434TIP3   OH243716   0.857   4.129   4.668  0.1284  0.1930 -0.0944
 7434TIP3    H143717   0.809   4.202   4.707  2.3942  1.3234  0.7813
 7434TIP3    H243718   0.831   4.130   4.576 -2.4770 -0.1360  0.5595
 7435TIP3   OH243719   1.475   3.322  12.789  0.2609 -0.1394 -0.0602
 7435TIP3    H143720   1.394   3.333  12.838  0.5356  0.1406  0.3385
 7435TIP3    H243721   1.457   3.361  12.704  0.3593  1.0291  0.4307
 7436TIP3   OH243722   6.417   3.026   1.807  0.1938  0.0556 -0.1976
 7436TIP3    H143723   6.451   3.115   1.806  0.5939 -0.0921 -2.1242
 7436TIP3    H243724   6.331   3.034   1.849  0.1807  1.3455 -0.4275
 7437TIP3   OH243725   3.876   1.224   5.446 -0.0451  0.2201  0.3392
 7437TIP3    H143726   3.852   1.201   5.536 -1.4344 -0.5901 -0.1990
 7437TIP3    H243727   3.889   1.139   5.403  2.2251  0.6164  0.1558
 7438TIP3   OH243728   0.955   1.181   1.522  0.0267  0.3004  0.0634
 7438TIP3    H143729   0.925   1.196   1.433  1.0415  3.0416  0.0919
 7438TIP3    H243730   1.049   1.198   1.519  0.7250 -2.6798  1.0903
 7439TIP3   OH243731   0.540   5.435   4.581 -0.4214  1.0542  0.4753
 7439TIP3    H143732   0.528   5.522   4.543 -0.2134  1.1324  0.5885
 7439TIP3    H243733   0.502   5.441   4.669 -2.8385  0.2914 -0.4289
 7440TIP3   OH243734   4.710   5.885  13.166 -0.0160  0.3120  0.2169
 7440TIP3    H143735   4.784   5.829  13.188 -0.4295 -0.6729 -0.8087
 7440TIP3    H243736   4.714   5.894  13.071 -0.3041  1.5569  0.3062
 7441TIP3   OH243737   0.404   4.701  13.576 -0.0168  0.2201 -0.9284
 7441TIP3    H143738   0.417   4.790  13.611 -2.5761 -0.3028  1.7698
 7441TIP3    H243739   0.320   4.706  13.531  0.0041 -0.7504 -1.0777
 7442TIP3   OH243740   1.564   0.850   4.729 -0.2804 -0.4902  0.4430
 7442TIP3    H143741   1.623   0.837   4.655  0.6650  1.3987  0.7944
 7442TIP3    H243742   1.519   0.766   4.739  2.2283 -1.9865  0.0583
 7443TIP3   OH243743   5.807   4.853   2.705 -0.2300 -0.3347  0.5366
 7443TIP3    H143744   5.901   4.845   2.689 -0.1369 -1.0288  1.3558
 7443TIP3    H243745   5.766   4.797   2.639 -0.3026  2.3531 -1.9230
 7444TIP3   OH243746   5.165   1.325  16.263  0.2573 -0.0985  0.4350
 7444TIP3    H143747   5.137   1.238  16.291  1.1789  0.0848  2.0800
 7444TIP3    H243748   5.084   1.376  16.261 -0.2088 -0.8291  0.0689
 7445TIP3   OH243749   2.068   4.588  16.697  0.4636  0.0089  0.3839
 7445TIP3    H143750   2.124   4.538  16.638 -0.0133  1.6845 -1.6062
 7445TIP3    H243751   2.128   4.622  16.764  1.1333 -1.3333  0.4973
 7446TIP3   OH243752   6.597   2.931   3.027  0.0513  0.5777  0.4779
 7446TIP3    H143753   6.656   2.933   3.102 -0.2737  0.2049  0.7421
 7446TIP3    H243754   6.523   2.878   3.055  0.0257  0.2554 -0.1778
 7447TIP3   OH243755   4.599   6.689  16.484 -0.1736 -0.1088  0.7564
 7447TIP3    H143756   4.631   6.708  16.573  1.2414  0.5385  0.1322
 7447TIP3    H243757   4.651   6.614  16.455  1.4664  1.4460 -0.5655
 7448TIP3   OH243758   6.068   2.931  12.763 -0.2393 -0.2240 -0.8979
 7448TIP3    H143759   6.096   2.857  12.708  0.7211  1.2812 -2.5161
 7448TIP3    H243760   6.067   3.006  12.704  0.1938  1.3672  1.0163
 7449TIP3   OH243761   0.550   2.553   0.103 -0.3198  0.2396 -0.4806
 7449TIP3    H143762   0.487   2.510   0.161  0.2874 -0.1115 -0.0546
 7449TIP3    H243763   0.570   2.636   0.146  0.2706 -0.1023 -0.0703
 7450TIP3   OH243764   5.935   5.506  13.638  0.1303 -0.2596 -0.5018
 7450TIP3    H143765   5.936   5.601  13.647  2.6546 -0.1433 -1.3335
 7450TIP3    H243766   5.913   5.474  13.726 -1.8125  1.0359 -0.4425
 7451TIP3   OH243767   6.660   4.976  10.560 -0.1164  0.6107  0.5122
 7451TIP3    H143768   6.716   4.998  10.634 -0.4369 -0.6277  1.1434
 7451TIP3    H243769   6.571   4.977  10.597 -0.2910  0.1430  0.1073
 7452TIP3   OH243770   1.114   6.610  14.555 -0.3658  0.5451 -0.7350
 7452TIP3    H143771   1.061   6.543  14.513 -0.4205 -0.5494  0.9508
 7452TIP3    H243772   1.175   6.561  14.610  1.5675  1.8087 -1.6417
 7453TIP3   OH243773   2.328   5.008   1.466 -0.0054 -0.5009 -0.4339
 7453TIP3    H143774   2.250   5.062   1.452  0.6822  0.9965  1.2386
 7453TIP3    H243775   2.294   4.925   1.499 -0.9147 -0.0513 -0.2110
 7454TIP3   OH243776   4.951   3.833   2.787 -0.2916  0.1671 -0.1192
 7454TIP3    H143777   4.941   3.847   2.881  1.3273 -0.6781  0.2200
 7454TIP3    H243778   4.948   3.738   2.776  1.0692  0.1628 -0.6869
 7455TIP3   OH243779   0.179   0.804   4.144 -0.1869  0.0226 -0.2965
 7455TIP3    H143780   0.150   0.827   4.232  1.3487  1.3036 -0.0785
 7455TIP3    H243781   0.268   0.771   4.155  0.1804  0.5726 -1.3911
 7456TIP3   OH243782   0.419   6.769  16.284 -0.4719 -0.1359 -0.1162
 7456TIP3    H143783   0.428   6.676  16.261  0.7531 -0.0847  0.0755
 7456TIP3    H243784   0.423   6.815  16.200  2.5713 -0.0476 -0.0445
 7457TIP3   OH243785   2.500   1.565  11.814 -0.3681  0.2138  0.1325
 7457TIP3    H143786   2.418   1.570  11.766  0.6200  0.6730 -1.5710
 7457TIP3    H243787   2.539   1.482  11.788 -0.6997 -0.4703  1.6854
 7458TIP3   OH243788   6.257   6.458  13.764  0.5042 -0.1097  0.1764
 7458TIP3    H143789   6.185   6.520  13.779  0.2096 -0.9220  2.5174
 7458TIP3    H243790   6.218   6.390  13.709  0.2014  0.6526 -0.5787
 7459TIP3   OH243791   4.364   2.620   0.293 -0.4745  0.4384 -0.8141
 7459TIP3    H143792   4.401   2.574   0.218 -0.7645 -0.0136 -0.6829
 7459TIP3    H243793   4.269   2.617   0.280 -0.5867 -0.5038  0.0514
 7460TIP3   OH243794   3.160   5.927   2.855  0.2900 -0.1953  0.1836
 7460TIP3    H143795   3.172   6.011   2.811 -0.2579 -0.8748 -1.3285
 7460TIP3    H243796   3.083   5.888   2.814  0.5834 -1.4888  0.7835
 7461TIP3   OH243797   5.003   2.697  14.609  0.4062 -0.4855 -0.1442
 7461TIP3    H143798   5.030   2.656  14.527 -1.1967 -1.9951  0.0364
 7461TIP3    H243799   4.961   2.627  14.659  0.8550  0.5168  1.7568
 7462TIP3   OH243800   5.599   5.878  15.938  0.8059  0.1672 -0.5790
 7462TIP3    H143801   5.673   5.906  15.993 -1.0822 -0.2594  2.4158
 7462TIP3    H243802   5.540   5.953  15.937 -1.1735 -1.2083  1.8241
 7463TIP3   OH243803   1.455   6.279  15.338  0.6550 -0.0729 -0.0197
 7463TIP3    H143804   1.413   6.334  15.405  0.9491  1.1586 -0.8010
 7463TIP3    H243805   1.502   6.212  15.388 -2.0702 -1.4546  0.8964
 7464TIP3   OH243806   5.502   4.126  16.364 -0.6774 -0.1617 -0.2087
 7464TIP3    H143807   5.517   4.205  16.416  0.6072 -0.2092 -0.4944
 7464TIP3    H243808   5.578   4.071  16.380 -1.3132 -1.1364 -0.4197
 7465TIP3   OH243809   4.474   1.730  10.863  0.3959  0.1906  0.1486
 7465TIP3    H143810   4.440   1.718  10.774  1.4685 -0.2346 -0.2249
 7465TIP3    H243811   4.419   1.798  10.901  1.6788  2.4573 -1.8089
 7466TIP3   OH243812   5.235   2.077  11.623 -0.2217 -0.3643  0.0403
 7466TIP3    H143813   5.289   2.101  11.697  0.5775  0.1356 -0.6876
 7466TIP3    H243814   5.211   2.160  11.583 -1.4327 -0.5846  0.2750
 7467TIP3   OH243815   1.969   3.123  16.988 -0.5139 -0.0359  0.5435
 7467TIP3    H143816   2.041   3.152  16.932 -1.4971  1.4720  0.0107
 7467TIP3    H243817   1.956   3.195  17.050 -2.3627  0.3028 -0.1741
 7468TIP3   OH243818   1.903   5.258   2.923  0.0993  0.3085  0.2485
 7468TIP3    H143819   1.991   5.297   2.921 -0.0130  0.5748 -1.9814
 7468TIP3    H243820   1.919   5.164   2.934  0.4997  0.5850  2.5511
 7469TIP3   OH243821   2.605   2.703  15.330 -0.6022 -0.0598  0.0486
 7469TIP3    H143822   2.655   2.636  15.377 -1.8274 -0.4968  0.7795
 7469TIP3    H243823   2.528   2.718  15.384 -0.4169  1.8942 -0.1549
 7470TIP3   OH243824   4.284   3.815  13.348 -0.0314  0.4303 -0.0177
 7470TIP3    H143825   4.283   3.721  13.332 -2.3096  0.6139 -1.3783
 7470TIP3    H243826   4.213   3.829  13.412 -1.4261  1.4354 -1.6946
 7471TIP3   OH243827   6.116   3.228   5.470  0.3928  0.1735  0.6067
 7471TIP3    H143828   6.142   3.319   5.458 -0.0616  0.6695  2.9924
 7471TIP3    H243829   6.040   3.218   5.412 -2.1238  2.5928  3.1694
 7472TIP3   OH243830   4.392   5.632   4.701 -0.8236  0.1808  0.5544
 7472TIP3    H143831   4.328   5.650   4.632  0.1698 -1.3456 -0.8622
 7472TIP3    H243832   4.363   5.684   4.775 -2.3184  1.3941 -0.8047
 7473TIP3   OH243833   6.612   6.505  13.976 -0.2165 -0.0363  0.1452
 7473TIP3    H143834   6.551   6.579  13.975 -2.5676 -1.8443 -1.5958
 7473TIP3    H243835   6.566   6.437  14.024  0.3835 -1.4781 -1.2584
 7474TIP3   OH243836   3.544   2.496  11.851 -0.6688  0.4926  0.0974
 7474TIP3    H143837   3.618   2.554  11.867 -0.4734  0.1575  0.4146
 7474TIP3    H243838   3.490   2.543  11.787 -1.0620  1.5067  1.1306
 7475TIP3   OH243839   3.338   0.204  12.477  0.5892 -0.0174 -0.0795
 7475TIP3    H143840   3.284   0.135  12.439  0.1205  0.4309 -0.2363
 7475TIP3    H243841   3.415   0.209  12.419  2.1285 -2.4384  1.5769
 7476TIP3   OH243842   3.698   3.138   0.830  0.1199 -0.1665  0.2832
 7476TIP3    H143843   3.701   3.206   0.763 -0.4676  0.9164  1.3101
 7476TIP3    H243844   3.605   3.134   0.855  0.1741 -1.2478  0.3394
 7477TIP3   OH243845   5.711   6.217   1.387 -0.2267  0.1365 -0.4773
 7477TIP3    H143846   5.627   6.194   1.347 -1.1519 -0.0901  1.4967
 7477TIP3    H243847   5.773   6.155   1.349 -0.7285  0.8718 -2.6403
 7478TIP3   OH243848   5.412   3.695   4.625 -0.4269  0.1327  0.1839
 7478TIP3    H143849   5.497   3.731   4.598  0.2116 -2.1120 -1.0668
 7478TIP3    H243850   5.427   3.662   4.714  0.2275 -0.7994 -0.2537
 7479TIP3   OH243851   4.030   3.261   0.507 -1.0972  0.0943  0.8646
 7479TIP3    H143852   4.073   3.224   0.585  1.6936 -2.2154 -1.4915
 7479TIP3    H243853   4.092   3.326   0.475 -1.7044  0.2515 -0.0116
 7480TIP3   OH243854   2.779   0.522   4.597 -0.0864  0.1139 -0.1898
 7480TIP3    H143855   2.842   0.590   4.622  0.9816 -0.3258 -1.5847
 7480TIP3    H243856   2.695   0.567   4.595  0.6685  1.5538 -1.6211
 7481TIP3   OH243857   4.581   4.524   2.351  0.9648 -0.1043 -0.0092
 7481TIP3    H143858   4.574   4.589   2.282 -2.2533  0.6698  0.8356
 7481TIP3    H243859   4.553   4.570   2.430 -1.0663 -2.2995  0.6966
 7482TIP3   OH243860   5.716   3.570   5.675 -0.5961  0.1387  0.4355
 7482TIP3    H143861   5.656   3.517   5.727 -0.6363  1.2580  1.5653
 7482TIP3    H243862   5.754   3.631   5.737  0.4116  0.6035 -0.5998
 7483TIP3   OH243863   3.247   6.695  16.129 -0.3403 -0.8289 -0.5998
 7483TIP3    H143864   3.311   6.766  16.122 -0.9076 -0.3273 -0.7223
 7483TIP3    H243865   3.213   6.685  16.041 -0.2784 -1.2483 -0.5809
 7484TIP3   OH243866   4.420   3.566  16.722 -0.4400  0.2050 -0.1532
 7484TIP3    H143867   4.400   3.574  16.629  2.5526 -1.5413 -1.0789
 7484TIP3    H243868   4.486   3.634  16.738 -0.2394 -0.1293  0.4634
 7485TIP3   OH243869   3.575   1.636  14.955 -0.4411 -0.1812 -0.0943
 7485TIP3    H143870   3.538   1.671  14.873  0.7825 -1.0204 -1.0450
 7485TIP3    H243871   3.615   1.712  14.997 -0.7997  0.2019 -0.4344
 7486TIP3   OH243872   4.827   3.494   1.338 -0.1515  0.2160 -0.1573
 7486TIP3    H143873   4.822   3.524   1.428  0.5335 -0.0061 -0.0421
 7486TIP3    H243874   4.826   3.399   1.344 -0.1903  0.2008 -0.3918
 7487TIP3   OH243875   0.948   0.503  11.353  0.0532 -0.3493 -0.0530
 7487TIP3    H143876   0.968   0.537  11.441 -0.0405 -0.5093  0.0301
 7487TIP3    H243877   1.019   0.535  11.298 -1.0172  1.6466 -0.3891
 7488TIP3   OH243878   0.404   0.039   0.068 -0.4344 -0.8847  0.5906
 7488TIP3    H143879   0.495   0.066   0.060 -0.7426 -0.2063 -1.0768
 7488TIP3    H243880   0.403  -0.052   0.036 -0.2848 -1.0659  1.0810
 7489TIP3   OH243881   3.448   4.162   4.503 -0.3736 -0.4332 -0.2668
 7489TIP3    H143882   3.462   4.238   4.446  1.1384 -0.9673 -0.6587
 7489TIP3    H243883   3.508   4.095   4.469 -1.2067 -1.5955  0.4625
 7490TIP3   OH243884   4.849   6.713   2.390 -0.2213  0.2955 -0.6151
 7490TIP3    H143885   4.838   6.733   2.483 -0.9514  1.7502 -0.9800
 7490TIP3    H243886   4.761   6.716   2.354  0.2694  2.5047 -1.8270
 7491TIP3   OH243887   1.644   5.816   4.808  0.6812  0.5063 -0.8126
 7491TIP3    H143888   1.667   5.724   4.794  0.6891  0.4215 -0.2870
 7491TIP3    H243889   1.679   5.836   4.895  0.6699  1.0056 -0.9167
 7492TIP3   OH243890   0.058   4.832  15.024  0.0059 -0.2627 -0.0060
 7492TIP3    H143891   0.044   4.755  15.079 -0.2880 -0.1471  0.0795
 7492TIP3    H243892   0.080   4.796  14.938  2.1131 -0.4778  0.5527
 7493TIP3   OH243893   4.222   2.729  17.050  0.1348  0.1915 -0.3813
 7493TIP3    H143894   4.243   2.643  17.085 -0.0047  0.4443  0.3378
 7493TIP3    H243895   4.147   2.714  16.993 -1.0893  0.1082  1.1887
 7494TIP3   OH243896   1.911   3.991  11.614 -0.2221 -0.3986 -0.6768
 7494TIP3    H143897   1.895   4.084  11.604  0.8111 -0.1205  0.1045
 7494TIP3    H243898   1.829   3.949  11.587 -0.6336  0.7176 -1.1817
 7495TIP3   OH243899   1.209   2.904  16.220  0.2634 -0.0660 -0.2294
 7495TIP3    H143900   1.127   2.857  16.205  0.9396 -1.4932  0.3280
 7495TIP3    H243901   1.205   2.930  16.312  0.4391 -0.1829 -0.1876
 7496TIP3   OH243902   2.097   3.204   0.308 -0.1642  0.2420  0.1187
 7496TIP3    H143903   2.068   3.155   0.385 -0.1530  0.9062  0.5509
 7496TIP3    H243904   2.126   3.137   0.247  1.4852 -0.2423  1.3506
 7497TIP3   OH243905   3.139   5.719   4.759 -0.0253 -0.4026  0.1330
 7497TIP3    H143906   3.093   5.753   4.836  1.8717 -0.7142  1.4996
 7497TIP3    H243907   3.215   5.775   4.749 -0.7892  0.3202 -2.2797
 7498TIP3   OH243908   3.159   2.502   6.137 -0.1815 -0.3073  0.3115
 7498TIP3    H143909   3.233   2.471   6.085  0.0340  0.4550  0.1604
 7498TIP3    H243910   3.159   2.445   6.214  0.8601 -0.0094  0.5493
 7499TIP3   OH243911   0.568   2.700  12.395 -0.5853 -0.0326  0.6090
 7499TIP3    H143912   0.643   2.673  12.447  0.9831  0.7870 -1.1098
 7499TIP3    H243913   0.539   2.782  12.435 -0.1604 -0.0210  0.8970
 7500TIP3   OH243914   4.622   4.102  12.468 -0.2800  0.2509 -0.1059
 7500TIP3    H143915   4.579   4.078  12.549 -0.3323 -0.0001 -0.2091
 7500TIP3    H243916   4.556   4.088  12.400 -0.0793 -0.0074 -0.2486
 7501TIP3   OH243917   1.018   0.872  16.528  0.4769 -0.0055 -0.2183
 7501TIP3    H143918   0.927   0.884  16.553 -0.0901 -3.1347 -0.4244
 7501TIP3    H243919   1.050   0.803  16.586  2.4492  0.3078 -0.8414
 7502TIP3   OH243920   6.242   6.230  12.488  0.5026 -0.1983  0.3720
 7502TIP3    H143921   6.332   6.197  12.489  0.4665 -0.3583 -0.8258
 7502TIP3    H243922   6.227   6.260  12.578  1.3194 -1.3265  0.9140
 7503TIP3   OH243923   1.282   4.528   0.988 -0.0404 -0.0262 -0.1731
 7503TIP3    H143924   1.339   4.477   0.930  1.1749 -0.9361  1.7198
 7503TIP3    H243925   1.245   4.597   0.932  1.8403 -0.2592 -1.7858
 7504TIP3   OH243926   0.832   3.208  13.556 -0.4276  0.0858 -0.1224
 7504TIP3    H143927   0.873   3.264  13.491  0.7040 -1.1658 -0.5459
 7504TIP3    H243928   0.764   3.262  13.596  0.2356  1.5384 -0.8977
 7505TIP3   OH243929   5.719   1.788   1.821 -0.4607 -0.2581  0.0983
 7505TIP3    H143930   5.776   1.857   1.786 -0.8211  0.0086  0.0303
 7505TIP3    H243931   5.772   1.709   1.815 -0.3798 -0.1578 -0.7234
 7506TIP3   OH243932   0.797   6.315  11.629  0.0295 -0.4029 -0.4905
 7506TIP3    H143933   0.770   6.317  11.538 -0.9447 -0.0556 -0.2039
 7506TIP3    H243934   0.892   6.324  11.626 -0.0941  0.8354 -1.4238
 7507TIP3   OH243935   3.618   2.611  14.289  0.1139  0.0060 -0.3996
 7507TIP3    H143936   3.554   2.587  14.222 -1.2978  0.9069  0.5675
 7507TIP3    H243937   3.697   2.636  14.240 -0.4763 -0.5182 -1.6451
 7508TIP3   OH243938   4.954   6.133  16.250 -0.2196  0.0655  0.3138
 7508TIP3    H143939   5.023   6.096  16.195 -0.7860 -0.5087 -0.0235
 7508TIP3    H243940   4.998   6.154  16.332  0.7143  1.2391 -0.4386
 7509TIP3   OH243941   0.201   6.312  14.172  0.0768 -0.0564 -0.4404
 7509TIP3    H143942   0.239   6.398  14.154  0.9070 -0.3454 -0.1277
 7509TIP3    H243943   0.271   6.263  14.215 -0.6264 -0.6457  0.0661
 7510TIP3   OH243944   1.399   2.122  14.928  0.0398  0.1089 -0.2822
 7510TIP3    H143945   1.373   2.107  15.019 -1.8751  0.9019 -0.6367
 7510TIP3    H243946   1.470   2.185  14.933 -0.6336  0.8189  0.6510
 7511TIP3   OH243947   1.894   3.607  17.053 -0.1064  0.2407 -0.2865
 7511TIP3    H143948   1.906   3.702  17.058 -0.5278  0.2584  0.4726
 7511TIP3    H243949   1.909   3.577  17.143  0.3524 -0.4549 -0.5910
 7512TIP3   OH243950   2.261   1.642  13.650  0.2500 -0.1747  0.2160
 7512TIP3    H143951   2.188   1.683  13.604  0.4384 -0.9884 -0.8456
 7512TIP3    H243952   2.314   1.716  13.681 -0.6248  0.4063  0.3503
 7513TIP3   OH243953   5.629   3.774  12.852  0.3038  0.1518 -0.4888
 7513TIP3    H143954   5.565   3.746  12.787  1.3663 -1.3221 -0.9653
 7513TIP3    H243955   5.691   3.828  12.802  1.0238 -0.8392 -0.7115
 7514TIP3   OH243956   0.488   0.963  13.296  0.5851 -0.0589  0.0654
 7514TIP3    H143957   0.573   0.980  13.256  0.6369  0.1132  0.2519
 7514TIP3    H243958   0.494   1.001  13.384 -0.4500  2.0188 -0.6874
 7515TIP3   OH243959   5.586   2.775   1.778 -0.1953 -0.5459 -0.0609
 7515TIP3    H143960   5.526   2.721   1.726 -0.3798 -0.1594 -0.2469
 7515TIP3    H243961   5.578   2.863   1.741  0.9179 -0.6069 -0.4616
 7516TIP3   OH243962   2.689   4.064   4.762  0.6909  0.0176 -0.1623
 7516TIP3    H143963   2.745   4.140   4.780  0.3932  0.0926  0.4591
 7516TIP3    H243964   2.601   4.100   4.754  0.6276 -0.1914 -0.4472
 7517TIP3   OH243965   3.650   6.262  12.834  0.4133  0.3827 -0.0679
 7517TIP3    H143966   3.745   6.261  12.838  0.3808 -0.5375  0.6822
 7517TIP3    H243967   3.626   6.174  12.806 -0.2039  0.7945 -0.8738
 7518TIP3   OH243968   0.206   0.730  11.056  0.5924 -0.3285  0.0577
 7518TIP3    H143969   0.254   0.651  11.082  0.3360 -0.2983  0.6417
 7518TIP3    H243970   0.269   0.782  11.006  1.4045  0.0580  1.4417
 7519TIP3   OH243971   0.701   5.283   0.518  0.0198  0.4651 -0.3615
 7519TIP3    H143972   0.715   5.377   0.502  0.6129  0.4923  0.2734
 7519TIP3    H243973   0.734   5.269   0.606  1.1034 -0.5992 -0.9153
 7520TIP3   OH243974   6.655   1.014   1.523 -0.7320  0.1136  0.4148
 7520TIP3    H143975   6.605   1.073   1.466 -3.6455 -1.5254  1.0295
 7520TIP3    H243976   6.683   0.943   1.465 -0.1418  0.4311  0.3028
 7521TIP3   OH243977   2.166   1.420  11.912 -0.1920 -0.3843 -0.0872
 7521TIP3    H143978   2.257   1.429  11.942 -0.2024  0.1750 -0.2107
 7521TIP3    H243979   2.148   1.326  11.917  0.3064 -0.4677  0.1938
 7522TIP3   OH243980   4.054   5.043  10.794  0.3948  0.4790  0.8551
 7522TIP3    H143981   4.104   4.993  10.858 -0.0484 -2.5083 -0.9423
 7522TIP3    H243982   3.963   5.019  10.812  0.2950 -0.7800 -1.0605
 7523TIP3   OH243983   2.657   3.722   0.286 -0.2243  0.2119 -0.1855
 7523TIP3    H143984   2.630   3.670   0.210  0.8014  1.6016 -1.5476
 7523TIP3    H243985   2.678   3.808   0.251  1.1616  0.6411  1.5424
 7524TIP3   OH243986   6.708   0.569   4.377 -0.1536 -0.2563  0.0857
 7524TIP3    H143987   6.698   0.567   4.472  0.4691 -0.5781  0.1518
 7524TIP3    H243988   6.722   0.661   4.356 -1.6538  0.0103  0.1451
 7525TIP3   OH243989   4.841   5.173  15.051  0.3134  0.0505  0.0505
 7525TIP3    H143990   4.855   5.186  14.957 -1.2623  2.6946  0.0786
 7525TIP3    H243991   4.924   5.199  15.092 -0.3301  3.4046 -0.4483
 7526TIP3   OH243992   2.714   1.048   6.181  0.2045 -0.3454  0.4094
 7526TIP3    H143993   2.786   1.006   6.227  1.2137  1.4760  0.6156
 7526TIP3    H243994   2.655   1.078   6.250 -0.4549 -1.2762  0.2700
 7527TIP3   OH243995   3.986   2.933   0.156 -0.1209 -0.3875  0.4243
 7527TIP3    H143996   3.943   3.017   0.174  1.6838  0.5695  0.4146
 7527TIP3    H243997   4.073   2.956   0.125  0.9415 -2.3041  1.7644
 7528TIP3   OH243998   3.571   4.733  16.714 -0.3706  0.1797 -0.4714
 7528TIP3    H143999   3.481   4.752  16.742  0.2129  3.0817 -0.2856
 7528TIP3    H244000   3.621   4.811  16.739  1.6886 -0.2452 -2.9024
 7529TIP3   OH244001   0.714   0.879   1.796  0.1575 -0.3975  0.1800
 7529TIP3    H144002   0.725   0.784   1.802 -1.5191 -0.5695  1.1427
 7529TIP3    H244003   0.682   0.894   1.707 -0.7172 -0.8805  0.4031
 7530TIP3   OH244004   0.520   5.907   0.083 -0.3302 -0.3603 -0.4010
 7530TIP3    H144005   0.562   5.989   0.106 -2.3050  1.1712 -1.8880
 7530TIP3    H244006   0.536   5.898  -0.011  0.4124 -2.0587 -0.1525
 7531TIP3   OH244007   3.674   1.060   3.988  0.0593  0.3231 -1.1083
 7531TIP3    H144008   3.760   1.028   3.961  0.1829  0.4117 -0.8317
 7531TIP3    H244009   3.669   1.149   3.952  0.4162  0.6153 -0.4624
 7532TIP3   OH244010   0.118   3.293   5.787 -0.3821  0.7100 -0.4115
 7532TIP3    H144011   0.083   3.253   5.867  1.4233 -0.5283 -0.1964
 7532TIP3    H244012   0.040   3.308   5.733 -1.5372  0.6457  1.1483
 7533TIP3   OH244013   5.413   6.176   1.340 -0.1608 -0.1271  0.3182
 7533TIP3    H144014   5.368   6.095   1.316 -1.4926  0.1364  1.7928
 7533TIP3    H244015   5.417   6.175   1.435  0.7983  1.0306  0.3207
 7534TIP3   OH244016   1.346   4.229   1.357 -0.0222 -0.2039  0.7269
 7534TIP3    H144017   1.291   4.307   1.354 -1.6806 -1.3425 -1.4102
 7534TIP3    H244018   1.377   4.218   1.267  0.6764 -1.6736  1.1191
 7535TIP3   OH244019   2.490   2.906   3.580  0.0695  0.3640  0.3862
 7535TIP3    H144020   2.490   2.909   3.485  0.9035  1.6724  0.4028
 7535TIP3    H244021   2.431   2.977   3.607 -1.3477 -0.9287  0.8698
 7536TIP3   OH244022   1.621   5.150   4.416 -0.6726 -0.2796 -0.1523
 7536TIP3    H144023   1.676   5.228   4.412 -0.0424 -0.3253  3.6783
 7536TIP3    H244024   1.532   5.184   4.425 -0.7931 -0.1385 -1.5772
 7537TIP3   OH244025   6.508   6.396  14.839 -0.8218  0.2020 -0.0114
 7537TIP3    H144026   6.592   6.360  14.809 -1.2273 -0.3310 -0.5406
 7537TIP3    H244027   6.457   6.407  14.758 -0.6029  2.2927  0.0978
 7538TIP3   OH244028   1.328   6.712   5.055  0.6098 -0.4273  0.2927
 7538TIP3    H144029   1.311   6.798   5.093 -0.2523  0.2058 -1.3762
 7538TIP3    H244030   1.249   6.661   5.076  1.2281 -0.9222  1.4989
 7539TIP3   OH244031   1.105   1.679   2.157 -0.3073  0.8111  0.4251
 7539TIP3    H144032   1.039   1.703   2.093 -0.4052  0.9479  0.5775
 7539TIP3    H244033   1.115   1.584   2.147 -0.6661  0.7600  0.5353
 7540TIP3   OH244034   0.768   3.695   0.518 -0.0834  0.1341 -0.0378
 7540TIP3    H144035   0.769   3.743   0.602 -0.4889 -0.0260  0.0605
 7540TIP3    H244036   0.684   3.718   0.479  0.0564  0.1139 -0.3491
 7541TIP3   OH244037   5.433   2.099   1.172 -0.2064  0.5954 -0.0443
 7541TIP3    H144038   5.482   2.032   1.219  0.5622  0.9661 -0.2910
 7541TIP3    H244039   5.500   2.153   1.130 -0.8399  0.9271 -0.6664
 7542TIP3   OH244040   5.863   3.654   3.521  1.0151 -0.2727  0.0508
 7542TIP3    H144041   5.838   3.562   3.517  0.6242 -0.1521 -0.4113
 7542TIP3    H244042   5.840   3.689   3.434  2.1685  0.0048 -0.1550
 7543TIP3   OH244043   3.407   5.376   1.605  0.6135  0.0310  0.4025
 7543TIP3    H144044   3.415   5.401   1.513  3.3970 -1.0341  0.2736
 7543TIP3    H244045   3.494   5.392   1.642  0.3170 -2.0576  2.1852
 7544TIP3   OH244046   3.193   3.777   2.833 -0.0837  0.0458 -0.2926
 7544TIP3    H144047   3.139   3.813   2.763  0.5843  1.3468 -0.1857
 7544TIP3    H244048   3.263   3.842   2.845 -0.2434 -0.0715  1.6490
 7545TIP3   OH244049   3.980   4.091  15.969 -0.1518 -0.2619  0.3237
 7545TIP3    H144050   3.991   4.141  15.888 -2.1789 -0.2386  0.0159
 7545TIP3    H244051   4.005   4.002  15.946  0.0522 -0.1022 -0.0884
 7546TIP3   OH244052   3.924   6.571  13.852 -0.1591  0.0825 -0.3138
 7546TIP3    H144053   4.000   6.558  13.796 -1.4161 -2.0066 -1.7113
 7546TIP3    H244054   3.954   6.628  13.922  2.2918  0.4081 -1.5310
 7547TIP3   OH244055   1.654   3.580   6.031 -0.2909 -0.1272 -0.3521
 7547TIP3    H144056   1.715   3.560   6.102 -0.3616  0.1941 -0.1959
 7547TIP3    H244057   1.606   3.657   6.063  0.2454  0.5242 -1.0858
 7548TIP3   OH244058   1.279   3.411  12.156  0.4437  0.4508 -0.3042
 7548TIP3    H144059   1.231   3.456  12.087 -0.5592 -0.5335 -0.2690
 7548TIP3    H244060   1.368   3.445  12.149  0.2095  0.8392 -1.6560
 7549TIP3   OH244061   4.657   1.448  16.720 -0.3942 -0.7520  0.0033
 7549TIP3    H144062   4.567   1.475  16.699 -0.7600  0.0551  2.3063
 7549TIP3    H244063   4.652   1.353  16.732 -1.5086 -0.4775  2.2872
 7550TIP3   OH244064   3.623   6.340  12.564 -0.4699  0.6204 -0.3345
 7550TIP3    H144065   3.634   6.348  12.659  0.4778  0.8229 -0.4449
 7550TIP3    H244066   3.557   6.405  12.541 -1.2249  0.0734  0.2783
 7551TIP3   OH244067   6.667   2.181   3.021  0.3253 -0.0204 -0.4953
 7551TIP3    H144068   6.749   2.224   3.001  0.8189 -0.7072 -0.0033
 7551TIP3    H244069   6.613   2.195   2.943  0.7158  0.8672 -0.6186
 7552TIP3   OH244070   5.982   5.697  14.999 -0.1558 -0.1577 -0.6543
 7552TIP3    H144071   5.915   5.712  14.933  0.6249  0.3183 -1.3666
 7552TIP3    H244072   6.000   5.785  15.034 -0.5441 -0.4023  0.1770
 7553TIP3   OH244073   4.841   0.965  15.475 -0.6714 -0.6687  0.2921
 7553TIP3    H144074   4.910   1.032  15.469  0.8458 -2.1863  0.1734
 7553TIP3    H244075   4.822   0.958  15.569  1.3189 -2.1104  0.6519
 7554TIP3   OH244076   2.024   2.934   4.171 -0.9636  0.2396 -0.4910
 7554TIP3    H144077   2.074   2.857   4.199 -0.1775  0.2367 -1.8600
 7554TIP3    H244078   2.040   2.941   4.077  0.1781  2.9290 -0.1900
 7555TIP3   OH244079   2.754   1.079  11.525  0.3281  0.0898 -0.5127
 7555TIP3    H144080   2.703   1.052  11.449 -0.2603 -2.0657  0.5724
 7555TIP3    H244081   2.818   1.008  11.537 -0.6856 -0.4949  1.9621
 7556TIP3   OH244082   1.608   1.112  10.603  0.0734  0.1296 -0.4030
 7556TIP3    H144083   1.575   1.107  10.513 -0.2083 -1.2400 -0.2481
 7556TIP3    H244084   1.677   1.046  10.607  0.4870  0.5833  0.2393
 7557TIP3   OH244085   6.544   6.372   6.267  0.0177  0.2339 -0.1920
 7557TIP3    H144086   6.557   6.445   6.206  0.4901 -0.6747 -1.2091
 7557TIP3    H244087   6.590   6.298   6.227 -0.2969 -0.5865  0.9015
 7558TIP3   OH244088   0.735   1.402   4.768 -0.0197 -0.3849  0.1964
 7558TIP3    H144089   0.687   1.320   4.759 -0.9902  0.2437 -0.7055
 7558TIP3    H244090   0.716   1.432   4.856 -0.8170 -0.4523  0.0557
 7559TIP3   OH244091   1.454   4.025   0.653 -0.3257  0.0960  0.0946
 7559TIP3    H144092   1.392   4.088   0.690 -0.5203 -0.4521  0.7452
 7559TIP3    H244093   1.412   3.994   0.572 -1.7907 -1.5577  1.3916
 7560TIP3   OH244094   1.299   2.612   0.644  0.1688 -0.3917 -0.3879
 7560TIP3    H144095   1.268   2.552   0.576 -0.2785 -0.0356 -0.5046
 7560TIP3    H244096   1.281   2.700   0.609  0.2990 -0.2005  0.0197
 7561TIP3   OH244097   3.982   2.712  12.976  0.0191  0.1635 -0.3671
 7561TIP3    H144098   4.037   2.664  13.038  1.0820  0.4718 -1.0508
 7561TIP3    H244099   4.040   2.779  12.939 -1.0542  1.0835 -0.4594
 7562TIP3   OH244100   3.914   3.544   4.345  0.2210 -0.0418 -0.2802
 7562TIP3    H144101   3.955   3.459   4.364  0.8569  0.5564  1.1833
 7562TIP3    H244102   3.954   3.572   4.262  1.2577 -0.4179  0.0773
 7563TIP3   OH244103   4.243   6.025  16.394  0.1777 -0.2113  0.0086
 7563TIP3    H144104   4.217   6.040  16.303 -3.2751  0.3695  0.9437
 7563TIP3    H244105   4.334   6.053  16.398 -0.5177  3.0954 -2.5624
 7564TIP3   OH244106   2.259   5.090  11.847 -0.1450  0.1608 -0.6558
 7564TIP3    H144107   2.347   5.081  11.883 -1.0194 -0.2949  1.5242
 7564TIP3    H244108   2.208   5.129  11.917 -1.3487  2.0620 -2.4714
 7565TIP3   OH244109   4.738   5.147   2.822  0.3255  0.4526  0.1719
 7565TIP3    H144110   4.666   5.209   2.817 -0.1951 -0.1919 -0.6363
 7565TIP3    H244111   4.696   5.062   2.831  1.0242  0.1703  0.8632
 7566TIP3   OH244112   4.303   1.468  14.936  0.5574 -0.0408 -0.3242
 7566TIP3    H144113   4.396   1.491  14.925  0.8788 -0.5661  1.1345
 7566TIP3    H244114   4.283   1.491  15.026 -0.9553  0.7209 -0.8136
 7567TIP3   OH244115   1.031   5.224   5.791 -0.2038  0.2372 -0.3961
 7567TIP3    H144116   1.088   5.162   5.744 -1.3360 -0.6104 -0.7057
 7567TIP3    H244117   1.045   5.203   5.883 -2.1783 -2.0663 -0.5189
 7568TIP3   OH244118   4.752   4.050  14.132  0.1928 -0.3683 -0.5161
 7568TIP3    H144119   4.682   3.992  14.103  0.7946 -0.8300 -1.0893
 7568TIP3    H244120   4.723   4.138  14.109 -1.0897 -0.3282  1.0833
 7569TIP3   OH244121   0.006   4.399   5.876 -0.1549  0.1985 -0.0958
 7569TIP3    H144122  -0.046   4.477   5.860  0.4945  0.3945 -1.3670
 7569TIP3    H244123  -0.054   4.326   5.859  0.0342  0.4169 -1.8759
 7570TIP3   OH244124   3.786   6.588   5.059 -0.6157 -0.2764 -0.0747
 7570TIP3    H144125   3.734   6.513   5.030 -0.1258 -0.8394  0.4833
 7570TIP3    H244126   3.735   6.627   5.129 -2.1987  1.5715 -2.1440
 7571TIP3   OH244127   6.611   5.695   1.767  0.0518 -0.2140 -0.4461
 7571TIP3    H144128   6.661   5.776   1.759 -0.7173  0.4201  0.9627
 7571TIP3    H244129   6.537   5.706   1.708 -1.9314  1.6225  2.1475
 7572TIP3   OH244130   3.536   1.446   3.245 -0.0688  0.1702  0.4529
 7572TIP3    H144131   3.547   1.539   3.227 -0.0014  0.5477  2.2698
 7572TIP3    H244132   3.444   1.428   3.224 -0.5259  1.0443  1.6040
 7573TIP3   OH244133   4.369   6.476  15.931  0.6758  0.3485 -0.3996
 7573TIP3    H144134   4.418   6.489  16.012  0.5993  0.7424 -0.4110
 7573TIP3    H244135   4.426   6.424  15.875  0.5793 -0.2386  0.0481
 7574TIP3   OH244136   0.276   2.620  15.602  0.0420 -0.2095  0.6080
 7574TIP3    H144137   0.363   2.636  15.640  0.2312 -1.5793  0.7950
 7574TIP3    H244138   0.215   2.645  15.672  0.0750  3.3806 -0.4055
 7575TIP3   OH244139   4.673   2.784  13.917  0.1250 -0.0611  0.2118
 7575TIP3    H144140   4.761   2.770  13.951  0.5669 -0.4040 -1.0184
 7575TIP3    H244141   4.617   2.788  13.995  0.7922 -2.7993  0.9528
 7576TIP3   OH244142   2.990   6.661   2.628 -1.0522  0.6775 -0.3831
 7576TIP3    H144143   3.055   6.695   2.689  0.8712 -2.4974 -0.4564
 7576TIP3    H244144   2.911   6.648   2.681  0.1094 -0.5727  1.1259
 7577TIP3   OH244145   2.653   2.704   4.131 -0.1684  0.5661  0.1253
 7577TIP3    H144146   2.729   2.749   4.167  1.3084 -1.6580 -0.0102
 7577TIP3    H244147   2.672   2.697   4.037  0.2044 -1.2661  0.3023
 7578TIP3   OH244148   6.639   5.390  16.389  0.2742  0.3700 -0.1496
 7578TIP3    H144149   6.623   5.469  16.441 -0.7320  0.2985 -0.3268
 7578TIP3    H244150   6.730   5.368  16.407  0.2334  0.9134  0.8121
 7579TIP3   OH244151   4.161   5.091  15.192  0.3130 -0.3854  0.6278
 7579TIP3    H144152   4.225   5.089  15.263  0.8815  0.3546  0.1538
 7579TIP3    H244153   4.178   5.173  15.147 -0.7283 -0.3583  0.2568
 7580TIP3   OH244154   2.858   5.950   5.769  0.3265 -0.3406 -0.1789
 7580TIP3    H144155   2.829   5.861   5.790 -1.5642  0.4366  0.7416
 7580TIP3    H244156   2.778   5.996   5.744  0.9990  1.4951  0.8422
 7581TIP3   OH244157   6.275   2.950   1.575 -0.3801  0.1186 -0.5696
 7581TIP3    H144158   6.305   3.005   1.647 -2.4228  0.0889  0.3926
 7581TIP3    H244159   6.229   3.010   1.517  0.4871 -0.0125 -1.4163
 7582TIP3   OH244160   4.436   5.471   0.813  0.2344  0.2541 -0.6824
 7582TIP3    H144161   4.420   5.482   0.719  0.5079 -1.7879 -1.0076
 7582TIP3    H244162   4.395   5.387   0.834 -1.0699  1.3191  1.3595
 7583TIP3   OH244163   5.940   0.430  11.261  0.3077 -0.6450  0.0517
 7583TIP3    H144164   5.972   0.418  11.171 -0.9686 -1.2383 -0.3593
 7583TIP3    H244165   6.019   0.441  11.314  1.0403  1.4803 -1.3676
 7584TIP3   OH244166   5.733   3.881  14.114  0.3500  0.6640  0.5089
 7584TIP3    H144167   5.822   3.914  14.126  0.9653 -1.0687  1.0736
 7584TIP3    H244168   5.742   3.805  14.056 -0.9689  1.2909 -0.5829
 7585TIP3   OH244169   2.082   3.520  13.810 -0.1449  0.2486  0.0350
 7585TIP3    H144170   2.113   3.575  13.881  1.2144 -0.6063  0.1342
 7585TIP3    H244171   2.087   3.576  13.732 -0.2676  0.7415  0.3813
 7586TIP3   OH244172   5.446   3.684  15.689  0.0718  0.2114 -0.3645
 7586TIP3    H144173   5.382   3.678  15.618 -1.9974  0.5783  1.3807
 7586TIP3    H244174   5.394   3.697  15.768  2.2665 -0.5333  1.3134
 7587TIP3   OH244175   2.330   1.112   2.310 -0.8986 -0.6149 -0.0021
 7587TIP3    H144176   2.409   1.058   2.325 -0.6011 -0.0116  0.6720
 7587TIP3    H244177   2.264   1.049   2.281 -0.2429 -1.1741 -0.3236
 7588TIP3   OH244178   2.395   4.375  17.017 -0.0082  0.1496  0.1188
 7588TIP3    H144179   2.381   4.287  17.053 -0.8772  0.2133 -0.0565
 7588TIP3    H244180   2.429   4.359  16.929  1.0157 -0.0035  0.5265
 7589TIP3   OH244181   0.204   1.274   2.611  0.2459 -0.2486 -0.1430
 7589TIP3    H144182   0.242   1.352   2.651 -1.0528 -0.8592  2.4311
 7589TIP3    H244183   0.270   1.206   2.624 -0.2547 -0.4958  1.2418
 7590TIP3   OH244184   3.158   2.848   2.356  0.3177 -0.5484  0.0135
 7590TIP3    H144185   3.132   2.810   2.272  0.9722  1.5459 -1.1922
 7590TIP3    H244186   3.075   2.862   2.402 -0.1932 -0.2238 -0.9709
 7591TIP3   OH244187   4.518   2.848  11.566 -0.8123  0.5934  0.4570
 7591TIP3    H144188   4.496   2.755  11.557  1.4744  0.0127  0.1948
 7591TIP3    H244189   4.528   2.879  11.476 -0.9497  0.9389  0.5585
 7592TIP3   OH244190   3.438   0.039   2.086 -0.0045 -0.1453  0.1748
 7592TIP3    H144191   3.517  -0.009   2.062 -0.3733 -0.2094 -1.0014
 7592TIP3    H244192   3.404   0.072   2.003 -0.3974  1.1738  0.8347
 7593TIP3   OH244193   2.542   4.399  12.498  0.9321  0.1306 -0.2163
 7593TIP3    H144194   2.613   4.464  12.500 -0.8864  2.2213  1.1427
 7593TIP3    H244195   2.488   4.421  12.574 -1.5532 -0.9222 -1.5823
 7594TIP3   OH244196   0.335   1.996   3.901  0.1627  0.1093  0.0227
 7594TIP3    H144197   0.391   1.950   3.964 -2.0005 -0.8152  1.3879
 7594TIP3    H244198   0.294   1.926   3.849 -1.2800  0.5925  0.4543
 7595TIP3   OH244199   5.049   6.519  11.622 -0.2076  0.4784 -0.0953
 7595TIP3    H144200   5.026   6.591  11.681 -0.2453 -0.3757  0.9669
 7595TIP3    H244201   5.141   6.499  11.644 -0.4398 -0.3181  0.2058
 7596TIP3   OH244202   5.384   5.429  15.599 -0.3352 -0.3862 -0.2265
 7596TIP3    H144203   5.369   5.481  15.678  0.6624  0.1352 -0.3688
 7596TIP3    H244204   5.306   5.443  15.546 -0.2876  0.5933 -0.0484
 7597TIP3   OH244205   1.478   1.011  17.067  0.1586 -0.1743  0.0365
 7597TIP3    H144206   1.499   1.100  17.039  0.0624  0.1671  0.9956
 7597TIP3    H244207   1.399   0.988  17.017  0.5549  0.0270 -0.6896
 7598TIP3   OH244208   2.157   4.595  12.506 -0.2520  0.6209  0.3879
 7598TIP3    H144209   2.224   4.645  12.459  0.8234 -0.6412  0.4913
 7598TIP3    H244210   2.203   4.564  12.585 -1.3462  0.7780  1.1010
 7599TIP3   OH244211   3.832   3.422   6.215 -0.2076  0.0734 -0.2785
 7599TIP3    H144212   3.763   3.481   6.246 -1.0617  0.6052 -2.8898
 7599TIP3    H244213   3.909   3.478   6.207 -0.3315  0.2411 -0.3221
 7600TIP3   OH244214   1.502   1.910   2.559 -0.0177  0.1937  0.0731
 7600TIP3    H144215   1.576   1.954   2.602 -0.9865  0.8778  1.1231
 7600TIP3    H244216   1.428   1.969   2.575 -0.7416 -0.3515 -1.1778
 7601TIP3   OH244217   0.669   1.198  12.534  0.1991 -0.4938 -0.2041
 7601TIP3    H144218   0.692   1.280  12.578 -0.6923 -1.3122  1.9124
 7601TIP3    H244219   0.579   1.210  12.505  0.0769 -0.6900  0.0833
 7602TIP3   OH244220   6.755   0.545   2.013  0.5655 -0.8810 -0.6896
 7602TIP3    H144221   6.821   0.606   1.979 -2.0666  1.9115 -1.2307
 7602TIP3    H244222   6.721   0.501   1.934 -0.9136  0.6754 -0.9769
 7603TIP3   OH244223   1.783   2.373  11.961 -0.5740  0.0738 -0.6074
 7603TIP3    H144224   1.758   2.426  11.885 -0.4469 -0.2684 -0.8901
 7603TIP3    H244225   1.784   2.435  12.034 -4.4870 -0.2175 -0.0540
 7604TIP3   OH244226   5.534   3.905  15.361 -0.4085 -0.2888 -0.2870
 7604TIP3    H144227   5.614   3.954  15.376 -1.0605  0.5566  0.5906
 7604TIP3    H244228   5.464   3.965  15.387 -1.4274 -0.4676 -2.3693
 7605TIP3   OH244229   4.591   1.567  15.578 -0.4941  0.6130 -0.5700
 7605TIP3    H144230   4.634   1.653  15.582 -0.5164  0.6856 -1.6189
 7605TIP3    H244231   4.663   1.505  15.561 -0.3430  0.2776  1.0602
 7606TIP3   OH244232   5.815   3.626   4.049  0.2156  0.4856 -0.1950
 7606TIP3    H144233   5.905   3.601   4.069  0.7485 -0.3526 -3.0681
 7606TIP3    H244234   5.821   3.715   4.014  0.0449  0.2516 -0.8531
 7607TIP3   OH244235   2.336   0.761   5.038  0.1276  0.2942  0.0169
 7607TIP3    H144236   2.337   0.674   4.997 -0.2009  0.6847 -0.8153
 7607TIP3    H244237   2.296   0.746   5.124 -3.6945  0.2542 -1.5774
 7608TIP3   OH244238   0.180   5.902   3.473 -0.1240  0.2332 -0.1961
 7608TIP3    H144239   0.219   5.986   3.498  1.4357  0.3390 -2.6109
 7608TIP3    H244240   0.254   5.843   3.463 -1.1100 -1.1689  0.3828
 7609TIP3   OH244241   2.341   2.498  14.661  0.0748 -0.2598  0.3040
 7609TIP3    H144242   2.281   2.561  14.701  0.3742  0.7155 -0.7309
 7609TIP3    H244243   2.307   2.486  14.572  0.5646 -0.8210  0.1877
 7610TIP3   OH244244   6.239   4.779   0.743  0.5109 -0.2996  0.0512
 7610TIP3    H144245   6.230   4.736   0.658 -2.3502 -0.5989  0.4324
 7610TIP3    H244246   6.291   4.718   0.796 -0.5989 -1.7452 -0.4638
 7611TIP3   OH244247   1.628   4.603   2.666  0.1395 -0.2447 -0.1724
 7611TIP3    H144248   1.634   4.595   2.761  2.3147  1.8103 -0.0404
 7611TIP3    H244249   1.666   4.522   2.632 -1.5867 -1.4514  0.6332
 7612TIP3   OH244250   4.378   4.808   3.288  0.0231 -0.4303 -0.0421
 7612TIP3    H144251   4.328   4.777   3.212 -2.0932 -1.2687  1.6022
 7612TIP3    H244252   4.319   4.796   3.362  1.7196  1.1214  1.6584
 7613TIP3   OH244253   4.564   2.705  13.178  0.0943 -0.5316 -0.0704
 7613TIP3    H144254   4.600   2.791  13.155  1.7250 -1.5995 -1.7928
 7613TIP3    H244255   4.469   2.719  13.180  0.2681  1.1127 -1.2109
 7614TIP3   OH244256   6.651   1.650  14.203  0.1917 -0.9037 -0.1685
 7614TIP3    H144257   6.561   1.684  14.204  1.2751  2.3884  2.0801
 7614TIP3    H244258   6.658   1.598  14.283  0.9312  1.1558  1.1893
 7615TIP3   OH244259   2.275   4.273  14.067 -0.5362  0.1422  0.6134
 7615TIP3    H144260   2.222   4.256  14.144  0.1689 -2.3405  0.6194
 7615TIP3    H244261   2.227   4.234  13.994  0.6373 -1.0481  0.4327
 7616TIP3   OH244262   0.963   4.969  14.897  0.3084 -0.1168  0.0174
 7616TIP3    H144263   0.973   5.062  14.918 -0.0270 -0.4352  1.7504
 7616TIP3    H244264   0.924   4.968  14.810 -1.1551  1.4169  0.5992
 7617TIP3   OH244265   6.032   2.234   0.928  0.1368 -0.4293 -0.3723
 7617TIP3    H144266   6.053   2.141   0.941  0.5276 -0.1466  1.1581
 7617TIP3    H244267   6.113   2.272   0.896  0.2997 -0.4146  0.0522
 7618TIP3   OH244268   5.005   4.129   4.778 -0.2684 -0.5554 -0.3569
 7618TIP3    H144269   5.091   4.089   4.769 -0.6684 -1.3910 -0.4909
 7618TIP3    H244270   5.024   4.217   4.811  0.6543 -0.6046 -0.7178
 7619TIP3   OH244271   0.128   5.110  14.841  0.4768 -0.0423 -0.8611
 7619TIP3    H144272   0.082   5.155  14.770 -1.9641  0.0458  0.6454
 7619TIP3    H244273   0.087   5.023  14.844  0.3749  0.0428  0.5700
 7620TIP3   OH244274   6.448   1.306   3.771  0.9334 -0.4430 -0.1321
 7620TIP3    H144275   6.388   1.318   3.845  0.1666  0.8180 -0.9123
 7620TIP3    H244276   6.472   1.395   3.745 -0.6266 -0.6867 -2.8159
 7621TIP3   OH244277   3.588   0.401  13.845  0.3890 -1.0487 -0.4717
 7621TIP3    H144278   3.532   0.383  13.769 -0.5476 -0.6599  0.1016
 7621TIP3    H244279   3.533   0.381  13.920  0.3699  1.0739  0.1480
 7622TIP3   OH244280   1.039   0.705  13.372 -0.5607 -0.1083 -0.3151
 7622TIP3    H144281   0.953   0.742  13.391 -1.0578 -1.3260 -0.0795
 7622TIP3    H244282   1.045   0.629  13.430  0.4895 -0.3042 -0.6605
 7623TIP3   OH244283   1.061   6.480   6.718  0.2900  0.2262  0.8110
 7623TIP3    H144284   1.138   6.459   6.771  1.6142 -0.6093 -1.2834
 7623TIP3    H244285   1.096   6.490   6.629 -1.7959  1.6090  0.0649
 7624TIP3   OH244286   1.039   6.707  15.972 -0.5411  0.3508  0.0936
 7624TIP3    H144287   1.070   6.791  16.005  0.0402  0.5446 -0.8928
 7624TIP3    H244288   0.949   6.700  16.002 -0.4442  1.1104  0.5699
 7625TIP3   OH244289   5.449   0.255   6.226 -0.1678 -0.2947 -0.1785
 7625TIP3    H144290   5.400   0.222   6.302 -0.6781 -3.3789 -1.6944
 7625TIP3    H244291   5.382   0.291   6.168 -0.0839 -0.1357 -0.1741
 7626TIP3   OH244292   1.975   4.332  14.899 -0.4007 -0.2530  0.5068
 7626TIP3    H144293   1.890   4.333  14.941 -2.1755  0.5637 -2.7145
 7626TIP3    H244294   1.979   4.247  14.854 -0.7855  0.7067 -1.4766
 7627TIP3   OH244295   0.026   5.287   0.007  0.2366 -0.1690 -0.2113
 7627TIP3    H144296   0.111   5.268   0.047  2.3940  0.4204 -4.0388
 7627TIP3    H244297   0.011   5.380   0.024 -0.3923 -0.5532  1.5697
 7628TIP3   OH244298   1.099   1.881   5.041 -0.1481 -0.0256  0.1702
 7628TIP3    H144299   1.135   1.903   4.955 -1.1301  1.2485  0.0612
 7628TIP3    H244300   1.137   1.946   5.100  0.9802 -1.2448  0.8462
 7629TIP3   OH244301   2.602   5.726   1.449 -0.0157  0.2030 -0.0381
 7629TIP3    H144302   2.521   5.714   1.399 -0.2829 -0.2799  0.4938
 7629TIP3    H244303   2.624   5.639   1.481  0.7089  0.3355 -0.1568
 7630TIP3   OH244304   4.350   0.791   3.885  0.5227 -0.7804  0.1584
 7630TIP3    H144305   4.261   0.801   3.851  0.2579 -0.1303  1.0144
 7630TIP3    H244306   4.350   0.839   3.967  1.9554  0.0545 -0.3008
 7631TIP3   OH244307   4.196   2.078   2.278 -0.2129 -0.1787 -0.0863
 7631TIP3    H144308   4.241   2.162   2.267 -0.0047 -0.0866  1.2971
 7631TIP3    H244309   4.200   2.061   2.372  1.3404 -2.6245 -0.4868
 7632TIP3   OH244310   1.263   0.132  13.922  0.3888  0.0426 -0.7350
 7632TIP3    H144311   1.273   0.126  13.827 -1.4317  1.8564 -1.1110
 7632TIP3    H244312   1.216   0.214  13.936  0.1125 -0.4591  1.7081
 7633TIP3   OH244313   3.901   2.686   4.009 -0.1002 -0.1530  0.3643
 7633TIP3    H144314   3.984   2.653   4.044  0.1480 -0.0926 -0.1631
 7633TIP3    H244315   3.875   2.754   4.072  0.7431  0.5026  0.0263
 7634TIP3   OH244316   4.325   4.146   1.692 -0.0058  0.1132  0.2548
 7634TIP3    H144317   4.256   4.169   1.754  0.5667  0.1703  0.8846
 7634TIP3    H244318   4.387   4.220   1.698 -0.7867  0.9874 -1.6734
 7635TIP3   OH244319   1.691   4.654  12.093  0.3991  0.3986  0.3900
 7635TIP3    H144320   1.745   4.611  12.159  2.0121  1.4093 -0.2161
 7635TIP3    H244321   1.602   4.650  12.129  0.4763 -3.0288  0.5419
 7636TIP3   OH244322   5.981   6.305  11.470 -0.0463  0.5046  0.4187
 7636TIP3    H144323   5.919   6.372  11.498  1.1946  1.4108  1.0923
 7636TIP3    H244324   6.066   6.337  11.499  0.5416 -1.6287  1.2981
 7637TIP3   OH244325   1.086   1.080  15.115  0.1239  0.3045 -0.0962
 7637TIP3    H144326   1.168   1.080  15.165  0.0080  1.3794  0.1184
 7637TIP3    H244327   1.018   1.089  15.182 -0.1049  0.5783 -0.3649
 7638TIP3   OH244328   2.994   3.085   4.750  0.0851  0.2168  0.1680
 7638TIP3    H144329   2.934   3.155   4.777  0.8595  0.7577  0.5289
 7638TIP3    H244330   2.949   3.004   4.775 -0.9157  0.5676 -0.4443
 7639TIP3   OH244331   3.293   1.941  15.709 -0.2595 -0.5661  0.0214
 7639TIP3    H144332   3.386   1.956  15.695 -0.5482  1.0328 -0.4294
 7639TIP3    H244333   3.288   1.857  15.756  1.1654 -2.6959 -3.2968
 7640TIP3   OH244334   5.686   4.540   3.387  0.2736  0.2451 -0.3006
 7640TIP3    H144335   5.674   4.622   3.338 -1.1377 -0.5131 -1.2799
 7640TIP3    H244336   5.635   4.475   3.338  0.2090 -0.9165  1.2456
 7641TIP3   OH244337   5.138   2.307  12.652 -0.0568 -0.4250 -0.0926
 7641TIP3    H144338   5.142   2.226  12.702 -0.0441  0.1091  0.8145
 7641TIP3    H244339   5.060   2.352  12.685  0.8238  0.6545  0.6099
 7642TIP3   OH244340   0.292   5.071   4.582  0.4222 -0.7890  0.0253
 7642TIP3    H144341   0.306   5.104   4.671  0.1381  1.0019 -0.5656
 7642TIP3    H244342   0.283   5.149   4.528 -1.3564 -1.8214 -1.2918
 7643TIP3   OH244343   4.015   0.792   1.436  0.0738  0.4659  0.3094
 7643TIP3    H144344   4.009   0.883   1.464  0.4304  0.7526 -0.5154
 7643TIP3    H244345   4.020   0.796   1.341  0.6063 -0.3898  0.2890
 7644TIP3   OH244346   1.174   2.737   1.505  0.1754  0.0274 -0.2808
 7644TIP3    H144347   1.120   2.815   1.512  0.2194  0.0674 -0.3880
 7644TIP3    H244348   1.170   2.713   1.412  1.1409  0.5997 -0.4877
 7645TIP3   OH244349   6.066   3.975   3.239  0.0890  0.7676  0.5719
 7645TIP3    H144350   6.028   4.028   3.168  0.5946  4.3370  2.7145
 7645TIP3    H244351   6.160   3.988   3.231  0.2198  0.2876  1.2538
 7646TIP3   OH244352   5.032   2.353   4.181  0.5285  0.7790 -0.0129
 7646TIP3    H144353   5.034   2.416   4.253  0.3672  0.9461 -0.1534
 7646TIP3    H244354   5.111   2.373   4.131  1.4396 -0.3076  0.9301
 7647TIP3   OH244355   6.712   0.248  13.362  0.1764 -0.3142 -0.0529
 7647TIP3    H144356   6.698   0.329  13.314  0.0049  0.0880  0.6642
 7647TIP3    H244357   6.658   0.257  13.440  1.7231 -0.2396  1.0473
 7648TIP3   OH244358   1.280   6.336  12.076 -1.0136 -0.0340  1.1501
 7648TIP3    H144359   1.200   6.311  12.030 -0.8019  0.3281  0.5824
 7648TIP3    H244360   1.302   6.258  12.128 -0.6287 -0.8911 -0.2253
 7649TIP3   OH244361   0.800   5.566   0.827 -0.1838  0.1267 -0.3626
 7649TIP3    H144362   0.882   5.561   0.875  0.3062 -0.6050 -1.2513
 7649TIP3    H244363   0.817   5.521   0.745 -1.5934 -0.4330 -0.3874
 7650TIP3   OH244364   4.811   6.119   5.620  0.0159 -0.6294 -0.2234
 7650TIP3    H144365   4.820   6.025   5.607  0.2971 -0.6199 -0.1059
 7650TIP3    H244366   4.785   6.154   5.535  2.1343 -0.5217 -0.8740
 7651TIP3   OH244367   4.124   0.575  14.984  0.4078  0.2485  0.2623
 7651TIP3    H144368   4.071   0.517  15.039 -0.0152  1.6305  1.3746
 7651TIP3    H244369   4.126   0.658  15.032  1.3027  1.0501 -1.0995
 7652TIP3   OH244370   6.442   2.822   1.356  0.1653 -0.4733 -0.3378
 7652TIP3    H144371   6.352   2.834   1.327  0.7151  0.8199 -1.6712
 7652TIP3    H244372   6.437   2.760   1.429 -1.7796 -0.4358 -0.4072
 7653TIP3   OH244373   5.593   2.626   3.971  0.7391  0.0221  0.4764
 7653TIP3    H144374   5.584   2.530   3.969  1.3821 -0.0311 -0.4397
 7653TIP3    H244375   5.538   2.653   4.044  0.4217 -1.0376  0.6550
 7654TIP3   OH244376   2.339   5.048   5.070 -0.1430 -0.0349  0.2722
 7654TIP3    H144377   2.365   5.010   4.986  2.5773 -0.8665  1.3731
 7654TIP3    H244378   2.402   5.119   5.085  0.1213 -0.5982  2.0615
 7655TIP3   OH244379   5.803   3.884   3.981  0.0777  0.2698 -0.5513
 7655TIP3    H144380   5.898   3.879   3.975  0.2016  0.6460  0.8156
 7655TIP3    H244381   5.774   3.894   3.891  1.2558 -1.0297 -1.1124
 7656TIP3   OH244382   0.180   3.850  15.109 -0.1766 -1.1416  0.3405
 7656TIP3    H144383   0.240   3.877  15.039 -1.0276 -0.3623 -0.1112
 7656TIP3    H244384   0.188   3.755  15.112  0.5554 -1.1100 -0.1826
 7657TIP3   OH244385   1.751   5.784   6.032  0.2834 -0.4710  0.0009
 7657TIP3    H144386   1.793   5.868   6.051 -1.0021 -0.0568  1.1788
 7657TIP3    H244387   1.816   5.736   5.980  1.0670  1.2120 -0.6476
 7658TIP3   OH244388   4.021   1.661  16.578 -0.0203 -0.2001  0.8019
 7658TIP3    H144389   3.958   1.732  16.591  0.2104  0.7417 -2.3124
 7658TIP3    H244390   3.979   1.585  16.617 -2.7889  0.5624 -0.4046
 7659TIP3   OH244391   1.672   5.974  11.518  0.4018  0.3937  0.8075
 7659TIP3    H144392   1.706   5.976  11.608  0.3782 -1.6144  0.9022
 7659TIP3    H244393   1.748   5.994  11.463  1.0225 -0.8777  1.1745
 7660TIP3   OH244394   3.923   4.354   5.791  0.1530  0.2563  0.4086
 7660TIP3    H144395   3.905   4.442   5.758 -0.8681 -0.0670  0.0782
 7660TIP3    H244396   3.918   4.362   5.886 -0.5337  0.4394  0.3605
 7661TIP3   OH244397   5.426   2.043  12.890 -0.2388  0.1529 -0.0324
 7661TIP3    H144398   5.339   2.059  12.855 -0.2935  1.3584  0.6139
 7661TIP3    H244399   5.415   2.050  12.985  0.4189 -0.4254  0.0943
 7662TIP3   OH244400   2.264   1.046  16.946  0.1184 -0.1224 -0.2349
 7662TIP3    H144401   2.243   1.122  16.891  1.3028  1.2209  1.0587
 7662TIP3    H244402   2.297   0.981  16.885  0.7222  1.0563 -1.2290
 7663TIP3   OH244403   1.446   4.891  16.191 -0.0040  0.0992 -0.3733
 7663TIP3    H144404   1.523   4.837  16.176  0.9159  1.4519 -0.6300
 7663TIP3    H244405   1.407   4.854  16.271  1.3782 -0.0771  0.2555
 7664TIP3   OH244406   4.707   4.314   1.587  0.2861 -0.5753 -0.3082
 7664TIP3    H144407   4.778   4.338   1.527 -1.5151  0.5504 -2.0905
 7664TIP3    H244408   4.713   4.219   1.595  0.4660 -0.7852 -2.4751
 7665TIP3   OH244409   2.239   6.695   2.591  0.0537 -0.1410 -0.3744
 7665TIP3    H144410   2.204   6.741   2.514 -0.1842 -0.4225 -0.4386
 7665TIP3    H244411   2.210   6.747   2.666 -0.1477 -0.1404 -0.4512
 7666TIP3   OH244412   4.344   2.662  16.287  0.0997  0.0417  0.1849
 7666TIP3    H144413   4.439   2.664  16.300 -0.0714 -0.8158  2.0178
 7666TIP3    H244414   4.330   2.703  16.202  2.0812  0.4839  0.0179
 7667TIP3   OH244415   1.902   0.474  11.993 -0.2055 -0.0084 -0.3852
 7667TIP3    H144416   1.811   0.470  12.022  0.0549 -2.5213  0.3047
 7667TIP3    H244417   1.953   0.489  12.072  0.0918 -0.2484 -0.5296
 7668TIP3   OH244418   4.938   1.520   5.421 -0.0447 -0.3317  0.2839
 7668TIP3    H144419   5.002   1.458   5.457 -0.4868 -1.1844 -0.3771
 7668TIP3    H244420   4.853   1.482   5.442 -0.3176 -0.4063 -0.8615
 7669TIP3   OH244421   5.546   5.300   4.637 -0.4909  0.4514 -0.5151
 7669TIP3    H144422   5.604   5.230   4.665 -0.7498  0.0561 -0.9570
 7669TIP3    H244423   5.566   5.312   4.544 -2.1196 -0.6879 -1.0490
 7670TIP3   OH244424   4.521   1.031  15.632 -0.3653 -0.2798 -0.0365
 7670TIP3    H144425   4.606   0.987  15.625  0.1808  0.7201  0.2296
 7670TIP3    H244426   4.484   0.999  15.714  0.1534 -0.0294  0.2964
 7671TIP3   OH244427   2.920   4.138  14.791  0.6457  0.3014  0.4722
 7671TIP3    H144428   2.908   4.223  14.834  1.3070  0.7657 -0.2311
 7671TIP3    H244429   3.008   4.142  14.754 -0.5251  0.6793 -2.5604
 7672TIP3   OH244430   4.272   5.049  14.251 -0.0317  0.1590  0.3810
 7672TIP3    H144431   4.177   5.059  14.240 -0.1597 -0.5027  0.8055
 7672TIP3    H244432   4.307   5.048  14.162 -0.3880  0.7330  0.2299
 7673TIP3   OH244433   5.356   3.462  11.798 -0.2722 -0.6704 -0.5209
 7673TIP3    H144434   5.304   3.539  11.820 -1.5567 -1.5802 -0.2169
 7673TIP3    H244435   5.388   3.479  11.710  0.8295  0.8942  0.1496
 7674TIP3   OH244436   3.422   1.450  17.161 -0.0854 -0.1985 -0.3262
 7674TIP3    H144437   3.369   1.513  17.209  1.0039  0.0852  0.5419
 7674TIP3    H244438   3.465   1.398  17.228  3.3003  1.6915 -0.7652
 7675TIP3   OH244439   0.411   6.737   0.628 -0.0570  0.1373  0.0727
 7675TIP3    H144440   0.381   6.775   0.546  2.8019  0.4829 -0.9039
 7675TIP3    H244441   0.342   6.674   0.652 -1.0329  0.1335 -2.4724
 7676TIP3   OH244442   1.374   5.306   0.140 -0.2923  0.0198 -0.2843
 7676TIP3    H144443   1.301   5.326   0.199 -0.8492  0.7225 -1.1800
 7676TIP3    H244444   1.358   5.361   0.063  1.1406  0.1180 -0.5322
 7677TIP3   OH244445   0.048   0.963  11.522  1.0170 -0.3833 -0.2102
 7677TIP3    H144446   0.026   1.050  11.555  0.8252 -0.1885 -0.8462
 7677TIP3    H244447   0.013   0.903  11.588  0.3083 -0.0123 -0.2447
 7678TIP3   OH244448   1.784   4.827   0.117 -0.0373  0.4280  0.3875
 7678TIP3    H144449   1.757   4.749   0.164 -1.5451  1.2998  1.0176
 7678TIP3    H244450   1.748   4.815   0.029  0.2504  0.1540  0.3035
 7679TIP3   OH244451   6.505   3.390  14.962  0.0290 -0.6645 -0.9869
 7679TIP3    H144452   6.414   3.359  14.953 -0.6405  0.8362  0.1613
 7679TIP3    H244453   6.551   3.316  15.002 -1.6474 -0.1988  2.1730
 7680TIP3   OH244454   0.433   5.689  16.701  0.5194  0.4103 -0.2199
 7680TIP3    H144455   0.520   5.703  16.737  0.1328  0.6242  0.6580
 7680TIP3    H244456   0.379   5.667  16.777 -0.1266 -0.0275 -0.7937
 7681TIP3   OH244457   3.628   4.822   4.113  0.4526 -0.0361 -0.3569
 7681TIP3    H144458   3.611   4.890   4.178 -0.3042  0.4309 -1.0175
 7681TIP3    H244459   3.723   4.825   4.099  0.3887  1.1290 -0.6205
 7682TIP3   OH244460   5.713   2.357  11.562  0.2462 -0.6393 -0.7893
 7682TIP3    H144461   5.663   2.427  11.520  0.7011  0.9734  1.1745
 7682TIP3    H244462   5.669   2.276  11.536 -2.4542  0.6004 -0.4135
 7683TIP3   OH244463   0.171   3.274   1.121 -0.3013 -0.2806  0.4786
 7683TIP3    H144464   0.253   3.324   1.124  0.4576 -1.4941  0.3681
 7683TIP3    H244465   0.127   3.307   1.043 -0.9176  1.8423  1.6257
 7684TIP3   OH244466   5.094   5.795   3.449  0.3506 -0.2265 -0.0836
 7684TIP3    H144467   5.125   5.722   3.503 -0.4690 -0.4105  0.1395
 7684TIP3    H244468   5.056   5.753   3.372 -1.3547 -0.1099  0.6653
 7685TIP3   OH244469   0.128   1.897  14.625 -0.1066  0.1666  0.4614
 7685TIP3    H144470   0.163   1.965  14.567 -0.5154 -0.4873 -0.5961
 7685TIP3    H244471   0.071   1.944  14.686  0.9354  0.9635  0.8389
 7686TIP3   OH244472   5.455   1.051  12.263  0.3558 -0.2890  0.2471
 7686TIP3    H144473   5.395   1.100  12.206  2.4650  0.7405 -1.2140
 7686TIP3    H244474   5.490   0.982  12.207  1.0630 -0.4265  0.8425
 7687TIP3   OH244475   1.717   1.911  15.659 -0.6178  0.4211 -0.0115
 7687TIP3    H144476   1.692   1.908  15.566 -0.5989 -0.3539  0.0010
 7687TIP3    H244477   1.805   1.947  15.659 -0.5719  0.3121 -0.3070
 7688TIP3   OH244478   3.267   5.599   4.299  0.0043  0.6710 -0.3162
 7688TIP3    H144479   3.249   5.670   4.237  1.8124 -0.1902 -1.9098
 7688TIP3    H244480   3.359   5.579   4.287 -0.1397 -1.0631  1.0789
 7689TIP3   OH244481   1.711   2.574   4.609 -0.1685  0.0593  0.5750
 7689TIP3    H144482   1.642   2.640   4.614 -0.1839  0.0439  0.5656
 7689TIP3    H244483   1.665   2.490   4.621  0.0198  0.1286  1.9844
 7690TIP3   OH244484   0.066   0.346   4.284 -0.1278 -0.0654 -0.6801
 7690TIP3    H144485   0.061   0.437   4.314  4.1177  0.1169  0.0553
 7690TIP3    H244486   0.039   0.294   4.359 -2.3783  0.4718 -1.0369
 7691TIP3   OH244487   1.652   0.686  16.583 -0.1754  0.4088 -0.6142
 7691TIP3    H144488   1.689   0.768  16.551 -0.2901  0.4866 -0.5453
 7691TIP3    H244489   1.558   0.694  16.569  0.0269 -0.8543 -3.3071
 7692TIP3   OH244490   3.554   1.831  16.064 -0.0184  0.1676  0.2315
 7692TIP3    H144491   3.498   1.837  16.142 -0.1942 -0.0049  0.1170
 7692TIP3    H244492   3.512   1.889  16.000  0.5414  0.9146  0.5175
 7693TIP3   OH244493   0.911   0.679  14.976 -0.3049 -0.1638 -0.5707
 7693TIP3    H144494   0.889   0.768  14.948  1.1188  0.2199 -0.5386
 7693TIP3    H244495   0.835   0.650  15.026 -1.8432  0.0879 -2.6373
 7694TIP3   OH244496   2.291   5.485   5.566  0.4641 -0.0933  0.3551
 7694TIP3    H144497   2.247   5.457   5.485  1.4257 -0.0170 -0.2059
 7694TIP3    H244498   2.273   5.579   5.571 -0.3183 -0.2480  0.7018
 7695TIP3   OH244499   5.194   1.234   4.454 -0.1924  0.8886 -0.3813
 7695TIP3    H144500   5.228   1.245   4.543 -1.0654  0.9815 -0.0507
 7695TIP3    H244501   5.201   1.140   4.438 -2.5086  0.4250  0.8461
 7696TIP3   OH244502   2.305   6.112  16.494 -0.1090 -0.1288 -0.6459
 7696TIP3    H144503   2.305   6.017  16.507  0.8403 -0.3020 -1.7308
 7696TIP3    H244504   2.252   6.146  16.567  0.5655 -1.3831  0.4876
 7697TIP3   OH244505   2.358   2.552   5.757  0.1719 -0.0378 -0.7639
 7697TIP3    H144506   2.446   2.560   5.794  0.5750  0.3899 -1.7840
 7697TIP3    H244507   2.372   2.516   5.669 -0.5603  1.1282 -1.3847
 7698TIP3   OH244508   1.426   1.663  17.221 -0.1445  0.0063 -0.1734
 7698TIP3    H144509   1.476   1.601  17.275 -1.2137 -0.2097  0.6087
 7698TIP3    H244510   1.347   1.681  17.273 -0.6213  0.7535 -1.1307
 7699TIP3   OH244511   1.350   6.148   2.009 -0.0270  0.1910 -0.3674
 7699TIP3    H144512   1.350   6.234   1.967 -0.6429  0.1059 -0.5667
 7699TIP3    H244513   1.367   6.087   1.937  0.7135  0.1608 -0.1739
 7700TIP3   OH244514   1.281   3.227   0.676 -0.0753 -0.0681 -0.6941
 7700TIP3    H144515   1.220   3.227   0.751  2.1010 -1.0396  1.1912
 7700TIP3    H244516   1.284   3.136   0.647  2.3514 -0.5991  0.9550
 7701TIP3   OH244517   4.785   6.347  16.213 -0.1918 -0.0542  0.4866
 7701TIP3    H144518   4.775   6.401  16.291  4.1623  1.0649  0.5567
 7701TIP3    H244519   4.851   6.282  16.238  0.1018 -0.7099 -1.7761
 7702TIP3   OH244520   6.528   6.487  16.994  0.1437  0.1597  0.0923
 7702TIP3    H144521   6.611   6.530  17.011  1.2077 -1.8470  0.2440
 7702TIP3    H244522   6.473   6.510  17.069  1.5179 -0.7158  1.4240
 7703TIP3   OH244523   5.203   4.286  16.195 -0.2273  0.3844  0.3449
 7703TIP3    H144524   5.226   4.364  16.145 -0.7548 -1.5012 -3.1113
 7703TIP3    H244525   5.110   4.273  16.178 -0.0661 -1.1852  0.5249
 7704TIP3   OH244526   1.614   0.073   1.720 -0.4498  0.3736 -0.2470
 7704TIP3    H144527   1.555   0.009   1.680  0.0644 -0.5942  0.5040
 7704TIP3    H244528   1.589   0.076   1.812 -0.4846  1.2843 -0.2813
 7705TIP3   OH244529   2.584   3.229   2.611  0.0817 -0.5185 -0.6099
 7705TIP3    H144530   2.501   3.184   2.627  0.7313 -1.0337  1.5446
 7705TIP3    H244531   2.615   3.254   2.698  1.5379  0.8602 -1.4886
 7706TIP3   OH244532   1.566   0.631  17.154 -0.1858  0.1279 -0.6559
 7706TIP3    H144533   1.577   0.577  17.233  1.2155 -0.6069 -1.3063
 7706TIP3    H244534   1.614   0.711  17.173 -0.9112  0.4768 -0.2903
 7707TIP3   OH244535   1.612   4.426  14.656  0.2386  0.0496 -0.0435
 7707TIP3    H144536   1.593   4.332  14.649 -0.7299  0.1103  1.4038
 7707TIP3    H244537   1.674   4.432  14.728  1.1445  0.4431 -0.8368
 7708TIP3   OH244538   4.310   6.010  13.156  0.6112 -0.1054  0.7264
 7708TIP3    H144539   4.258   6.087  13.134  0.0664 -0.4732  0.7160
 7708TIP3    H244540   4.387   6.017  13.100  0.0071 -0.1755 -0.1405
 7709TIP3   OH244541   3.649   0.291  12.817  0.2584  0.1554  0.5018
 7709TIP3    H144542   3.626   0.214  12.764 -1.7903  1.0682 -0.0402
 7709TIP3    H244543   3.671   0.255  12.903 -2.0135 -0.9997  0.6739
 7710TIP3   OH244544   0.110   4.620   5.258 -0.1300  0.0600  0.1919
 7710TIP3    H144545   0.032   4.675   5.258 -1.2971 -1.4966 -0.8195
 7710TIP3    H244546   0.137   4.616   5.350  0.7002  3.1590  0.1770
 7711TIP3   OH244547   3.925   1.903   1.327  0.4198  0.4919  0.2065
 7711TIP3    H144548   3.834   1.929   1.315 -0.0480 -1.3587 -0.4555
 7711TIP3    H244549   3.942   1.919   1.419 -0.4558  1.1713  0.2673
 7712TIP3   OH244550   4.353   3.907  13.089 -0.1302 -0.5900  0.2910
 7712TIP3    H144551   4.422   3.843  13.074 -0.4429 -0.7788 -0.3796
 7712TIP3    H244552   4.328   3.895  13.181  0.9024 -0.3400  0.6158
 7713TIP3   OH244553   1.465   5.733   3.786  0.0308 -0.1513 -0.2485
 7713TIP3    H144554   1.394   5.798   3.787 -0.6241 -0.8317 -1.2705
 7713TIP3    H244555   1.499   5.734   3.875 -1.1753  0.2880  0.2292
 7714TIP3   OH244556   3.589   3.101   3.349 -0.5635  0.1401  0.1425
 7714TIP3    H144557   3.633   3.078   3.268 -0.2621 -0.0779  0.3641
 7714TIP3    H244558   3.648   3.071   3.418  0.1897  2.1994  0.4631
 7715TIP3   OH244559   3.119   5.270  13.138 -0.9241  0.4948 -0.1901
 7715TIP3    H144560   3.199   5.240  13.180 -1.4707 -0.4873  0.1787
 7715TIP3    H244561   3.147   5.305  13.054 -0.0882  0.4049  0.0454
 7716TIP3   OH244562   0.385   6.547   1.462  0.0468  0.1136 -0.2958
 7716TIP3    H144563   0.345   6.634   1.460 -1.1700 -0.3555  1.4869
 7716TIP3    H244564   0.458   6.556   1.524 -1.5083 -0.6355  1.7479
 7717TIP3   OH244565   5.357   5.345  16.429  0.2224  0.0575  0.2899
 7717TIP3    H144566   5.365   5.273  16.492 -3.3886  0.2847  1.2663
 7717TIP3    H244567   5.346   5.423  16.484  1.0881  0.9041 -0.7091
 7718TIP3   OH244568   5.438   5.643   3.865  0.3442  0.4711 -0.1306
 7718TIP3    H144569   5.501   5.580   3.831 -0.3642  0.2503 -1.0669
 7718TIP3    H244570   5.490   5.721   3.885  1.3523 -0.6105  1.7421
 7719TIP3   OH244571   0.479   5.671   2.692 -0.1305  0.3575  0.3069
 7719TIP3    H144572   0.430   5.696   2.614 -0.8669 -1.8453 -0.0070
 7719TIP3    H244573   0.563   5.638   2.658  0.2888  1.0805  0.6098
 7720TIP3   OH244574   2.737   2.278   5.284  0.4262 -0.0667  0.0085
 7720TIP3    H144575   2.734   2.359   5.336  0.4865 -0.3694  0.4904
 7720TIP3    H244576   2.785   2.216   5.339 -0.9844 -0.9150  0.3440
 7721TIP3   OH244577   2.012   1.472  11.004  0.1184 -0.6375  0.6723
 7721TIP3    H144578   1.996   1.412  10.931  0.1877 -0.0920  0.2089
 7721TIP3    H244579   2.086   1.526  10.975  0.4508 -0.7289  1.3332
 7722TIP3   OH244580   2.036   4.558   2.580  0.4433  0.0697  0.8295
 7722TIP3    H144581   2.089   4.489   2.619  0.0400 -0.5762  0.2429
 7722TIP3    H244582   1.946   4.534   2.601  0.3000  0.4127  0.6077
 7723TIP3   OH244583   2.604   4.920   3.746  0.6247  0.4359 -0.4254
 7723TIP3    H144584   2.568   4.981   3.810  1.4519  0.4993 -0.0098
 7723TIP3    H244585   2.647   4.853   3.799 -1.1320 -1.0875 -0.8296
 7724TIP3   OH244586   5.666   5.672   4.818 -0.0078  0.5496  0.7361
 7724TIP3    H144587   5.602   5.707   4.880 -0.0520 -0.3523  1.2126
 7724TIP3    H244588   5.750   5.677   4.863  0.2656  1.6601  0.1389
 7725TIP3   OH244589   5.969   0.261   3.576 -0.0355 -0.8968  0.7205
 7725TIP3    H144590   6.059   0.261   3.608  0.5440 -0.0509 -0.8419
 7725TIP3    H244591   5.916   0.261   3.656  1.3340 -1.1726  1.6616
 7726TIP3   OH244592   4.606   3.925   5.148  0.1850  0.2842 -0.3426
 7726TIP3    H144593   4.586   3.949   5.057  2.2236  1.0415 -0.6509
 7726TIP3    H244594   4.615   4.009   5.193  2.3238  0.0513 -0.2292
 7727TIP3   OH244595   3.527   3.107   0.078 -0.0620 -0.2510  0.6681
 7727TIP3    H144596   3.520   3.013   0.092  1.9805 -0.4151  0.9883
 7727TIP3    H244597   3.502   3.146   0.161  1.5223 -0.6758  1.3781
 7728TIP3   OH244598   1.000   6.385  10.711  0.2642  0.3940  0.1875
 7728TIP3    H144599   1.058   6.458  10.735  0.1158  1.1126 -1.4661
 7728TIP3    H244600   1.000   6.385  10.615 -1.8823 -0.0519  0.1227
 7729TIP3   OH244601   2.748   5.145   3.710  0.6520 -0.2251  0.3148
 7729TIP3    H144602   2.820   5.131   3.649  0.0994 -0.0774 -0.3951
 7729TIP3    H244603   2.698   5.064   3.708  0.9172 -0.4029  0.9637
 7730TIP3   OH244604   5.121   3.867  12.270  0.4182 -0.3217  0.0665
 7730TIP3    H144605   5.169   3.859  12.353  1.1565  0.0809 -0.3140
 7730TIP3    H244606   5.065   3.943  12.283 -4.1128 -3.6051  2.4438
 7731TIP3   OH244607   3.701   4.147  17.082 -0.2640  0.4738  0.7550
 7731TIP3    H144608   3.635   4.216  17.092 -0.6302  0.4047 -0.9892
 7731TIP3    H244609   3.785   4.192  17.090 -0.4982  1.2015 -0.6599
 7732TIP3   OH244610   1.891   5.304   3.622 -0.0733 -0.2304  0.0023
 7732TIP3    H144611   1.966   5.363   3.632 -0.5722  0.3635  0.2098
 7732TIP3    H244612   1.814   5.359   3.634 -0.5711 -0.7099 -0.8539
 7733TIP3   OH244613   3.422   2.460  12.370 -0.5265 -0.6329 -0.2104
 7733TIP3    H144614   3.512   2.485  12.353 -1.2386  0.9047 -2.1126
 7733TIP3    H244615   3.421   2.365  12.358  1.1168 -0.9233  1.4982
 7734TIP3   OH244616   1.893   4.590   5.461 -0.3330 -0.6559  0.1053
 7734TIP3    H144617   1.970   4.533   5.460  0.4000  0.2671  1.2567
 7734TIP3    H244618   1.850   4.573   5.377 -0.2593 -3.0123  0.4799
 7735TIP3   OH244619   1.120   3.589  17.172 -0.4132  0.6678 -0.5665
 7735TIP3    H144620   1.044   3.643  17.150 -1.2707 -0.6768 -1.0853
 7735TIP3    H244621   1.089   3.499  17.159  0.4724 -0.0371  1.7075
 7736TIP3   OH244622   2.507   4.671  14.785  0.5889  0.3330 -0.1453
 7736TIP3    H144623   2.505   4.731  14.710  1.7162  0.6105  0.0308
 7736TIP3    H244624   2.550   4.592  14.751  0.9691  0.4047  0.1601
 7737TIP3   OH244625   1.645   5.804  11.286 -0.4538  0.0177 -0.5108
 7737TIP3    H144626   1.619   5.818  11.377 -1.6691 -2.3211 -0.4115
 7737TIP3    H244627   1.709   5.873  11.268  0.1660  0.2733  2.2402
 7738TIP3   OH244628   0.413   3.712   3.072 -0.0847  0.0997  0.9439
 7738TIP3    H144629   0.355   3.645   3.109 -0.5718  0.6861  1.2561
 7738TIP3    H244630   0.477   3.729   3.140  0.6355 -0.7388  0.5012
 7739TIP3   OH244631   4.888   2.208  11.482  0.1416 -0.3368 -0.2250
 7739TIP3    H144632   4.911   2.133  11.428  0.1589  1.8397 -3.5138
 7739TIP3    H244633   4.967   2.227  11.533  1.0961 -0.8911 -1.4523
 7740TIP3   OH244634   0.527   2.475  12.193 -0.6116  0.2277  0.6268
 7740TIP3    H144635   0.586   2.401  12.180 -0.1129  0.6913  0.2039
 7740TIP3    H244636   0.578   2.552  12.167 -1.0061  0.7611  1.3616
 7741TIP3   OH244637   1.604   1.827  12.306 -0.7629 -0.0233 -0.4331
 7741TIP3    H144638   1.659   1.795  12.377 -1.0222 -1.8827 -1.0090
 7741TIP3    H244639   1.546   1.891  12.347 -1.0838 -1.2289  1.1110
 7742TIP3   OH244640   2.203   3.566   3.887 -0.3134  0.3919  0.0635
 7742TIP3    H144641   2.282   3.567   3.941 -0.5429 -0.0348  0.4097
 7742TIP3    H244642   2.186   3.658   3.868  0.9941  0.4251 -1.0967
 7743TIP3   OH244643   4.882   1.169  16.643 -0.4937  0.1816 -0.2539
 7743TIP3    H144644   4.819   1.124  16.700 -0.3145 -1.6130 -1.4146
 7743TIP3    H244645   4.927   1.230  16.702 -0.4922 -1.3948  1.4722
 7744TIP3   OH244646   0.503   5.908   5.556 -0.2528  0.5846 -0.5940
 7744TIP3    H144647   0.468   5.997   5.562  0.5827  0.9911 -1.3836
 7744TIP3    H244648   0.557   5.909   5.477  0.4571 -0.3783 -0.1481
 7745TIP3   OH244649   2.711   6.594  14.577  0.3767 -0.7541 -0.3957
 7745TIP3    H144650   2.767   6.577  14.501  0.8526  0.8811 -0.4338
 7745TIP3    H244651   2.627   6.552  14.555  1.0675 -1.8553 -1.0167
 7746TIP3   OH244652   3.197   2.233  16.920  0.0902 -0.3761 -0.1690
 7746TIP3    H144653   3.148   2.290  16.978 -1.5917 -0.6104 -1.2978
 7746TIP3    H244654   3.266   2.197  16.975 -0.7476  0.2912  1.3806
 7747TIP3   OH244655   0.077   5.864   1.939 -0.6057 -0.0477 -0.1635
 7747TIP3    H144656   0.167   5.835   1.924 -0.1185  1.3017  0.0160
 7747TIP3    H244657   0.043   5.884   1.852 -0.8688 -0.8761 -0.2657
 7748TIP3   OH244658   1.325   3.161  10.718  0.3635 -0.0148 -0.4920
 7748TIP3    H144659   1.405   3.111  10.733  0.9207  0.7500 -0.8605
 7748TIP3    H244660   1.310   3.206  10.801  0.2735 -0.2096 -0.4015
 7749TIP3   OH244661   3.869   0.409  13.401 -0.2441 -0.0040 -0.5962
 7749TIP3    H144662   3.900   0.394  13.312  1.3902  0.0539 -0.0677
 7749TIP3    H244663   3.857   0.504  13.406 -1.7994 -0.1389 -1.1808
 7750TIP3   OH244664   3.362   0.847  15.356  0.4435  0.1352 -0.2176
 7750TIP3    H144665   3.451   0.871  15.329  0.8067 -1.7142 -0.7989
 7750TIP3    H244666   3.366   0.753  15.369 -1.2246  0.1594  0.6586
 7751TIP3   OH244667   1.769   5.966  14.140 -0.0514 -0.4805 -0.1206
 7751TIP3    H144668   1.843   6.021  14.165 -0.8686 -0.6527  3.0307
 7751TIP3    H244669   1.802   5.877  14.148 -0.5309 -0.5576  1.2919
 7752TIP3   OH244670   2.996   3.602  12.217  0.0374  0.1590  0.4266
 7752TIP3    H144671   3.004   3.661  12.292 -2.0312  1.7011 -0.4766
 7752TIP3    H244672   2.927   3.541  12.242  0.9767 -0.8238  0.6728
 7753TIP3   OH244673   3.048   2.412  13.879  0.1759 -0.3895  0.0665
 7753TIP3    H144674   3.037   2.373  13.792  1.3329  1.8407 -1.1849
 7753TIP3    H244675   3.136   2.386  13.906  0.2940 -0.0735 -0.0065
 7754TIP3   OH244676   0.188   2.817   4.944  0.2526  0.5566  0.5093
 7754TIP3    H144677   0.110   2.856   4.984 -0.2949 -0.5473  0.5623
 7754TIP3    H244678   0.154   2.761   4.874  1.1161  1.3494 -0.5826
 7755TIP3   OH244679   5.325   4.135  11.057 -0.5566  0.2921 -0.4705
 7755TIP3    H144680   5.344   4.171  11.144  1.3546 -0.0584 -0.6918
 7755TIP3    H244681   5.380   4.057  11.051 -2.1007 -0.7879 -1.3004
 7756TIP3   OH244682   5.209   2.751  11.860  1.1207 -0.0235  0.2728
 7756TIP3    H144683   5.241   2.816  11.923  1.0577  0.8327 -0.5449
 7756TIP3    H244684   5.116   2.771  11.851  0.7788 -1.1856  1.1122
 7757TIP3   OH244685   4.771   2.729   1.750 -0.3588 -0.3736  0.6147
 7757TIP3    H144686   4.716   2.744   1.673 -0.5967 -1.2953  0.5900
 7757TIP3    H244687   4.833   2.662   1.722  0.3434  0.1622  0.8589
 7758TIP3   OH244688   0.739   1.553   4.518 -1.0046 -0.1791  0.2954
 7758TIP3    H144689   0.739   1.514   4.605 -0.1625  1.7468  1.2209
 7758TIP3    H244690   0.827   1.589   4.507 -1.2073 -0.0579 -1.2109
 7759TIP3   OH244691   0.323   4.712   1.605 -0.4591  0.4316 -0.1821
 7759TIP3    H144692   0.417   4.705   1.622 -0.3444 -0.2182 -1.0420
 7759TIP3    H244693   0.301   4.632   1.556 -2.1274 -1.1873  2.8885
 7760TIP3   OH244694   1.537   6.096   0.296 -0.3340  0.3807 -0.6440
 7760TIP3    H144695   1.534   6.035   0.370 -0.5071 -0.1163 -1.0585
 7760TIP3    H244696   1.522   6.182   0.336 -1.7265 -0.0117 -0.2396
 7761TIP3   OH244697   4.747   6.115   2.000 -0.3995  0.0326  0.5099
 7761TIP3    H144698   4.810   6.183   2.024 -0.3478 -0.3288  1.4338
 7761TIP3    H244699   4.716   6.141   1.913  3.4045 -1.4708 -1.5388
 7762TIP3   OH244700   2.745   5.791  14.515 -0.5150  0.0498 -0.0941
 7762TIP3    H144701   2.709   5.819  14.431 -0.9702 -0.1411  0.0356
 7762TIP3    H244702   2.670   5.791  14.575 -0.4722 -1.1859 -0.0266
 7763TIP3   OH244703   0.500   2.199  17.194 -0.0598 -0.2530 -1.1899
 7763TIP3    H144704   0.458   2.225  17.275 -0.3493  1.6937 -1.9162
 7763TIP3    H244705   0.583   2.161  17.221 -0.5453 -0.4680  0.0503
 7764TIP3   OH244706   0.239   4.692  15.755 -0.4223  0.3786 -0.0032
 7764TIP3    H144707   0.313   4.701  15.815 -0.7506  1.9370  0.1961
 7764TIP3    H244708   0.193   4.775  15.760 -1.2893  0.0132 -1.3359
 7765TIP3   OH244709   4.136   3.737   5.474 -0.2015 -0.1958  0.2998
 7765TIP3    H144710   4.078   3.715   5.402 -0.4489  0.2539  0.3571
 7765TIP3    H244711   4.106   3.682   5.547  0.3551 -1.0026 -0.0668
 7766TIP3   OH244712   1.476   0.083   4.637 -0.7264  0.3271 -0.0756
 7766TIP3    H144713   1.553   0.027   4.654 -0.1916  1.0173 -0.1779
 7766TIP3    H244714   1.477   0.095   4.542  0.3883  2.2046  0.1361
 7767TIP3   OH244715   6.163   1.788  13.050 -0.0214  0.5448  0.6209
 7767TIP3    H144716   6.116   1.779  13.133 -0.3785  0.1696  0.3871
 7767TIP3    H244717   6.098   1.826  12.990 -0.4398 -1.0965 -0.0278
 7768TIP3   OH244718   0.667   4.642   2.933  0.0694 -0.0304 -0.1872
 7768TIP3    H144719   0.735   4.639   3.000  0.7383 -0.0120 -0.8564
 7768TIP3    H244720   0.656   4.551   2.906 -1.2423 -0.2594  0.9454
 7769TIP3   OH244721   2.567   4.520  16.779  0.7698 -0.8618  0.2214
 7769TIP3    H144722   2.649   4.562  16.752  0.3434  0.3305  0.6871
 7769TIP3    H244723   2.532   4.579  16.847 -0.5166 -1.3045 -0.0362
 7770TIP3   OH244724   4.777   4.365  12.536  0.3225 -0.4636  0.2942
 7770TIP3    H144725   4.718   4.292  12.522 -0.1577  0.0426 -0.4063
 7770TIP3    H244726   4.858   4.325  12.566 -0.0093 -1.2552  0.1647
 7771TIP3   OH244727   6.650   6.362   2.340 -0.2130 -1.0494  0.0162
 7771TIP3    H144728   6.641   6.287   2.399 -2.9576 -0.1968  0.8306
 7771TIP3    H244729   6.566   6.408   2.347  1.8978  3.1219  0.9291
 7772TIP3   OH244730   0.342   1.950   4.206  0.0047  0.3064 -0.1792
 7772TIP3    H144731   0.391   1.869   4.219  0.6720  0.5898 -0.8811
 7772TIP3    H244732   0.347   1.994   4.291 -0.3915 -0.3818  0.2208
 7773TIP3   OH244733   2.657   4.968   1.981 -0.3118  0.0336 -0.0611
 7773TIP3    H144734   2.652   4.908   2.055 -0.0933  0.8245  0.6164
 7773TIP3    H244735   2.636   5.054   2.019 -1.5978  0.2546 -1.1807
 7774TIP3   OH244736   6.655   5.536  15.508 -0.0118 -0.2018 -0.0833
 7774TIP3    H144737   6.560   5.540  15.500  0.0675  0.0450 -1.1027
 7774TIP3    H244738   6.674   5.574  15.594 -0.9058 -1.4487  0.6936
 7775TIP3   OH244739   2.787   6.288  16.418  0.1806  0.2308  0.1363
 7775TIP3    H144740   2.734   6.255  16.490 -1.0175  2.0637  0.1675
 7775TIP3    H244741   2.872   6.245  16.429 -1.0897 -2.4330  0.3562
 7776TIP3   OH244742   6.486   5.479   3.169 -0.3180  0.3267  0.2758
 7776TIP3    H144743   6.499   5.497   3.076 -0.6068  2.6042  0.6138
 7776TIP3    H244744   6.553   5.532   3.213 -0.1730 -0.7426  1.3733
 7777TIP3   OH244745   5.563   1.330   3.791  0.1991 -0.3080 -0.2311
 7777TIP3    H144746   5.542   1.260   3.853 -0.6341 -0.7926 -1.0321
 7777TIP3    H244747   5.491   1.328   3.728 -0.5565  2.1199  0.4264
 7778TIP3   OH244748   1.758   0.818   4.508  0.0429 -0.0539 -0.2844
 7778TIP3    H144749   1.813   0.872   4.452 -0.5202  0.1255 -0.6808
 7778TIP3    H244750   1.675   0.810   4.459 -1.1740  1.7026  1.3313
 7779TIP3   OH244751   3.549   4.310  12.335  0.1411  0.1576  0.1023
 7779TIP3    H144752   3.497   4.230  12.331  1.2713 -0.5808 -0.3372
 7779TIP3    H244753   3.519   4.354  12.415  1.7892 -2.3658  2.3069
 7780TIP3   OH244754   6.014   4.436  11.795  0.3015 -0.4756  0.1015
 7780TIP3    H144755   6.005   4.348  11.758 -0.9142 -0.4255  0.2420
 7780TIP3    H244756   6.085   4.428  11.859  1.8757 -0.7628 -1.5817
 7781TIP3   OH244757   0.985   3.434   1.199  0.3858 -0.5346 -0.0295
 7781TIP3    H144758   1.070   3.470   1.172 -0.6315  0.8157 -1.6663
 7781TIP3    H244759   0.967   3.476   1.283  0.9665 -0.2003 -0.0608
 7782TIP3   OH244760   5.485   6.509  15.668 -0.5760  0.4255 -0.5781
 7782TIP3    H144761   5.561   6.480  15.719  0.7459  2.1783 -1.4272
 7782TIP3    H244762   5.449   6.428  15.631  0.5553 -0.5133  0.2716
 7783TIP3   OH244763   1.132   5.147   1.850  0.4897  0.1449 -0.2442
 7783TIP3    H144764   1.220   5.165   1.884  0.1809  2.1021 -0.3588
 7783TIP3    H244765   1.086   5.104   1.922  0.6653  1.8053  0.9157
 7784TIP3   OH244766   2.944   5.046  13.001  0.0362 -0.1362 -0.0044
 7784TIP3    H144767   3.006   5.112  13.031  1.0202 -0.6199 -0.9118
 7784TIP3    H244768   2.962   4.970  13.056 -0.6228  0.1247  0.5770
 7785TIP3   OH244769   1.040   0.312   0.680  0.1976  0.2853  0.3560
 7785TIP3    H144770   1.065   0.333   0.590 -0.5190  0.3259  0.1589
 7785TIP3    H244771   1.021   0.218   0.678 -1.8695  0.6591 -0.0579
 7786TIP3   OH244772   2.938   2.948   5.585 -0.0196  0.0023 -0.1955
 7786TIP3    H144773   2.899   2.936   5.499 -0.0852 -0.5046 -0.0997
 7786TIP3    H244774   3.021   2.899   5.581  1.8665  2.9848 -1.1975
 7787TIP3   OH244775   0.879   4.564  12.158  0.2342  0.3359 -0.2445
 7787TIP3    H144776   0.899   4.471  12.169 -0.5068  0.1479 -0.4634
 7787TIP3    H244777   0.798   4.577  12.207  1.1769  1.2239  1.1568
 7788TIP3   OH244778   4.773   2.076   5.074 -0.0856 -0.0868  0.3805
 7788TIP3    H144779   4.851   2.074   5.018 -0.6481 -0.5052 -0.4012
 7788TIP3    H244780   4.770   2.166   5.107  0.7121 -0.0571  0.4090
 7789TIP3   OH244781   1.995   6.115   1.984  0.0100  0.1285  0.1536
 7789TIP3    H144782   1.908   6.081   2.002 -1.2734  3.5245  1.1878
 7789TIP3    H244783   2.055   6.049   2.019 -2.1241 -2.0246 -0.0421
 7790TIP3   OH244784   6.074   6.207   0.874 -0.7392 -0.1876 -0.2726
 7790TIP3    H144785   6.074   6.289   0.825 -0.6192 -0.7111 -1.1736
 7790TIP3    H244786   6.084   6.139   0.807 -0.8236 -0.9377  0.4582
 7791TIP3   OH244787   4.713   3.494   5.000 -0.0297 -0.4716 -0.1283
 7791TIP3    H144788   4.637   3.511   5.055  1.0454  1.9871  0.7782
 7791TIP3    H244789   4.680   3.498   4.910 -0.9230  1.0573  0.2360
 7792TIP3   OH244790   2.279   4.978  12.750  0.1262 -0.1218 -0.0918
 7792TIP3    H144791   2.311   4.964  12.661 -0.4871 -0.9301 -0.2018
 7792TIP3    H244792   2.277   5.073  12.761  0.4271 -0.0239 -0.8574
 7793TIP3   OH244793   6.237   3.999  14.471  0.0034  0.1780 -0.0450
 7793TIP3    H144794   6.275   3.950  14.544 -2.4056 -1.8757 -0.0404
 7793TIP3    H244795   6.214   3.932  14.407 -1.1283  1.5760 -1.1550
 7794TIP3   OH244796   3.533   6.254   0.109 -0.6598  0.3447  0.0451
 7794TIP3    H144797   3.571   6.332   0.069  0.6664 -0.8182 -1.0839
 7794TIP3    H244798   3.608   6.209   0.148 -1.7946  1.0919  3.4118
 7795TIP3   OH244799   2.710   5.201   2.147  0.5816 -0.1138  0.0098
 7795TIP3    H144800   2.629   5.223   2.193 -1.3474 -3.6199 -1.2795
 7795TIP3    H244801   2.766   5.162   2.214  0.4597  0.5932  0.5422
 7796TIP3   OH244802   1.022   3.744   4.798  0.1422  0.3277 -0.3249
 7796TIP3    H144803   0.945   3.739   4.854 -0.4031  0.9435 -0.9971
 7796TIP3    H244804   1.094   3.715   4.853 -0.5317  0.0098  0.3964
 7797TIP3   OH244805   5.187   6.046   4.337 -0.1628  0.0036 -0.2024
 7797TIP3    H144806   5.112   6.098   4.309 -0.1186 -0.5339 -1.3824
 7797TIP3    H244807   5.259   6.075   4.280  0.9518  1.5492  1.8473
 7798TIP3   OH244808   1.417   2.054  16.552  0.0782 -0.3886 -0.0019
 7798TIP3    H144809   1.372   1.976  16.521 -1.5490  0.0580  1.0864
 7798TIP3    H244810   1.404   2.052  16.647  1.3686  0.3946  0.2129
 7799TIP3   OH244811   6.666   3.647  12.139 -0.0352  0.3578  0.0832
 7799TIP3    H144812   6.642   3.717  12.199 -0.0324 -0.9578  1.6756
 7799TIP3    H244813   6.733   3.686  12.082  0.1022  1.5876  1.0552
 7800TIP3   OH244814   0.413   1.331  14.048  0.2813 -0.1900  0.5159
 7800TIP3    H144815   0.372   1.259  14.095  0.3843  0.5737  1.8331
 7800TIP3    H244816   0.499   1.298  14.022  0.0218 -0.7941  0.4134
 7801TIP3   OH244817   3.155   4.487   4.078 -0.4183 -0.2837  0.2554
 7801TIP3    H144818   3.174   4.528   4.162  0.0423  0.0945 -0.0257
 7801TIP3    H244819   3.241   4.480   4.035 -1.0179  3.2087 -1.8803
 7802TIP3   OH244820   6.510   3.324   2.038 -0.5068 -0.0137 -0.2487
 7802TIP3    H144821   6.469   3.319   1.952 -1.2495  1.8494 -0.0483
 7802TIP3    H244822   6.537   3.416   2.046  0.9040 -0.4954  0.9030
 7803TIP3   OH244823   4.668   5.779  13.572  0.0385  0.0627 -1.0561
 7803TIP3    H144824   4.602   5.813  13.511  0.7335  0.6595 -1.4860
 7803TIP3    H244825   4.640   5.813  13.657  0.1807  0.9112 -1.3406
 7804TIP3   OH244826   2.559   4.247  16.809  0.6190  0.7173 -0.0708
 7804TIP3    H144827   2.618   4.193  16.755 -0.6707  0.3641 -1.1792
 7804TIP3    H244828   2.571   4.336  16.776 -0.2945  0.4787 -1.1150
 7805TIP3   OH244829   5.926   1.070  15.913  0.5278  0.5338  0.1069
 7805TIP3    H144830   5.911   1.141  15.852 -0.4631 -0.4911 -0.8943
 7805TIP3    H244831   5.839   1.031  15.927  1.1780 -1.1398 -0.2441
 7806TIP3   OH244832   4.410   6.289  16.327  0.2759 -0.1326 -0.5035
 7806TIP3    H144833   4.416   6.218  16.390  2.4631  0.2122 -0.2579
 7806TIP3    H244834   4.406   6.245  16.242  0.0593 -0.5612 -0.2749
 7807TIP3   OH244835   1.045   2.131  15.017 -0.3413  0.3035 -0.0505
 7807TIP3    H144836   1.053   2.225  15.035 -0.4447  0.0905  1.2223
 7807TIP3    H244837   0.951   2.116  15.012 -0.3434  0.1563  0.4121
 7808TIP3   OH244838   2.851   4.279   5.587  0.0071  0.1233  0.7647
 7808TIP3    H144839   2.918   4.300   5.652  0.5422 -1.6155  0.8070
 7808TIP3    H244840   2.898   4.235   5.517 -0.5428  1.9935 -0.8982
 7809TIP3   OH244841   2.537   2.115  16.297 -0.3876 -0.3896  0.3651
 7809TIP3    H144842   2.538   2.173  16.220  0.7688 -1.7273 -0.6688
 7809TIP3    H244843   2.604   2.151  16.355 -0.2814 -0.1760  0.1126
 7810TIP3   OH244844   2.914   1.497   1.642 -0.0677 -0.0796  0.0424
 7810TIP3    H144845   2.891   1.589   1.655 -1.2131 -0.3039 -0.3026
 7810TIP3    H244846   3.003   1.489   1.677 -0.2342  0.9913  0.7328
 7811TIP3   OH244847   3.564   4.942  14.814  0.1251 -0.1467  0.2234
 7811TIP3    H144848   3.610   4.982  14.739 -0.3904  2.6246  1.2473
 7811TIP3    H244849   3.608   4.979  14.890 -0.6929 -1.2986  1.2768
 7812TIP3   OH244850   2.395   2.963   3.300  0.3128 -0.5700  0.3125
 7812TIP3    H144851   2.449   2.898   3.255  0.9179  0.9653 -1.3398
 7812TIP3    H244852   2.310   2.922   3.309  0.4672 -1.3606 -1.3542
 7813TIP3   OH244853   1.573   4.938   1.168 -0.3119 -0.2207  0.0711
 7813TIP3    H144854   1.541   4.919   1.256 -0.4465  1.0490  0.3198
 7813TIP3    H244855   1.501   4.985   1.126 -1.0140 -2.4968 -1.4237
 7814TIP3   OH244856   1.477   0.802  11.164 -0.0276  0.4450  0.1271
 7814TIP3    H144857   1.391   0.844  11.164  0.1322  0.7767  0.1442
 7814TIP3    H244858   1.468   0.728  11.224 -0.4549  0.1513 -0.2889
 7815TIP3   OH244859   2.774   1.898   4.142 -0.5453  0.1226 -0.5813
 7815TIP3    H144860   2.691   1.898   4.189  0.3068  0.9025  0.9948
 7815TIP3    H244861   2.841   1.901   4.211  0.7832 -0.0147 -1.8193
 7816TIP3   OH244862   2.142   5.142   5.244  0.0750  0.0239  0.4552
 7816TIP3    H144863   2.067   5.125   5.187  0.8024  2.0305 -1.2802
 7816TIP3    H244864   2.217   5.146   5.184  0.8416  2.5115  1.4459
 7817TIP3   OH244865   2.444   0.419   5.595 -0.0118  0.3224 -0.3090
 7817TIP3    H144866   2.401   0.366   5.662  2.2893 -0.2573  0.7967
 7817TIP3    H244867   2.430   0.509   5.623 -1.7394  0.2383 -0.7979
 7818TIP3   OH244868   5.505   2.352   6.331  0.3882 -0.0632  0.0681
 7818TIP3    H144869   5.553   2.324   6.409 -1.0314  0.6637  1.2448
 7818TIP3    H244870   5.446   2.420   6.362  0.0128  0.4823 -1.7228
 7819TIP3   OH244871   2.995   5.446  12.270  0.6890  0.1348  0.0466
 7819TIP3    H144872   3.004   5.517  12.207  0.6467  0.3375  0.2684
 7819TIP3    H244873   3.010   5.487  12.356  0.5539 -0.0984  0.1850
 7820TIP3   OH244874   3.922   2.658  15.987 -0.8854 -0.4776  0.3251
 7820TIP3    H144875   3.838   2.700  16.007  0.0160  1.0904  0.9090
 7820TIP3    H244876   3.948   2.696  15.903  0.1532  0.5236  1.0765
 7821TIP3   OH244877   1.347   1.083  15.199 -0.0832  0.5142 -0.5412
 7821TIP3    H144878   1.441   1.092  15.211 -0.0215 -0.7896  0.2070
 7821TIP3    H244879   1.311   1.087  15.288 -0.5894 -0.2417 -0.6946
 7822TIP3   OH244880   6.038   0.409   5.579  0.3442  0.2011  0.6203
 7822TIP3    H144881   6.096   0.412   5.655  0.2915 -0.7979  0.7037
 7822TIP3    H244882   6.081   0.464   5.514  1.0468  0.0132  0.9177
 7823TIP3   OH244883   4.847   6.112  11.777 -0.2541  0.1499  0.3598
 7823TIP3    H144884   4.762   6.067  11.772 -0.1884 -0.2696  2.3878
 7823TIP3    H244885   4.828   6.202  11.751 -1.0004 -0.2800 -0.6852
 7824TIP3   OH244886   3.621   1.473   3.690  0.3987 -0.0053  0.1990
 7824TIP3    H144887   3.618   1.395   3.634 -0.4392  0.4162 -0.3663
 7824TIP3    H244888   3.620   1.438   3.779 -1.3656 -0.6224 -0.0332
 7825TIP3   OH244889   2.735   4.134   1.894  0.4797 -0.0542  0.2016
 7825TIP3    H144890   2.779   4.054   1.866 -1.2603 -0.2344 -2.3372
 7825TIP3    H244891   2.645   4.107   1.910 -0.0040  1.2766 -0.1783
 7826TIP3   OH244892   5.096   3.929  16.873  0.5114  0.4784  0.1348
 7826TIP3    H144893   5.132   3.898  16.789 -1.7851 -0.8697 -0.4380
 7826TIP3    H244894   5.054   3.851  16.910  1.3026  1.0999  2.4910
 7827TIP3   OH244895   0.970   1.129   4.107  0.0437 -0.2787  0.4395
 7827TIP3    H144896   1.001   1.039   4.115 -0.2039 -0.5315 -1.1104
 7827TIP3    H244897   0.878   1.120   4.084  0.0840  0.3726  0.0198
 7828TIP3   OH244898   0.684   3.409  15.626  0.0543 -0.1212 -0.3352
 7828TIP3    H144899   0.703   3.334  15.682 -0.8728 -0.3651 -0.3298
 7828TIP3    H244900   0.624   3.375  15.560 -2.8132  1.2350  1.3975
 7829TIP3   OH244901   1.614   3.319  11.843 -0.0923  0.1315 -0.2648
 7829TIP3    H144902   1.619   3.348  11.752 -1.0363 -0.1339 -0.4088
 7829TIP3    H244903   1.705   3.302  11.868  0.0310 -2.0109 -1.8842
 7830TIP3   OH244904   0.026   2.746   4.491 -0.4098 -0.1763  0.1938
 7830TIP3    H144905  -0.001   2.827   4.533  1.3559  1.1700 -1.1222
 7830TIP3    H244906  -0.052   2.717   4.443 -0.7498  1.3972 -0.2620
 7831TIP3   OH244907   5.340   4.898  10.905  0.1811 -0.4511 -0.5567
 7831TIP3    H144908   5.312   4.979  10.861  1.5607 -0.4401 -1.5084
 7831TIP3    H244909   5.434   4.912  10.920  0.3482 -1.7211 -0.3760
 7832TIP3   OH244910   3.338   6.571   1.177  0.0076 -0.0921 -0.0495
 7832TIP3    H144911   3.389   6.639   1.219 -1.6009  1.6028 -0.6692
 7832TIP3    H244912   3.255   6.570   1.225 -1.0840  0.4618 -1.8117
 7833TIP3   OH244913   3.737   4.179  13.453  0.8125 -0.5837  0.3581
 7833TIP3    H144914   3.811   4.127  13.420 -0.0207 -0.2525 -2.2935
 7833TIP3    H244915   3.660   4.126  13.433  0.0426  1.0134 -1.2274
 7834TIP3   OH244916   2.186   3.915   2.592 -0.2613  0.3346 -0.5114
 7834TIP3    H144917   2.108   3.971   2.587 -0.4010  0.0583 -1.5967
 7834TIP3    H244918   2.243   3.959   2.655 -1.3394  0.4805  0.3801
 7835TIP3   OH244919   6.022   2.591   3.433 -0.3007  0.7070  0.8413
 7835TIP3    H144920   6.084   2.609   3.503  3.1270  1.2685 -2.0856
 7835TIP3    H244921   6.031   2.665   3.372 -1.8528 -0.5431 -1.0493
 7836TIP3   OH244922   3.973   3.537  17.050  0.0923 -0.4431 -0.0669
 7836TIP3    H144923   4.060   3.536  17.009 -0.6606  1.5273 -1.9624
 7836TIP3    H244924   3.990   3.553  17.143  1.7555  0.7333 -0.5263
 7837TIP3   OH244925   0.740   6.549  16.270 -0.6928 -0.1931  0.0110
 7837TIP3    H144926   0.788   6.605  16.210 -2.2203 -0.7801 -1.8698
 7837TIP3    H244927   0.725   6.603  16.347  2.0117  0.3193  0.2713
 7838TIP3   OH244928   1.678   0.777  14.565  0.5483  0.1274  0.3220
 7838TIP3    H144929   1.708   0.692  14.596 -0.7271 -0.8873 -1.0878
 7838TIP3    H244930   1.582   0.772  14.571  0.1833 -0.0567 -3.2964
 7839TIP3   OH244931   6.156   1.708  12.127  0.3544  0.0179 -0.5011
 7839TIP3    H144932   6.071   1.666  12.138 -0.1628  1.0463 -0.4328
 7839TIP3    H244933   6.152   1.749  12.041  1.0609 -0.5194 -0.8061
 7840TIP3   OH244934   1.182   0.560   3.540 -0.2459 -0.6696 -0.1215
 7840TIP3    H144935   1.202   0.472   3.572  0.0169 -0.4305  0.3812
 7840TIP3    H244936   1.127   0.598   3.608 -1.5080 -0.9140 -0.9631
 7841TIP3   OH244937   3.124   0.387   3.527 -0.5737  0.1314 -0.2865
 7841TIP3    H144938   3.084   0.342   3.452 -2.1228 -0.8818  1.0649
 7841TIP3    H244939   3.189   0.325   3.561  1.3004  1.2349 -1.6729
 7842TIP3   OH244940   2.006   2.758  15.213  0.0906  0.0154  0.4354
 7842TIP3    H144941   1.989   2.675  15.168 -1.5581  0.4364  0.2247
 7842TIP3    H244942   1.943   2.760  15.285  0.0307  1.1303  0.3730
 7843TIP3   OH244943   5.942   5.163   6.190 -0.3277 -0.1310 -0.5083
 7843TIP3    H144944   5.859   5.193   6.228  1.0953  1.8941  1.2618
 7843TIP3    H244945   5.974   5.097   6.253 -0.0466 -0.0295 -0.5436
 7844TIP3   OH244946   3.003   2.208   0.554  0.1573  0.0031  0.5743
 7844TIP3    H144947   2.945   2.150   0.504  0.0393 -0.4854  1.2710
 7844TIP3    H244948   3.053   2.255   0.487 -0.7193  0.1024 -0.0324
 7845TIP3   OH244949   0.761   3.624  14.730  0.5726 -0.2983 -0.5885
 7845TIP3    H144950   0.809   3.610  14.812 -0.1396  2.4742  0.4238
 7845TIP3    H244951   0.727   3.537  14.707  0.6379 -1.1710  2.1797
 7846TIP3   OH244952   3.741   1.082  15.577  0.0528  0.5807  0.0800
 7846TIP3    H144953   3.825   1.051  15.609  0.1184 -0.7589 -1.2831
 7846TIP3    H244954   3.761   1.128  15.496 -0.5602 -0.2070 -0.5386
 7847TIP3   OH244955   3.737   3.515  14.792 -0.2968  0.6278 -0.0206
 7847TIP3    H144956   3.722   3.436  14.739 -0.6254 -0.9854  2.3290
 7847TIP3    H244957   3.718   3.588  14.732 -2.6310 -1.0994 -1.5591
 7848TIP3   OH244958   1.449   2.981  15.063 -0.5592  0.7421  0.6169
 7848TIP3    H144959   1.445   3.056  15.123 -1.7676  0.5323  0.8257
 7848TIP3    H244960   1.480   2.908  15.118 -0.1655  0.9044  0.6095
 7849TIP3   OH244961   2.393   1.244  17.193 -0.1366 -0.6211  0.6692
 7849TIP3    H144962   2.377   1.205  17.107 -0.0338 -2.5411  1.4705
 7849TIP3    H244963   2.486   1.266  17.193 -0.8098  2.9255 -1.0061
 7850TIP3   OH244964   1.974   3.006   3.130  0.1162 -0.6162 -0.2136
 7850TIP3    H144965   1.924   3.076   3.087  2.4471  0.1144 -1.9960
 7850TIP3    H244966   2.064   3.039   3.133  1.4613 -3.6825 -1.6389
 7851TIP3   OH244967   1.527   5.105   5.414 -0.4437 -0.2188  0.4035
 7851TIP3    H144968   1.604   5.082   5.466 -0.6790 -0.0277  0.8414
 7851TIP3    H244969   1.507   5.025   5.365  0.9030  0.1555 -0.8451
 7852TIP3   OH244970   4.149   1.912  13.083  0.1031  0.2982 -0.1693
 7852TIP3    H144971   4.091   1.836  13.091  0.1629  0.4370  2.5736
 7852TIP3    H244972   4.140   1.958  13.166  1.2329  2.4923 -1.1739
 7853TIP3   OH244973   6.323   4.473  10.966 -0.1233  0.0451 -0.0688
 7853TIP3    H144974   6.356   4.415  10.898  2.2337 -1.1236  1.9091
 7853TIP3    H244975   6.313   4.558  10.922  0.7819 -0.7658 -1.9623
 7854TIP3   OH244976   5.066   0.711  11.170 -0.1407 -0.5167 -0.2031
 7854TIP3    H144977   5.003   0.643  11.145 -1.0334  0.7118 -1.4328
 7854TIP3    H244978   5.058   0.778  11.102 -1.9461  2.5738  2.7414
 7855TIP3   OH244979   4.504   3.854   4.882  0.0909 -0.0756  0.2904
 7855TIP3    H144980   4.591   3.846   4.845  1.0210 -0.1056  2.3541
 7855TIP3    H244981   4.463   3.768   4.866 -0.7789  0.8613 -3.3570
 7856TIP3   OH244982   4.513   2.071  15.962  0.4882 -0.1320 -0.2845
 7856TIP3    H144983   4.496   2.134  16.032  3.5486 -0.7275  1.1483
 7856TIP3    H244984   4.567   2.004  16.002 -1.2193 -2.8580 -2.2077
 7857TIP3   OH244985   2.661   4.621  13.603  0.0574 -0.3676 -0.3505
 7857TIP3    H144986   2.653   4.613  13.698 -0.4659  1.2029 -0.2326
 7857TIP3    H244987   2.753   4.601  13.584  0.3960  0.2584  0.6005
 7858TIP3   OH244988   4.196   1.388  14.296 -0.1882 -0.0604  0.2696
 7858TIP3    H144989   4.241   1.308  14.268 -1.2335 -0.5848  0.0514
 7858TIP3    H244990   4.267   1.450  14.314  0.6258  0.0162 -2.6378
 7859TIP3   OH244991   0.228   1.055  14.822 -0.4052 -0.5239  0.1833
 7859TIP3    H144992   0.169   1.086  14.753 -1.8742 -0.9862  1.1907
 7859TIP3    H244993   0.197   0.967  14.844  2.0463 -1.7044 -0.7615
 7860TIP3   OH244994   3.428   3.260   4.920  0.1847 -0.1059 -0.3349
 7860TIP3    H144995   3.493   3.195   4.948  1.7144  1.3764 -0.2751
 7860TIP3    H244996   3.420   3.245   4.825  1.5816  0.4714 -0.5733
 7861TIP3   OH244997   2.923   1.926  16.549 -0.6508 -0.0694 -0.2766
 7861TIP3    H144998   2.901   1.979  16.473 -1.5288 -1.9382 -1.4033
 7861TIP3    H244999   2.855   1.858  16.552 -0.5339 -0.1837  2.0732
 7862TIP3   OH245000   0.453   0.222   1.491 -0.3747 -0.1191 -0.2145
 7862TIP3    H145001   0.508   0.207   1.567  0.3930  3.4466  0.1368
 7862TIP3    H245002   0.514   0.246   1.421 -1.1488 -2.1717 -1.7160
 7863TIP3   OH245003   5.399   5.538   4.634  0.6146  0.6756 -0.0709
 7863TIP3    H145004   5.461   5.472   4.664 -0.5165 -0.2894  0.2205
 7863TIP3    H245005   5.378   5.511   4.544 -0.8094 -0.1335  0.4727
 7864TIP3   OH245006   2.710   0.820  13.833  0.5932  0.1239 -0.2702
 7864TIP3    H145007   2.753   0.735  13.842 -2.3853 -1.4727  0.1730
 7864TIP3    H245008   2.727   0.864  13.917  0.2056 -1.0636  0.4580
 7865TIP3   OH245009   3.953   3.920   6.197 -0.7666  0.3432  0.1230
 7865TIP3    H145010   3.924   3.935   6.107  1.2318 -1.9538 -1.0082
 7865TIP3    H245011   3.873   3.897   6.245 -1.6315 -0.1431 -1.4824
 7866TIP3   OH245012   6.490   0.255   0.492  0.0677  0.1628 -0.3816
 7866TIP3    H145013   6.424   0.319   0.517 -0.0705 -0.4768  1.0280
 7866TIP3    H245014   6.489   0.254   0.397 -1.7077  0.4276 -0.3933
 7867TIP3   OH245015   5.344   2.795   5.146  0.1376 -0.2410  0.2378
 7867TIP3    H145016   5.269   2.793   5.205 -0.7411  1.9306 -0.6993
 7867TIP3    H245017   5.406   2.855   5.188 -1.1171  2.5538 -1.5588
 7868TIP3   OH245018   4.052   4.040   2.930 -0.7252 -0.1077  0.6605
 7868TIP3    H145019   4.071   4.034   2.836 -2.3599  1.2059  0.2036
 7868TIP3    H245020   4.032   4.133   2.945  1.4878  0.1516  2.7531
 7869TIP3   OH245021   5.659   1.744  15.476 -0.2327  0.3150  0.6536
 7869TIP3    H145022   5.698   1.812  15.421  0.0453  1.1991  1.8987
 7869TIP3    H245023   5.715   1.667  15.462 -0.5943  0.3035 -0.8282
 7870TIP3   OH245024   5.728   3.093  13.475 -0.7391  0.2751  0.3240
 7870TIP3    H145025   5.637   3.071  13.454 -1.2792  2.0190  0.6619
 7870TIP3    H245026   5.757   3.146  13.401 -0.0427 -0.1417  0.2930
 7871TIP3   OH245027   4.249   4.737   2.696  0.0132  0.0202  0.2733
 7871TIP3    H145028   4.237   4.647   2.725 -0.5685  0.1777  0.5415
 7871TIP3    H245029   4.169   4.756   2.646 -0.1480  0.5864  0.7372
 7872TIP3   OH245030   2.357   4.497   3.879  0.0029 -0.2874  0.1187
 7872TIP3    H145031   2.299   4.463   3.948  1.7851 -0.7846  1.4547
 7872TIP3    H245032   2.367   4.589   3.900  0.7339 -0.4898  0.6857
 7873TIP3   OH245033   3.983   0.486  12.774 -0.4080  0.3012 -0.3043
 7873TIP3    H145034   3.951   0.398  12.752 -1.2363  0.7360 -0.8929
 7873TIP3    H245035   4.042   0.509  12.702  1.0803 -0.3891  0.6441
 7874TIP3   OH245036   4.954   0.400  13.775 -0.2143 -0.2981  0.0178
 7874TIP3    H145037   4.950   0.385  13.681 -0.3133  0.2872 -0.0758
 7874TIP3    H245038   5.013   0.332  13.808 -0.8460 -1.0308 -0.3478
 7875TIP3   OH245039   2.512   4.905   5.971  0.0384 -0.1196 -0.0296
 7875TIP3    H145040   2.546   4.992   5.949 -1.3671  0.5021  0.1416
 7875TIP3    H245041   2.560   4.846   5.914 -0.9355  1.0669 -2.2240
 7876TIP3   OH245042   2.748   3.468  14.041 -0.4465  0.1289 -0.1512
 7876TIP3    H145043   2.671   3.413  14.027 -0.1736 -0.0747 -0.8664
 7876TIP3    H245044   2.764   3.463  14.135  1.0077 -2.9736 -0.4563
 7877TIP3   OH245045   0.637   4.048  12.060  0.3245 -0.9595  0.3477
 7877TIP3    H145046   0.672   3.961  12.044 -1.1424 -1.4251 -0.4841
 7877TIP3    H245047   0.572   4.062  11.991 -0.6793  0.1097  1.4462
 7878TIP3   OH245048   2.392   0.137   0.408  0.4753 -0.1353  0.6209
 7878TIP3    H145049   2.419   0.047   0.394  2.0290  0.2352  1.0743
 7878TIP3    H245050   2.472   0.183   0.435  0.2705  1.8654 -1.7578
 7879TIP3   OH245051   3.635   3.698   3.551 -0.2427  0.1028  0.4824
 7879TIP3    H145052   3.573   3.630   3.576  0.4713 -0.9512 -0.5201
 7879TIP3    H245053   3.716   3.673   3.595 -0.3293  1.1114  1.2556
 7880TIP3   OH245054   4.535   1.684   4.174  0.0827 -0.4194 -0.7646
 7880TIP3    H145055   4.473   1.616   4.149  0.4382 -0.7755 -0.6895
 7880TIP3    H245056   4.609   1.671   4.114  0.9616 -1.2994  0.4518
 7881TIP3   OH245057   1.902   5.709   5.304  0.1089  0.2669 -0.0357
 7881TIP3    H145058   1.879   5.657   5.381 -0.2617  0.5789  0.0689
 7881TIP3    H245059   1.927   5.644   5.238  2.9506  0.0816  1.1094
 7882TIP3   OH245060   1.881   4.548  16.899  0.1270  1.1899 -0.2693
 7882TIP3    H145061   1.945   4.527  16.830 -0.4068  1.1422 -0.7542
 7882TIP3    H245062   1.930   4.603  16.960  0.3160  2.1162 -1.2327
 7883TIP3   OH245063   3.910   3.435  14.968 -0.1380 -0.5357  0.1644
 7883TIP3    H145064   3.863   3.483  14.900  0.2902  0.4117  0.5307
 7883TIP3    H245065   3.940   3.355  14.924  1.3441  0.7051 -1.1627
 7884TIP3   OH245066   0.856   4.415   6.697 -0.6129 -0.2795 -0.8143
 7884TIP3    H145067   0.870   4.444   6.607  0.4031 -1.7567 -1.1756
 7884TIP3    H245068   0.830   4.494   6.744  2.2770  1.3373 -1.6383
 7885TIP3   OH245069   0.432   4.839   5.800  0.4798  0.1843  0.4862
 7885TIP3    H145070   0.511   4.889   5.779  0.9348 -0.5909  0.3113
 7885TIP3    H245071   0.367   4.905   5.824  1.3963  0.7978  1.3544
 7886TIP3   OH245072   6.249   3.525  16.061 -0.1462  0.3588  0.0962
 7886TIP3    H145073   6.268   3.570  16.144  0.3919  0.7987 -0.2579
 7886TIP3    H245074   6.293   3.578  15.994 -0.8010  0.1562 -0.5051
 7887TIP3   OH245075   6.075   0.830  14.970  0.4204 -0.7013  0.1741
 7887TIP3    H145076   6.165   0.805  14.989  0.9737 -1.2692 -2.7245
 7887TIP3    H245077   6.078   0.926  14.959  1.1986 -0.9225 -2.0038
 7888TIP3   OH245078   4.276   1.405  15.222  0.4471  0.4217  0.2455
 7888TIP3    H145079   4.220   1.358  15.285  0.4190 -1.8805 -1.3621
 7888TIP3    H245080   4.365   1.381  15.246  0.6497  1.9665  1.1793
 7889TIP3   OH245081   4.860   2.028   3.556 -0.1752 -0.0922  0.4885
 7889TIP3    H145082   4.831   1.941   3.584  0.0615  0.3526  2.2266
 7889TIP3    H245083   4.918   2.011   3.482 -0.9430 -1.3259  0.1358
 7890TIP3   OH245084   6.759   4.041  13.112 -0.0834  0.1145  0.1416
 7890TIP3    H145085   6.784   3.989  13.036 -2.1497 -1.8862  0.7138
 7890TIP3    H245086   6.842   4.065  13.153  0.9885 -0.8909 -1.3471
 7891TIP3   OH245087   0.490   5.985   1.245  0.0876 -0.6346  0.0814
 7891TIP3    H145088   0.532   5.966   1.161  1.1425  1.1066  0.1781
 7891TIP3    H245089   0.458   6.074   1.237  0.2565 -0.4180  1.5567
 7892TIP3   OH245090   6.288   6.676  13.420 -0.0931 -0.0023  0.1687
 7892TIP3    H145091   6.291   6.772  13.423 -1.4472  0.0725 -0.2535
 7892TIP3    H245092   6.199   6.654  13.450 -0.2431 -1.0565 -0.9965
 7893TIP3   OH245093   2.079   4.583   2.989 -0.0247 -0.3628 -0.3205
 7893TIP3    H145094   2.097   4.621   2.903  0.6705 -0.7765 -0.3578
 7893TIP3    H245095   1.986   4.603   3.005  0.0598  0.4464 -0.7919
 7894TIP3   OH245096   5.385   3.483  11.538 -0.7757  0.1275 -0.2401
 7894TIP3    H145097   5.352   3.493  11.449 -1.1370  0.5762 -0.0609
 7894TIP3    H245098   5.403   3.390  11.547 -1.7222 -0.0774 -0.4333
 7895TIP3   OH245099   4.998   0.969  12.803  0.1317 -0.5792 -0.3392
 7895TIP3    H145100   4.966   0.989  12.890  2.9157  1.2228  0.3754
 7895TIP3    H245101   4.960   1.036  12.747 -1.3891 -1.5436 -0.5336
 7896TIP3   OH245102   4.301   1.302   4.406 -0.6440 -0.0865  0.7587
 7896TIP3    H145103   4.306   1.379   4.463  0.8195 -1.4129  2.5476
 7896TIP3    H245104   4.283   1.229   4.466 -1.0281 -1.2815 -0.7496
 7897TIP3   OH245105   5.549   3.599  15.384 -0.0614  0.5216  0.5793
 7897TIP3    H145106   5.579   3.689  15.386  0.1087  0.5839 -1.6437
 7897TIP3    H245107   5.454   3.604  15.396 -0.2216  1.1476 -0.7763
 7898TIP3   OH245108   4.899   2.286   2.126 -0.0656 -0.7670  0.6563
 7898TIP3    H145109   4.939   2.331   2.200  1.5055 -2.2828  0.7974
 7898TIP3    H245110   4.838   2.350   2.089 -0.0083  0.4356  2.5196
 7899TIP3   OH245111   2.167   1.008   5.025  0.5298  0.2917 -0.2318
 7899TIP3    H145112   2.161   0.986   5.117 -1.5766  0.4537 -0.2794
 7899TIP3    H245113   2.202   0.929   4.983  1.5101  0.2223  0.6613
 7900TIP3   OH245114   0.481   4.933   5.436 -0.0151 -0.1501  0.4599
 7900TIP3    H145115   0.530   5.012   5.459 -0.0819 -0.1165  0.4880
 7900TIP3    H245116   0.389   4.961   5.436  0.1002  0.5437 -2.5596
 7901TIP3   OH245117   1.207   5.018   2.288  0.5388  0.0200 -0.5335
 7901TIP3    H145118   1.292   5.053   2.258  1.2406 -1.7179 -0.6611
 7901TIP3    H245119   1.226   4.929   2.315 -1.2925 -0.4408 -0.6475
 7902TIP3   OH245120   4.082   1.970   3.827 -0.2436 -0.5884 -0.4280
 7902TIP3    H145121   4.007   1.987   3.883 -0.0750  0.0606 -0.3906
 7902TIP3    H245122   4.156   2.011   3.872  0.5236 -2.7834  0.4842
 7903TIP3   OH245123   4.404   2.137   0.154 -0.1931 -0.2152  0.1707
 7903TIP3    H145124   4.383   2.179   0.238 -0.9071 -4.3261  2.3410
 7903TIP3    H245125   4.497   2.116   0.160 -0.0206  0.3271 -0.5321
 7904TIP3   OH245126   5.374   5.737   3.171 -0.4538  0.3110  0.6199
 7904TIP3    H145127   5.370   5.721   3.265  0.3362 -3.4852  0.1665
 7904TIP3    H245128   5.465   5.721   3.147 -0.8542  0.2274 -0.9480
 7905TIP3   OH245129   0.673   6.588   3.456  0.2835 -0.0249 -0.1515
 7905TIP3    H145130   0.641   6.677   3.446 -1.1355 -0.6618 -2.0188
 7905TIP3    H245131   0.593   6.535   3.465  1.1017 -1.1052  1.2365
 7906TIP3   OH245132   0.149   4.827  10.925 -0.3873 -0.5403  0.4543
 7906TIP3    H145133   0.240   4.797  10.923 -0.3651 -0.6285  1.8513
 7906TIP3    H245134   0.110   4.780  10.999 -1.4516 -0.1609  0.1532
 7907TIP3   OH245135   4.735   5.868   1.776 -0.3370 -0.8218  0.1240
 7907TIP3    H145136   4.798   5.852   1.846  0.6888 -0.0558 -0.5790
 7907TIP3    H245137   4.710   5.960   1.787 -1.0798 -1.0238  0.1845
 7908TIP3   OH245138   2.847   1.796   1.579  0.4139  0.6292 -0.8684
 7908TIP3    H145139   2.913   1.864   1.596  0.4903  0.9964 -2.4437
 7908TIP3    H245140   2.792   1.796   1.657  1.8260  0.8334  0.1662
 7909TIP3   OH245141   0.961   2.464   6.015  0.4634 -0.6780 -0.2954
 7909TIP3    H145142   0.938   2.399   6.082 -2.6219  0.1228 -0.4212
 7909TIP3    H245143   0.990   2.541   6.065  0.8713 -1.0055 -0.0168
 7910TIP3   OH245144   3.507   1.913  14.455 -0.5463  0.4718 -0.0166
 7910TIP3    H145145   3.502   2.000  14.494  0.2790  0.8464 -0.7052
 7910TIP3    H245146   3.426   1.905  14.404 -1.3139  0.2374  1.2125
 7911TIP3   OH245147   4.322   4.158   0.745 -0.3725  0.2281  0.5457
 7911TIP3    H145148   4.406   4.199   0.725 -0.7144  0.7038  0.0810
 7911TIP3    H245149   4.258   4.229   0.741 -0.8953 -0.2497  0.2570
 7912TIP3   OH245150   2.375   6.640  17.113  0.4534  0.2534  0.1984
 7912TIP3    H145151   2.409   6.590  17.039  1.4161  0.6990  0.3240
 7912TIP3    H245152   2.441   6.630  17.181  0.0303  0.6262  0.6702
 7913TIP3   OH245153   1.198   6.593  11.312  0.4005  0.1216 -0.3813
 7913TIP3    H145154   1.277   6.615  11.361  0.3840  1.5754 -0.9567
 7913TIP3    H245155   1.216   6.622  11.223 -1.1123  1.3893 -0.3263
 7914TIP3   OH245156   0.953   4.313  11.853  0.1282 -0.0854 -0.6540
 7914TIP3    H145157   0.930   4.274  11.938  0.5799 -1.1623 -0.9999
 7914TIP3    H245158   1.036   4.357  11.869 -0.8489  1.6313 -0.0228
 7915TIP3   OH245159   2.965   3.492  14.890  0.8017 -0.1026 -0.0767
 7915TIP3    H145160   2.873   3.478  14.868 -0.3517  1.9427  2.8431
 7915TIP3    H245161   2.986   3.421  14.951  0.6836  0.3068  0.4404
 7916TIP3   OH245162   2.537   2.467  16.644  0.7073 -0.0939 -0.2492
 7916TIP3    H145163   2.469   2.482  16.578  0.2184  0.0129  0.2682
 7916TIP3    H245164   2.553   2.373  16.642 -1.7782 -0.6788  1.8148
 7917TIP3   OH245165   0.341   3.950   4.227 -0.4222 -0.4156  0.1844
 7917TIP3    H145166   0.274   3.998   4.276  0.3086 -0.7859  1.6175
 7917TIP3    H245167   0.405   3.924   4.294  1.4858  0.4659 -1.2362
 7918TIP3   OH245168   4.276   5.883  15.028  0.2542 -0.2118 -0.3262
 7918TIP3    H145169   4.258   5.925  15.112  1.3259  0.2142 -0.2999
 7918TIP3    H245170   4.371   5.884  15.020  0.1497  0.3335 -1.8339
 7919TIP3   OH245171   4.489   0.434   2.374 -0.4470  0.1971  0.4842
 7919TIP3    H145172   4.577   0.397   2.376 -0.4084  0.3349  1.4762
 7919TIP3    H245173   4.492   0.497   2.302 -0.3281 -1.2039 -0.8119
 7920TIP3   OH245174   3.852   4.895   0.714  0.0494  0.2798  0.1363
 7920TIP3    H145175   3.794   4.940   0.775  0.5573  1.9069 -0.5336
 7920TIP3    H245176   3.795   4.867   0.643 -0.3388 -0.5177  0.7526
 7921TIP3   OH245177   3.997   4.217  12.597  0.3291 -0.1676  0.6699
 7921TIP3    H145178   4.073   4.252  12.644  1.2164  1.1677 -1.6303
 7921TIP3    H245179   3.929   4.283  12.610  0.6792  0.3684 -0.1536
 7922TIP3   OH245180   3.082   1.668   3.719 -0.3837 -0.0819  0.4567
 7922TIP3    H145181   3.091   1.763   3.704 -1.0300 -0.3380 -2.0281
 7922TIP3    H245182   3.086   1.658   3.814  1.2794  2.2707  0.7290
 7923TIP3   OH245183   6.261   4.555   5.403  0.2619 -0.3299  0.4353
 7923TIP3    H145184   6.185   4.603   5.436  0.5944  0.9228 -0.5109
 7923TIP3    H245185   6.266   4.580   5.310  0.8600 -1.6976  0.0773
 7924TIP3   OH245186   2.299   3.542  12.810  0.0475  0.3694  0.7770
 7924TIP3    H145187   2.371   3.482  12.828 -1.0759 -0.8652  1.2671
 7924TIP3    H245188   2.318   3.576  12.722  1.4463  0.4282  1.0796
 7925TIP3   OH245189   1.611   5.546  14.928  0.3666  0.2314  0.2118
 7925TIP3    H145190   1.547   5.476  14.915 -1.0768  1.5431 -0.1201
 7925TIP3    H245191   1.645   5.532  15.016 -0.6829 -0.2773  0.5523
 7926TIP3   OH245192   1.119   0.801  12.951  0.0470 -0.2048  0.2302
 7926TIP3    H145193   1.137   0.730  13.012 -0.5584  0.1435  0.8202
 7926TIP3    H245194   1.165   0.776  12.871  0.6022 -0.8062  0.7302
 7927TIP3   OH245195   2.234   3.097   0.717 -0.2665  0.4586 -0.7053
 7927TIP3    H145196   2.155   3.101   0.662 -1.3351  0.3911  0.7542
 7927TIP3    H245197   2.211   3.036   0.787  1.6647 -0.7788 -1.0753
 7928TIP3   OH245198   4.896   0.749  13.762  0.0456  0.5039 -0.2874
 7928TIP3    H145199   4.805   0.721  13.758 -0.1551  1.2265 -1.5785
 7928TIP3    H245200   4.891   0.842  13.784  0.5688  0.2130  1.2044
 7929TIP3   OH245201   0.242   4.703   1.858  0.7433 -0.7490  0.2157
 7929TIP3    H145202   0.245   4.702   1.762  1.3338 -2.5739  0.2109
 7929TIP3    H245203   0.285   4.785   1.882 -0.3485  0.2496 -1.0779
 7930TIP3   OH245204   3.904   2.012  15.607  0.2046 -0.7881 -0.3301
 7930TIP3    H145205   3.898   1.938  15.546  2.2910 -0.9986 -0.3607
 7930TIP3    H245206   3.905   2.089  15.550 -0.2512 -0.8342 -0.4040
 7931TIP3   OH245207   2.628   2.702   5.082 -0.0120 -0.0445 -0.5341
 7931TIP3    H145208   2.556   2.736   5.136 -0.0959  0.2108 -0.8064
 7931TIP3    H245209   2.586   2.672   5.002  0.3212  1.3170 -1.2581
 7932TIP3   OH245210   3.359   6.574  16.947  0.0791 -0.0558 -0.1335
 7932TIP3    H145211   3.379   6.488  16.984  0.9853  1.1592  2.4570
 7932TIP3    H245212   3.284   6.558  16.889  0.0793 -2.5369  0.4269
 7933TIP3   OH245213   3.646   2.416   1.962 -0.0222  0.0822  0.4467
 7933TIP3    H145214   3.608   2.496   1.998 -0.7448  0.0262 -0.1502
 7933TIP3    H245215   3.592   2.345   1.998 -0.5308  0.0030 -0.4251
 7934TIP3   OH245216   2.420   5.020   1.817  0.0019 -0.4981  0.0725
 7934TIP3    H145217   2.495   5.043   1.872 -0.5080 -1.4905  1.2537
 7934TIP3    H245218   2.435   4.929   1.792 -1.4119 -1.1793  1.4772
 7935TIP3   OH245219   5.033   4.693   3.497  0.2585  0.4354 -0.1911
 7935TIP3    H145220   4.961   4.756   3.494  1.0748  1.4482  0.8396
 7935TIP3    H245221   4.989   4.608   3.497 -0.9146  1.0109 -0.4083
 7936TIP3   OH245222   6.244   6.337  12.029  0.1242  0.0998 -0.7476
 7936TIP3    H145223   6.338   6.322  12.031  0.1015  0.0324 -0.1092
 7936TIP3    H245224   6.212   6.301  12.112 -0.3949  0.5751 -0.7404
 7937TIP3   OH245225   6.446   4.919  12.213 -0.2228 -0.6123  0.2239
 7937TIP3    H145226   6.489   4.965  12.141  0.0787  0.3704  1.0094
 7937TIP3    H245227   6.493   4.836  12.220  0.0515 -0.5145 -0.3991
 7938TIP3   OH245228   1.313   3.853   2.412 -0.0521  0.3006 -0.3473
 7938TIP3    H145229   1.376   3.847   2.484 -0.2317  1.4878 -0.0819
 7938TIP3    H245230   1.363   3.826   2.335 -0.0380 -1.6400  0.2828
 7939TIP3   OH245231   0.960   4.867  13.659 -0.3932 -0.3765  0.6628
 7939TIP3    H145232   0.948   4.789  13.714 -0.4132  0.1514  1.4125
 7939TIP3    H245233   0.881   4.871  13.605  1.0584 -2.8540 -1.9362
 7940TIP3   OH245234   2.936   1.531   5.538 -0.0365  0.3179  0.4680
 7940TIP3    H145235   2.978   1.451   5.507  2.0176  1.7435 -0.7060
 7940TIP3    H245236   2.909   1.511   5.628  0.1734 -1.7499  0.1163
 7941TIP3   OH245237   2.844   6.373   5.849  0.1052 -0.6548 -0.1968
 7941TIP3    H145238   2.814   6.460   5.875  0.1208 -1.0470  1.2572
 7941TIP3    H245239   2.868   6.382   5.757  0.2132  0.8966 -0.0440
 7942TIP3   OH245240   1.392   1.343   0.235  0.0207 -0.5593 -0.6282
 7942TIP3    H145241   1.315   1.326   0.289 -0.1429 -1.2239 -1.0731
 7942TIP3    H245242   1.417   1.258   0.199 -0.7040  0.0570 -2.7261
 7943TIP3   OH245243   2.887   5.103  16.641  0.0438 -0.3579  0.1017
 7943TIP3    H145244   2.920   5.018  16.672  3.0779 -1.3378 -4.7663
 7943TIP3    H245245   2.965   5.152  16.616 -1.8093  1.8644 -1.8572
 7944TIP3   OH245246   3.023   4.245  15.980  0.1463 -0.0673 -0.7741
 7944TIP3    H145247   2.974   4.323  16.004 -1.7491 -1.0027 -1.4519
 7944TIP3    H245248   3.079   4.273  15.907  1.3102  1.2171  0.5558
 7945TIP3   OH245249   4.280   1.098   6.277 -0.4001 -0.3337  0.0014
 7945TIP3    H145250   4.372   1.072   6.284  0.1152  0.9630 -1.4534
 7945TIP3    H245251   4.232   1.015   6.280  0.7498 -0.9950  1.3977
 7946TIP3   OH245252   0.775   1.244   6.085  0.0288 -0.1544 -0.1002
 7946TIP3    H145253   0.773   1.175   6.152  1.0388  1.0385  1.2097
 7946TIP3    H245254   0.768   1.197   6.002  0.4320 -1.8103  0.7626
 7947TIP3   OH245255   6.425   3.767   0.284  0.6919 -0.2987 -0.2673
 7947TIP3    H145256   6.498   3.829   0.275 -0.9896  1.7811 -0.3350
 7947TIP3    H245257   6.356   3.802   0.228 -0.8369 -1.4410  0.7998
 7948TIP3   OH245258   4.707   0.180  16.637  0.6197 -0.7966  0.0383
 7948TIP3    H145259   4.703   0.174  16.733  1.3359  1.5446  0.2754
 7948TIP3    H245260   4.800   0.179  16.617  0.4881 -0.7838 -0.5859
 7949TIP3   OH245261   3.203   3.436   1.002  0.2700 -0.0346 -0.1690
 7949TIP3    H145262   3.121   3.447   0.954  0.1197  0.6130  0.2285
 7949TIP3    H245263   3.236   3.525   1.015 -0.5556 -0.0432  2.4075
 7950TIP3   OH245264   5.464   1.482   4.779 -0.4311 -0.3582  0.0592
 7950TIP3    H145265   5.530   1.446   4.720 -0.3799 -1.6784  0.8642
 7950TIP3    H245266   5.512   1.504   4.858 -0.8074 -0.4524  0.3148
 7951TIP3   OH245267   5.162   1.247   0.292  0.1725 -0.3218 -0.3494
 7951TIP3    H145268   5.208   1.322   0.255  1.6942 -1.3661 -0.6819
 7951TIP3    H245269   5.219   1.217   0.363  1.7732 -3.5373 -2.7076
 7952TIP3   OH245270   3.706   4.862   4.942  0.6172  0.0691 -0.1509
 7952TIP3    H145271   3.701   4.944   4.991  1.1101  0.2428 -0.3795
 7952TIP3    H245272   3.665   4.797   4.999  1.9365  0.0934  0.8609
 7953TIP3   OH245273   5.857   4.735   3.583 -0.6832 -0.1340 -0.6288
 7953TIP3    H145274   5.810   4.654   3.561  0.9076 -0.9531 -1.1989
 7953TIP3    H245275   5.853   4.739   3.679  2.9415 -3.4219 -0.0849
 7954TIP3   OH245276   1.369   6.078   0.738  0.2609  0.1918 -0.1740
 7954TIP3    H145277   1.442   6.068   0.800 -0.2257  2.0535  0.8025
 7954TIP3    H245278   1.293   6.042   0.784 -0.3666  2.7255  0.9933
 7955TIP3   OH245279   1.491   2.189  16.221  0.3543  0.1107  0.0869
 7955TIP3    H145280   1.539   2.126  16.168  1.8373 -0.6532  2.2145
 7955TIP3    H245281   1.407   2.147  16.238 -0.6342  0.8673 -2.5209
 7956TIP3   OH245282   5.516   4.133   0.073 -0.2702  0.2930  0.2479
 7956TIP3    H145283   5.430   4.145   0.113  0.3932  0.9835  1.5005
 7956TIP3    H245284   5.496   4.102  -0.016 -1.7690 -1.7427  1.2082
 7957TIP3   OH245285   1.026   4.161  13.806  0.1980 -0.1434  0.3748
 7957TIP3    H145286   1.101   4.218  13.792  0.0923 -0.4965 -1.9544
 7957TIP3    H245287   1.057   4.074  13.785 -0.3431 -0.6043  1.3883
 7958TIP3   OH245288   0.597   3.717   5.133  0.2558 -0.3436  0.2946
 7958TIP3    H145289   0.680   3.730   5.179 -0.3165  0.8659  1.0219
 7958TIP3    H245290   0.576   3.625   5.149 -0.3328  0.2057  3.2359
 7959TIP3   OH245291   1.090   4.020   4.775 -0.0883  0.2538  0.6968
 7959TIP3    H145292   1.082   3.925   4.788 -0.3575 -0.0437 -1.2191
 7959TIP3    H245293   1.000   4.048   4.757  0.1857  0.6089 -0.1441
 7960TIP3   OH245294   5.019   3.541   0.104  0.5990  0.1950  0.1809
 7960TIP3    H145295   5.039   3.505   0.018  0.6742  1.2919 -0.2817
 7960TIP3    H245296   5.058   3.629   0.103 -1.6805  1.3096  0.2936
 7961TIP3   OH245297   5.851   5.314  14.668  0.7035 -0.3853  0.2492
 7961TIP3    H145298   5.795   5.287  14.595  1.1419 -2.1184  0.5116
 7961TIP3    H245299   5.935   5.335  14.626  0.0644  1.7121 -0.0815
 7962TIP3   OH245300   5.602   5.417   2.879  0.1779  0.2218 -0.1679
 7962TIP3    H145301   5.528   5.403   2.939  0.5309  1.1358  0.4940
 7962TIP3    H245302   5.598   5.342   2.819 -1.7427  0.6235 -0.6170
 7963TIP3   OH245303   0.910   6.239  13.837  0.4725  0.1158 -0.1528
 7963TIP3    H145304   0.950   6.292  13.907  1.0902 -0.0149 -0.4041
 7963TIP3    H245305   0.892   6.302  13.767 -2.5733  0.7885  1.0571
 7964TIP3   OH245306   0.404   6.010  11.750 -0.0393  0.4821 -0.0851
 7964TIP3    H145307   0.336   6.000  11.816 -1.0751  1.7601 -0.9133
 7964TIP3    H245308   0.446   6.094  11.771  0.9961 -0.0666  0.1412
 7965TIP3   OH245309   6.178   2.421  12.671 -0.2771  0.4459  0.3003
 7965TIP3    H145310   6.208   2.423  12.762 -0.9735  1.3208  0.5272
 7965TIP3    H245311   6.251   2.457  12.621 -0.4941  1.5463  0.7267
 7966TIP3   OH245312   4.178   0.843  12.472 -0.1759  0.0762 -0.0272
 7966TIP3    H145313   4.240   0.861  12.543 -0.0379  1.0032 -0.3572
 7966TIP3    H245314   4.112   0.913  12.480 -0.9541 -0.6520  0.0643
 7967TIP3   OH245315   5.501   5.510  11.479  0.2316 -0.2960  0.1592
 7967TIP3    H145316   5.514   5.518  11.574  0.0713  0.3690  0.1312
 7967TIP3    H245317   5.542   5.589  11.443  1.8995 -1.3917 -0.4887
 7968TIP3   OH245318   4.381   6.552  15.069  0.3420  0.2785  0.4487
 7968TIP3    H145319   4.388   6.587  15.157 -0.5534  0.9359  0.2779
 7968TIP3    H245320   4.288   6.560  15.047  0.0414 -2.4558  0.4822
 7969TIP3   OH245321   5.077   1.966  14.504  0.1603  0.0328  0.0827
 7969TIP3    H145322   5.053   1.915  14.426 -1.7758  1.0227 -0.0325
 7969TIP3    H245323   5.086   2.055  14.472  0.3640  0.2847  0.8272
 7970TIP3   OH245324   0.138   2.775   5.713  0.1931  0.1518  0.1692
 7970TIP3    H145325   0.123   2.759   5.620  1.9852  1.7090 -0.4514
 7970TIP3    H245326   0.234   2.773   5.722  0.0376 -0.1590  2.0234
 7971TIP3   OH245327   0.291   0.409  12.172  0.7153  0.1653 -0.2175
 7971TIP3    H145328   0.333   0.425  12.088  0.6310 -0.9412 -0.4838
 7971TIP3    H245329   0.350   0.347  12.217 -0.2045 -0.7746 -0.2704
 7972TIP3   OH245330   4.891   0.015   5.286 -0.0142  0.2079 -0.4257
 7972TIP3    H145331   4.873  -0.078   5.301 -2.2859  0.6466 -0.1062
 7972TIP3    H245332   4.923   0.046   5.371 -0.7009  0.0153 -0.0858
 7973TIP3   OH245333   2.423   5.565   2.438 -0.5269 -0.2366 -0.0541
 7973TIP3    H145334   2.414   5.576   2.533 -1.5998 -0.2311 -0.1385
 7973TIP3    H245335   2.512   5.594   2.418 -0.5762  0.5706  0.8432
 7974TIP3   OH245336   2.741   3.606  15.614 -0.3092 -0.6842 -0.2089
 7974TIP3    H145337   2.698   3.598  15.699 -0.0811  2.8677  0.4029
 7974TIP3    H245338   2.732   3.698  15.591  2.0394 -0.9540 -2.7666
 7975TIP3   OH245339   5.352   5.944  15.030  0.0546  0.4868  0.4147
 7975TIP3    H145340   5.400   5.861  15.022  3.2633  2.1489  0.7704
 7975TIP3    H245341   5.400   5.992  15.098 -2.3804  2.2546  1.0127
 7976TIP3   OH245342   0.830   1.215  16.778 -0.0665  0.2130 -0.5555
 7976TIP3    H145343   0.851   1.300  16.816 -1.0014  0.2272 -0.0491
 7976TIP3    H245344   0.866   1.151  16.840 -0.5798  0.2432 -0.2161
 7977TIP3   OH245345   1.888   2.721   3.972 -0.2143  0.3789 -0.5933
 7977TIP3    H145346   1.882   2.769   3.889 -1.7239  0.1577 -0.6344
 7977TIP3    H245347   1.935   2.641   3.949  0.8076  1.0372 -0.8818
 7978TIP3   OH245348   4.408   4.342  13.303 -0.3171  0.1074 -0.2941
 7978TIP3    H145349   4.500   4.357  13.283 -0.3440  0.2839 -0.2930
 7978TIP3    H245350   4.387   4.260  13.259  0.1055 -0.4777  0.5748
 7979TIP3   OH245351   5.942   6.519  17.156  0.2033  0.2971 -0.1453
 7979TIP3    H145352   5.999   6.487  17.226 -1.5536  0.8246  1.6014
 7979TIP3    H245353   5.885   6.445  17.136 -0.0999  0.5316 -0.1502
 7980TIP3   OH245354   3.535   1.462   6.143  0.1626 -0.7331  0.1397
 7980TIP3    H145355   3.527   1.367   6.153  0.9562 -0.8439 -0.2352
 7980TIP3    H245356   3.616   1.474   6.094 -1.3522 -0.0316 -2.4136
 7981TIP3   OH245357   5.950   5.939   3.908 -0.4540  0.5535  0.7247
 7981TIP3    H145358   5.951   5.859   3.856 -1.5265  0.9749  0.0043
 7981TIP3    H245359   6.041   5.954   3.932  0.5894  1.6000 -3.1165
 7982TIP3   OH245360   3.524   5.065   1.388  0.2515 -0.8098  0.1552
 7982TIP3    H145361   3.483   5.018   1.461 -1.6644 -1.3566 -1.2082
 7982TIP3    H245362   3.578   4.998   1.345 -0.2656 -1.0294 -0.1513
 7983TIP3   OH245363   5.814   0.781  12.844 -0.2127 -0.0773 -0.0977
 7983TIP3    H145364   5.859   0.696  12.833  1.7634  0.9829 -0.6949
 7983TIP3    H245365   5.834   0.829  12.765 -1.4030  0.9399  0.1976
 7984TIP3   OH245366   0.941   0.518  15.361  0.0511  0.4837  0.4753
 7984TIP3    H145367   0.993   0.587  15.320  0.0162 -0.6039 -1.5345
 7984TIP3    H245368   0.992   0.438  15.347 -1.8427 -0.5373 -1.1123
 7985TIP3   OH245369   3.729   1.105  12.533 -0.7757 -0.4668 -0.0046
 7985TIP3    H145370   3.684   1.188  12.519  1.0654  0.5184 -0.4270
 7985TIP3    H245371   3.719   1.087  12.626 -0.1374  0.8948  0.3473
 7986TIP3   OH245372   0.630   3.227   2.780 -0.1935 -0.2251 -0.2144
 7986TIP3    H145373   0.701   3.189   2.728  1.5491  0.3259  1.6280
 7986TIP3    H245374   0.568   3.260   2.715  0.9318 -1.2605 -1.9056
 7987TIP3   OH245375   0.603   6.541   0.958 -0.5231 -0.2905 -0.8263
 7987TIP3    H145376   0.642   6.551   0.871  1.6757 -1.2740 -0.0389
 7987TIP3    H245377   0.618   6.625   1.000  1.4628 -0.8492 -0.3180
 7988TIP3   OH245378   5.555   3.276   5.179 -0.1159  0.0452 -0.2260
 7988TIP3    H145379   5.537   3.189   5.143 -2.7210 -0.1172  1.1826
 7988TIP3    H245380   5.544   3.266   5.274 -0.9036  1.9508 -0.0577
 7989TIP3   OH245381   5.622   4.424   0.653 -0.2428  0.1785  0.1899
 7989TIP3    H145382   5.615   4.330   0.635  1.0423 -0.0780  0.9402
 7989TIP3    H245383   5.635   4.464   0.567  1.0471 -0.5307  0.0378
 7990TIP3   OH245384   2.896   4.231  17.247  0.4104  0.0592 -0.6146
 7990TIP3    H145385   2.909   4.221  17.342  0.1180 -0.7128 -0.6492
 7990TIP3    H245386   2.802   4.237  17.237  0.4094 -0.4045 -0.9020
 7991TIP3   OH245387   2.345   5.925  14.318 -0.7481 -0.1495  0.0105
 7991TIP3    H145388   2.318   6.000  14.371 -0.1006 -0.7048  1.1682
 7991TIP3    H245389   2.441   5.931  14.315 -0.7824  0.1157 -1.5064
 7992TIP3   OH245390   1.948   1.492   5.774  0.3155 -0.0789  0.2172
 7992TIP3    H145391   1.980   1.434   5.705  0.8268  0.4064  0.0456
 7992TIP3    H245392   1.904   1.433   5.836  2.0456 -0.8652  0.7639
 7993TIP3   OH245393   4.339   3.720   3.526  0.0229  0.3755 -0.0250
 7993TIP3    H145394   4.362   3.739   3.436 -0.6096 -0.8949 -0.4783
 7993TIP3    H245395   4.244   3.711   3.526 -0.0279  0.7548  0.8506
 7994TIP3   OH245396   1.624   5.368  12.913  0.2314 -0.3971 -0.2147
 7994TIP3    H145397   1.625   5.383  12.818 -1.9608 -0.2041 -0.2644
 7994TIP3    H245398   1.560   5.298  12.925 -3.1715  2.6587  1.3777
 7995TIP3   OH245399   1.489   5.956   0.525 -0.1874  0.1683  0.0362
 7995TIP3    H145400   1.453   5.995   0.605 -2.0602  1.3195 -1.2818
 7995TIP3    H245401   1.431   5.882   0.507  1.8632 -1.8192  1.1593
 7996TIP3   OH245402   5.533   2.596  12.539  0.4748  0.2309 -0.3154
 7996TIP3    H145403   5.557   2.650  12.614 -1.7512 -0.4526  0.9674
 7996TIP3    H245404   5.443   2.620  12.519 -0.2801 -2.2628 -0.2867
 7997TIP3   OH245405   6.075   2.080   0.074 -0.6732  0.3628  0.0239
 7997TIP3    H145406   6.080   2.148   0.006 -1.8816  0.6278  0.1680
 7997TIP3    H245407   6.155   2.028   0.062 -1.6068 -0.6489 -2.6995
 7998TIP3   OH245408   3.949   5.434   3.172  0.1560 -0.2548  0.3951
 7998TIP3    H145409   3.932   5.483   3.252 -0.8657 -0.3809  0.2642
 7998TIP3    H245410   4.044   5.441   3.159  0.2146  0.4509  1.1618
 7999TIP3   OH245411   0.076   4.533   4.647  0.1439  0.2108  0.3774
 7999TIP3    H145412   0.009   4.508   4.711 -0.2803  0.9508  0.2250
 7999TIP3    H245413   0.109   4.617   4.678 -0.8344  1.1242 -0.9560
 8000TIP3   OH245414   2.189   5.808  15.988 -0.3206  0.5158 -0.4334
 8000TIP3    H145415   2.204   5.860  16.067 -1.2177 -0.4521  0.4198
 8000TIP3    H245416   2.228   5.859  15.917 -0.1763  1.7827  0.5244
 8001TIP3   OH245417   0.787   1.959   0.839  0.1449  0.0204  0.4616
 8001TIP3    H145418   0.825   2.047   0.830 -0.0512 -0.0687 -2.0545
 8001TIP3    H245419   0.731   1.964   0.916  0.8386  1.8234  0.8977
 8002TIP3   OH245420   0.319   4.200  14.451 -0.0877  0.6329 -0.3187
 8002TIP3    H145421   0.272   4.258  14.511 -0.0424 -0.5368  0.8862
 8002TIP3    H245422   0.403   4.185  14.493  0.0883  0.0784 -0.8524
 8003TIP3   OH245423   3.993   5.754   1.805 -0.1508  0.4776  0.2780
 8003TIP3    H145424   3.968   5.837   1.763 -0.7941  1.6780  2.8459
 8003TIP3    H245425   4.081   5.770   1.839  0.8235 -0.8645 -1.4449
 8004TIP3   OH245426   2.947   2.312  13.640  0.0456 -0.4988  0.2142
 8004TIP3    H145427   2.861   2.324  13.679 -0.6272 -2.5221 -0.5498
 8004TIP3    H245428   2.929   2.273  13.554  1.7384 -1.7971  0.4055
 8005TIP3   OH245429   2.025   6.759  16.155 -0.4227 -0.0598  0.1153
 8005TIP3    H145430   2.098   6.701  16.174  0.6666  0.8990 -0.9480
 8005TIP3    H245431   1.950   6.701  16.143  0.3213 -1.1217  0.5122
 8006TIP3   OH245432   5.958   0.543   4.388 -0.5773  0.1140  0.3949
 8006TIP3    H145433   5.948   0.612   4.323  0.3275  0.9880  1.1474
 8006TIP3    H245434   5.875   0.496   4.388 -0.9917  0.8339 -0.5480
 8007TIP3   OH245435   6.621   4.140  15.860  0.2625  0.0358  0.2302
 8007TIP3    H145436   6.691   4.205  15.854  0.0188  0.1704 -1.8061
 8007TIP3    H245437   6.567   4.155  15.782  0.0877 -2.4589 -0.2323
 8008TIP3   OH245438   5.505   2.484   0.735  0.4375  0.2824  0.6553
 8008TIP3    H145439   5.463   2.502   0.819 -1.3822 -1.2546  0.1383
 8008TIP3    H245440   5.529   2.391   0.740  1.2182  0.4310 -0.1546
 8009TIP3   OH245441   5.428   2.321  14.926  0.3042 -0.3365  0.2941
 8009TIP3    H145442   5.464   2.314  14.837  0.5701 -0.5564  0.4173
 8009TIP3    H245443   5.342   2.281  14.920  1.0030 -1.9567  0.5262
 8010TIP3   OH245444   1.669   3.877  12.516 -0.1578  0.4943 -0.1735
 8010TIP3    H145445   1.641   3.960  12.555  1.1772  0.8390  0.1078
 8010TIP3    H245446   1.643   3.811  12.580 -0.8469  0.7260 -0.2025
 8011TIP3   OH245447   6.497   0.215   4.200  0.6929  0.1688  0.0790
 8011TIP3    H145448   6.526   0.138   4.248 -0.1464 -0.9450 -1.1543
 8011TIP3    H245449   6.474   0.278   4.268  0.0283 -1.1763  1.1451
 8012TIP3   OH245450   6.656   0.664  11.252  0.6924 -0.4166 -0.1800
 8012TIP3    H145451   6.730   0.714  11.285 -2.2455  2.2113  3.2198
 8012TIP3    H245452   6.590   0.671  11.320 -3.0431 -1.9058 -3.2534
 8013TIP3   OH245453   3.891   4.881  11.248  0.3075  0.1049 -0.6270
 8013TIP3    H145454   3.924   4.845  11.166  3.1891  1.6030 -0.2469
 8013TIP3    H245455   3.907   4.975  11.241 -1.7464  0.6275  0.6854
 8014TIP3   OH245456   3.653   5.571  16.528 -0.2967  0.0824 -0.2753
 8014TIP3    H145457   3.683   5.649  16.482  0.9740 -1.4097 -2.1304
 8014TIP3    H245458   3.571   5.547  16.486  1.1040 -1.5582 -2.2661
 8015TIP3   OH245459   1.942   5.016  14.963 -0.5498 -0.1925 -0.2166
 8015TIP3    H145460   1.961   4.936  15.011 -0.8256  0.0794  0.3560
 8015TIP3    H245461   2.018   5.072  14.977  0.3665 -0.9390 -1.9283
 8016TIP3   OH245462   2.915   1.022  16.420  0.1052 -0.6418  0.1430
 8016TIP3    H145463   2.975   0.983  16.357  1.7051  0.5387  0.8748
 8016TIP3    H245464   2.841   1.053  16.367  0.8138 -0.8263 -0.9808
 8017TIP3   OH245465   5.736   2.339  13.217 -0.5204  0.2720 -0.4505
 8017TIP3    H145466   5.681   2.317  13.142  0.1202  0.1601 -0.8999
 8017TIP3    H245467   5.786   2.415  13.188 -0.6594  0.5644  0.0651
 8018TIP3   OH245468   1.378   0.780  11.792  0.4733 -0.3689  0.6298
 8018TIP3    H145469   1.458   0.807  11.836  0.3251  0.7397  0.2318
 8018TIP3    H245470   1.309   0.833  11.832  0.3094  0.5217 -0.7953
 8019TIP3   OH245471   4.984   2.468   0.022  0.1262  0.3950  0.5547
 8019TIP3    H145472   5.053   2.529  -0.005 -1.1089  1.8304  0.5081
 8019TIP3    H245473   4.990   2.466   0.117 -0.0298  0.8669  0.5801
 8020TIP3   OH245474   6.727   1.145  14.674  0.0535 -0.4036 -0.3620
 8020TIP3    H145475   6.721   1.135  14.579  0.0751  0.1143 -0.4173
 8020TIP3    H245476   6.656   1.091  14.709  1.1179 -2.0129 -0.5899
 8021TIP3   OH245477   1.635   1.491   4.761 -0.4217 -0.0526 -0.2952
 8021TIP3    H145478   1.580   1.555   4.714 -0.6209 -0.6824 -0.9314
 8021TIP3    H245479   1.631   1.519   4.852 -0.7595  0.6665 -0.5217
 8022TIP3   OH245480   0.195   3.077  11.378  0.8032  0.3884  0.0086
 8022TIP3    H145481   0.186   3.087  11.473  0.7691  2.9001 -0.2017
 8022TIP3    H245482   0.191   3.166  11.344  2.0952 -0.3457 -2.2647
 8023TIP3   OH245483   4.292   3.292   2.323  0.5506 -0.0725  0.5863
 8023TIP3    H145484   4.325   3.372   2.283  0.3259 -0.0539  0.4339
 8023TIP3    H245485   4.370   3.242   2.346  0.6836 -0.0100  0.2684
 8024TIP3   OH245486   1.176   4.881  12.693  0.1393 -0.0862 -0.0554
 8024TIP3    H145487   1.096   4.920  12.727  0.6069  0.8694  0.0119
 8024TIP3    H245488   1.216   4.952  12.642  0.5881 -0.7702 -0.6698
 8025TIP3   OH245489   2.191   1.764   4.730 -0.9085 -0.0216 -0.4656
 8025TIP3    H145490   2.256   1.821   4.771  1.9046 -2.3823 -1.2872
 8025TIP3    H245491   2.109   1.784   4.776  0.8542  1.3965  2.3510
 8026TIP3   OH245492   4.783   5.493  14.116 -0.5264 -0.0658  0.1269
 8026TIP3    H145493   4.721   5.510  14.045 -2.9300 -0.3527  2.0550
 8026TIP3    H245494   4.764   5.561  14.181  1.9688  0.5050  0.3676
 8027TIP3   OH245495   2.274   0.513  14.901 -0.5960 -0.9279  0.1766
 8027TIP3    H145496   2.326   0.448  14.855 -1.5255 -0.5773 -1.4739
 8027TIP3    H245497   2.302   0.597  14.865 -1.9170 -0.7015 -0.3874
 8028TIP3   OH245498   4.417   4.190  13.074  0.1464 -0.2259  0.0628
 8028TIP3    H145499   4.499   4.227  13.042 -0.3535 -0.2082 -1.2465
 8028TIP3    H245500   4.421   4.097  13.050  0.4469 -0.5844  1.3984
 8029TIP3   OH245501   1.439   6.629  11.428  0.5394 -0.1508  0.1446
 8029TIP3    H145502   1.481   6.611  11.344  0.8205 -0.8472  0.4276
 8029TIP3    H245503   1.490   6.580  11.492 -0.4508 -0.6682  0.5610
 8030TIP3   OH245504   0.522   4.705   2.175 -0.4090 -0.1547  0.6790
 8030TIP3    H145505   0.530   4.647   2.100 -1.1061 -2.7394  2.4531
 8030TIP3    H245506   0.560   4.655   2.248 -1.5083  1.4236  2.4282
 8031TIP3   OH245507   2.657   6.131  12.892  0.0041  0.1719  0.2674
 8031TIP3    H145508   2.704   6.066  12.944  0.7717  0.1470 -0.4353
 8031TIP3    H245509   2.714   6.209  12.894 -0.3337  0.4251  0.1199
 8032TIP3   OH245510   1.216   2.411   0.356  0.1495 -0.4266 -0.3988
 8032TIP3    H145511   1.174   2.400   0.271  1.5797  2.8907 -1.7110
 8032TIP3    H245512   1.146   2.437   0.415 -0.6649 -1.5351 -0.8541
 8033TIP3   OH245513   5.424   0.340  14.296  0.1082 -0.3262 -0.1154
 8033TIP3    H145514   5.464   0.276  14.237  0.1989  0.7233 -1.2522
 8033TIP3    H245515   5.476   0.335  14.376  0.2561 -1.4797 -0.2649
 8034TIP3   OH245516   1.919   2.466  12.620 -0.0230 -0.0625 -0.0766
 8034TIP3    H145517   1.835   2.420  12.628  1.2699 -2.3756  1.4264
 8034TIP3    H245518   1.962   2.452  12.705  1.8160  1.2435 -0.7234
 8035TIP3   OH245519   6.330   2.550   0.941 -0.1305 -0.1534  0.2108
 8035TIP3    H145520   6.292   2.576   0.858 -0.4586 -1.8760 -0.2103
 8035TIP3    H245521   6.255   2.539   1.000  0.1097  1.2299  0.8200
 8036TIP3   OH245522   0.421   3.302  13.894  0.4073 -0.6285  0.3242
 8036TIP3    H145523   0.383   3.221  13.927  1.3782 -1.6120 -0.8506
 8036TIP3    H245524   0.515   3.290  13.906  0.5165  0.8340  1.1831
 8037TIP3   OH245525   6.582   6.434  16.043 -0.2983 -0.1218 -0.5294
 8037TIP3    H145526   6.637   6.417  16.120  0.0796 -1.3305 -1.0493
 8037TIP3    H245527   6.605   6.523  16.016  0.4226 -0.1197  0.0613
 8038TIP3   OH245528   1.352   3.416  12.559 -0.1629  0.7207  0.6348
 8038TIP3    H145529   1.280   3.477  12.579 -1.2420  0.1991 -1.4374
 8038TIP3    H245530   1.397   3.456  12.484  0.1863 -0.1737  0.3551
 8039TIP3   OH245531   6.155   5.082  11.653 -0.1089  0.1719  0.3039
 8039TIP3    H145532   6.084   5.019  11.654  0.7354 -0.8008  0.3283
 8039TIP3    H245533   6.112   5.167  11.641 -1.4037 -0.1962  2.0525
 8040TIP3   OH245534   6.637   3.984   5.497  0.2033  0.3767  0.3417
 8040TIP3    H145535   6.638   4.017   5.408  1.2200  1.5650  0.7610
 8040TIP3    H245536   6.655   3.890   5.489 -0.6868  0.2886 -0.7477
 8041TIP3   OH245537   1.943   1.389   5.495  0.1569  0.6593  0.4374
 8041TIP3    H145538   1.994   1.470   5.491 -0.6608  1.1741  0.2152
 8041TIP3    H245539   1.859   1.411   5.453 -0.7922  0.2431  2.0284
 8042TIP3   OH245540   4.894   0.589   3.184 -0.3343  0.5428 -0.3029
 8042TIP3    H145541   4.879   0.637   3.103  0.0140 -0.0958 -0.7540
 8042TIP3    H245542   4.821   0.526   3.188 -2.5980  3.0305  1.8255
 8043TIP3   OH245543   5.770   4.429   6.334  0.6340  0.2714 -0.0737
 8043TIP3    H145544   5.841   4.424   6.398  2.4250  0.7838 -1.9158
 8043TIP3    H245545   5.693   4.453   6.386  1.9481  0.4650  1.9013
 8044TIP3   OH245546   6.710   1.085  15.168 -0.2159 -0.2988  0.3196
 8044TIP3    H145547   6.631   1.139  15.156  0.4132  0.4361 -0.6935
 8044TIP3    H245548   6.683   0.998  15.138 -0.5664  0.0145 -0.3068
 8045TIP3   OH245549   0.972   3.963  13.100 -0.0594 -0.3022  0.0257
 8045TIP3    H145550   0.974   3.915  13.182  1.1633 -1.1508 -0.4649
 8045TIP3    H245551   1.026   3.911  13.040  0.9226  1.4199 -0.6754
 8046TIP3   OH245552   6.265   3.087  12.892  0.3187  0.6266  0.3152
 8046TIP3    H145553   6.198   3.123  12.949 -1.1699 -0.0094 -0.9323
 8046TIP3    H245554   6.215   3.041  12.824  2.0546 -1.6128  0.4545
 8047TIP3   OH245555   4.937   4.663  13.849 -0.3692 -0.5290 -0.1881
 8047TIP3    H145556   4.871   4.594  13.852 -1.9890  0.9739 -0.2058
 8047TIP3    H245557   4.942   4.689  13.757 -0.7405  0.2703  0.0062
 8048TIP3   OH245558   4.994   6.736   0.689  0.3243  0.6364  0.7673
 8048TIP3    H145559   5.004   6.793   0.765 -0.2417  1.3871  0.2864
 8048TIP3    H245560   4.990   6.795   0.614 -1.4857  0.0727  0.3686
 8049TIP3   OH245561   5.190   2.473  11.806 -0.3099 -0.2250  0.2208
 8049TIP3    H145562   5.273   2.434  11.781 -0.4025  0.8616 -2.0329
 8049TIP3    H245563   5.211   2.563  11.831 -0.8940  0.4913 -1.6825
 8050TIP3   OH245564   1.346   2.703  14.390  0.0258  0.0457  0.4883
 8050TIP3    H145565   1.392   2.669  14.313 -1.9007 -1.4698 -0.0745
 8050TIP3    H245566   1.329   2.626  14.444  0.6293  0.9803  2.0543
 8051TIP3   OH245567   0.997   5.415   1.909 -0.7967  0.1805  0.3063
 8051TIP3    H145568   1.026   5.326   1.886 -1.8332 -0.1592  0.2558
 8051TIP3    H245569   0.938   5.402   1.983 -1.4382  0.7693 -0.0965
 8052TIP3   OH245570   4.773   2.082  15.165  0.5795 -0.1269 -0.6097
 8052TIP3    H145571   4.756   1.995  15.130  0.3857 -0.1938 -0.3455
 8052TIP3    H245572   4.695   2.133  15.143  0.0723 -0.4085  0.5193
 8053TIP3   OH245573   4.351   0.204   1.152  0.3521 -0.0215  0.1912
 8053TIP3    H145574   4.375   0.175   1.063  0.3588  1.4118 -0.2990
 8053TIP3    H245575   4.290   0.137   1.183  0.6926 -0.7828 -0.7113
 8054TIP3   OH245576   2.865   3.467   0.804 -0.6939  0.3603  0.4162
 8054TIP3    H145577   2.946   3.519   0.802 -0.5040  0.0626 -0.8787
 8054TIP3    H245578   2.886   3.389   0.752 -1.5069 -0.2129  0.9210
 8055TIP3   OH245579   0.190   3.611  13.631 -0.1876 -0.0989  0.0507
 8055TIP3    H145580   0.245   3.688  13.649  0.5014 -0.6629  0.4113
 8055TIP3    H245581   0.101   3.644  13.635  0.0773  0.5492  0.8856
 8056TIP3   OH245582   4.372   1.397  15.635  0.5025 -0.2648  0.0359
 8056TIP3    H145583   4.418   1.468  15.591 -2.4158  1.6841 -0.1098
 8056TIP3    H245584   4.386   1.321  15.578 -0.4868  1.4298 -2.6637
 8057TIP3   OH245585   3.723   0.107   4.217 -0.2092 -0.2775  0.5754
 8057TIP3    H145586   3.788   0.137   4.154 -2.0625  1.7572 -0.5071
 8057TIP3    H245587   3.660   0.179   4.222 -2.1537 -1.9604  1.8939
 8058TIP3   OH245588   4.628   5.448   4.947 -0.2580 -0.0287 -0.1629
 8058TIP3    H145589   4.655   5.399   5.024 -2.4601 -0.1432  0.6044
 8058TIP3    H245590   4.607   5.535   4.980 -0.8367  0.0398 -0.6934
 8059TIP3   OH245591   2.756   2.538   5.375  0.0646  0.4988 -0.8188
 8059TIP3    H145592   2.722   2.528   5.464  0.9867 -0.7404 -0.5804
 8059TIP3    H245593   2.680   2.564   5.323 -0.5499  0.9404  0.2689
 8060TIP3   OH245594   4.545   4.453  13.590 -0.1547 -0.4897 -0.1405
 8060TIP3    H145595   4.496   4.516  13.537 -0.6446  0.0820  0.9660
 8060TIP3    H245596   4.483   4.382  13.607  0.1853 -0.9673 -0.7945
 8061TIP3   OH245597   6.605   6.579  11.504 -0.4179 -0.3155 -0.1517
 8061TIP3    H145598   6.574   6.668  11.520 -2.1239 -0.4538 -2.2208
 8061TIP3    H245599   6.692   6.590  11.465 -0.2835  0.3702  0.3212
 8062TIP3   OH245600   3.983   5.779  13.123  0.0587 -0.4200 -0.0062
 8062TIP3    H145601   3.931   5.702  13.100  0.3130 -0.5398 -0.1871
 8062TIP3    H245602   4.063   5.771  13.069 -1.4049  1.7758 -2.7967
 8063TIP3   OH245603   4.349   5.597   3.481 -0.5730 -0.1206  0.2271
 8063TIP3    H145604   4.403   5.674   3.499 -0.7429 -0.1133  0.7128
 8063TIP3    H245605   4.412   5.528   3.460 -0.4614  0.7316 -2.6995
 8064TIP3   OH245606   0.365   1.728  12.110  0.0206  0.3397  0.0564
 8064TIP3    H145607   0.333   1.738  12.200  2.6115 -0.1939  1.1213
 8064TIP3    H245608   0.427   1.655  12.114  1.1735  1.1330 -1.8725
 8065TIP3   OH245609   3.153   4.897  14.984 -0.5519  0.4554 -0.0843
 8065TIP3    H145610   3.215   4.932  15.047 -1.6652 -0.3848  1.5496
 8065TIP3    H245611   3.199   4.824  14.942 -0.6852 -0.7257  1.7368
 8066TIP3   OH245612   1.172   2.822  11.544  0.4576 -0.2655 -0.1946
 8066TIP3    H145613   1.225   2.837  11.466  0.9868 -1.9160 -0.1920
 8066TIP3    H245614   1.232   2.837  11.617 -0.0860  1.4596 -0.0757
 8067TIP3   OH245615   6.106   1.787  10.748 -0.3165  0.3599 -0.4368
 8067TIP3    H145616   6.069   1.864  10.706  0.4448  1.5272  0.9097
 8067TIP3    H245617   6.177   1.822  10.803 -0.6333 -1.1741  1.0304
 8068TIP3   OH245618   6.083   5.447   3.592 -0.3458 -0.4561  0.1008
 8068TIP3    H145619   6.172   5.470   3.566 -0.2554 -0.7541  0.1334
 8068TIP3    H245620   6.030   5.523   3.569  0.1666  0.3577  1.4836
 8069TIP3   OH245621   1.893   6.591   1.633  0.4760  0.3381 -0.2695
 8069TIP3    H145622   1.947   6.539   1.573 -2.3215 -3.5916  0.1896
 8069TIP3    H245623   1.938   6.586   1.717  1.5925  1.0585 -0.8000
 8070TIP3   OH245624   0.372   3.238  13.350 -0.0005 -1.0067  0.4386
 8070TIP3    H145625   0.394   3.201  13.436  0.0896 -1.4217  0.2373
 8070TIP3    H245626   0.289   3.283  13.364 -0.3815 -1.7378  0.5584
 8071TIP3   OH245627   5.172   0.019  15.309  0.0597 -0.0963  0.1844
 8071TIP3    H145628   5.229  -0.055  15.291 -1.0031 -0.9728  0.3751
 8071TIP3    H245629   5.132  -0.001  15.393 -1.0026  0.2160 -0.2346
 8072TIP3   OH245630   1.065   0.527   5.805 -0.1478  0.3712  0.5789
 8072TIP3    H145631   1.156   0.556   5.797 -0.0750 -0.1723 -0.8637
 8072TIP3    H245632   1.070   0.431   5.797 -0.8707  0.3581  0.2847
 8073TIP3   OH245633   2.660   0.246   0.731 -0.6217  0.5705  0.1283
 8073TIP3    H145634   2.733   0.256   0.792 -0.4667 -1.8719  0.4818
 8073TIP3    H245635   2.594   0.308   0.762  0.1050  0.5745  1.7862
 8074TIP3   OH245636   6.655   5.002  12.633  0.7038 -0.6418  0.6734
 8074TIP3    H145637   6.659   5.045  12.547 -0.1270  1.7848  1.7550
 8074TIP3    H245638   6.738   5.023  12.675 -0.1579  1.0089  1.6487
 8075TIP3   OH245639   5.191   5.245  16.232 -0.5702 -0.1864 -0.1852
 8075TIP3    H145640   5.200   5.316  16.296  0.2255 -0.7884  0.3966
 8075TIP3    H245641   5.277   5.203  16.232 -0.8010 -0.6780 -1.0902
 8076TIP3   OH245642   2.713   4.314  15.343  0.1080 -0.2823  0.2499
 8076TIP3    H145643   2.663   4.384  15.301 -0.1203 -0.4474  0.2499
 8076TIP3    H245644   2.652   4.241  15.350  0.9981 -1.3062 -1.8860
 8077TIP3   OH245645   0.803   0.295  16.658 -0.0759  0.0058 -0.3312
 8077TIP3    H145646   0.712   0.266  16.643  0.5741 -1.1598 -2.5396
 8077TIP3    H245647   0.795   0.384  16.691 -2.0762 -0.8903  1.8582
 8078TIP3   OH245648   1.977   2.317   4.644  0.5195 -0.1078  0.7731
 8078TIP3    H145649   1.969   2.386   4.578  0.5980  0.8869  1.7823
 8078TIP3    H245650   2.014   2.243   4.596 -1.5805 -0.2163 -0.8288
 8079TIP3   OH245651   0.814   6.562   6.612  0.2027  0.4984 -0.2277
 8079TIP3    H145652   0.898   6.588   6.650 -0.4759  0.3779  1.4259
 8079TIP3    H245653   0.798   6.474   6.646 -0.6309  0.5571 -0.4504
 8080TIP3   OH245654   3.765   5.135   5.369 -0.5523  0.2531 -0.1572
 8080TIP3    H145655   3.830   5.157   5.436 -2.4238 -0.2382  1.9599
 8080TIP3    H245656   3.817   5.107   5.294  1.7424 -1.9417  2.0149
 8081TIP3   OH245657   4.433   6.642  16.245  0.3573  0.5288  0.5057
 8081TIP3    H145658   4.468   6.681  16.325 -0.3667  0.5570  0.8094
 8081TIP3    H245659   4.475   6.556  16.241 -1.1002 -0.2946  1.9802
 8082TIP3   OH245660   1.050   2.591   6.358 -0.2815 -0.1180 -0.0170
 8082TIP3    H145661   0.999   2.641   6.295  0.1538  0.4864  0.0967
 8082TIP3    H245662   1.133   2.573   6.313 -0.4044 -0.6697 -0.0285
 8083TIP3   OH245663   2.456   4.559  17.199 -0.4172 -0.2074 -0.1420
 8083TIP3    H145664   2.455   4.521  17.287  1.6717 -1.3958 -0.5606
 8083TIP3    H245665   2.457   4.484  17.140 -0.9726  0.5657 -1.1568
 8084TIP3   OH245666   0.942   2.846  13.873 -0.4638  0.2500  0.1752
 8084TIP3    H145667   0.936   2.767  13.820 -0.2882 -0.2266  0.8490
 8084TIP3    H245668   0.971   2.914  13.812  1.4015 -0.6441 -0.0169
 8085TIP3   OH245669   3.238   6.164   5.903 -0.1808  0.0526  0.1714
 8085TIP3    H145670   3.268   6.127   5.820  0.5919  0.7560  0.1234
 8085TIP3    H245671   3.143   6.158   5.899 -0.1062 -0.9522 -0.2781
 8086TIP3   OH245672   2.561   6.478  14.069  0.8480  0.1874  0.9893
 8086TIP3    H145673   2.494   6.543  14.049  0.3512 -0.2526  1.1898
 8086TIP3    H245674   2.512   6.396  14.082  1.6679 -0.9240 -2.1108
 8087TIP3   OH245675   3.432   2.067   4.248 -0.0743  0.4241 -0.7811
 8087TIP3    H145676   3.520   2.090   4.278  1.7421 -1.9802 -3.6649
 8087TIP3    H245677   3.431   2.092   4.156 -1.3818 -1.9816 -1.5047
 8088TIP3   OH245678   5.052   6.589  10.702 -0.1581 -0.0742  0.3403
 8088TIP3    H145679   5.133   6.631  10.733 -0.8929  0.6289  1.3677
 8088TIP3    H245680   5.081   6.530  10.633  1.0472  1.2820 -0.3648
 8089TIP3   OH245681   5.715   2.239   3.255 -0.9702 -0.1470 -0.3764
 8089TIP3    H145682   5.755   2.271   3.336 -0.3275 -0.3783 -0.5939
 8089TIP3    H245683   5.658   2.167   3.284 -1.1675  0.1284 -0.0705
 8090TIP3   OH245684   1.991   3.661   4.745 -0.0187 -0.3146  0.1650
 8090TIP3    H145685   1.900   3.642   4.722  0.1820 -0.4290 -0.5716
 8090TIP3    H245686   2.003   3.752   4.718  0.9523 -1.1821 -2.6807
 8091TIP3   OH245687   0.046   4.805  15.509  0.3306 -0.0509  0.1486
 8091TIP3    H145688   0.077   4.895  15.500  0.6416 -0.0282  1.2593
 8091TIP3    H245689  -0.030   4.812  15.567  0.1038 -0.4591 -0.0995
 8092TIP3   OH245690   4.766   5.034   5.484  0.4212  0.1671  0.0449
 8092TIP3    H145691   4.735   4.982   5.410  3.8134 -1.9608 -0.1046
 8092TIP3    H245692   4.820   5.103   5.445  0.4909  0.3515  0.4550
 8093TIP3   OH245693   1.912   0.101   1.176 -0.1200 -0.3669 -0.3998
 8093TIP3    H145694   1.993   0.059   1.146  1.0156  2.3317 -1.4071
 8093TIP3    H245695   1.846   0.072   1.114  0.4322 -1.2323 -0.6118
 8094TIP3   OH245696   4.086   5.136   2.170  0.1617  0.1094  0.4034
 8094TIP3    H145697   4.060   5.140   2.078 -0.6409  0.7033  0.6385
 8094TIP3    H245698   4.125   5.222   2.188  0.8127 -0.1976  0.4828
 8095TIP3   OH245699   6.711   1.386   0.836 -0.4950  0.9329 -0.1450
 8095TIP3    H145700   6.745   1.311   0.788  0.4554  1.8577 -0.9642
 8095TIP3    H245701   6.622   1.360   0.862 -0.8281  0.1756 -1.9181
 8096TIP3   OH245702   6.073   4.403  13.901  0.3833  0.1232 -0.2211
 8096TIP3    H145703   6.043   4.485  13.940 -0.2829  0.0405 -0.5521
 8096TIP3    H245704   6.065   4.339  13.971  1.6278  0.4813  0.2707
 8097TIP3   OH245705   0.598   4.559   5.850 -0.2156 -0.1370 -0.1553
 8097TIP3    H145706   0.565   4.531   5.936  2.7341  0.1374  1.1599
 8097TIP3    H245707   0.564   4.648   5.839  0.1823  0.2029  1.2137
 8098TIP3   OH245708   1.564   6.427  12.194 -0.3801 -0.6555 -0.5811
 8098TIP3    H145709   1.527   6.485  12.261 -0.1619  0.5945 -1.4993
 8098TIP3    H245710   1.635   6.381  12.239 -0.4090 -0.0387  0.1207
 8099TIP3   OH245711   4.469   6.492  11.357  0.4737 -0.1524  0.4033
 8099TIP3    H145712   4.477   6.572  11.306  1.2215  0.0500  0.8319
 8099TIP3    H245713   4.508   6.512  11.442  0.8108 -1.0029  0.4678
 8100TIP3   OH245714   3.346   5.770   1.074 -0.1267 -0.1490  0.4807
 8100TIP3    H145715   3.254   5.785   1.055 -0.2463 -0.6520  0.6410
 8100TIP3    H245716   3.388   5.855   1.059 -0.3531 -0.2975 -1.1739
 8101TIP3   OH245717   0.558   0.687  14.080 -0.1358  0.2239 -0.4702
 8101TIP3    H145718   0.547   0.777  14.050  0.5013  0.0473 -1.2704
 8101TIP3    H245719   0.525   0.634  14.008 -1.5364 -0.1883  0.4392
 8102TIP3   OH245720   3.144   2.388  10.647 -0.1785  0.0336  0.2765
 8102TIP3    H145721   3.208   2.458  10.651  1.8162 -1.6515 -0.3074
 8102TIP3    H245722   3.070   2.420  10.699  0.2358  2.8822 -0.7169
 8103TIP3   OH245723   2.791   2.710  17.256 -0.1813  0.1282  0.6505
 8103TIP3    H145724   2.740   2.629  17.265 -0.8811  0.3663 -0.7871
 8103TIP3    H245725   2.837   2.719  17.339 -0.1113 -1.7304  0.8591
 8104TIP3   OH245726   2.462   6.714  15.815  0.0979 -0.4805 -0.3370
 8104TIP3    H145727   2.525   6.644  15.802  0.2453 -0.0237 -2.3200
 8104TIP3    H245728   2.456   6.757  15.730 -3.4412 -0.9518 -0.4452
 8105TIP3   OH245729   5.897   3.199  14.326  0.4074  0.1484  0.1211
 8105TIP3    H145730   5.876   3.192  14.419 -0.3445 -1.2060 -0.1128
 8105TIP3    H245731   5.990   3.220  14.324  0.4383  0.1907  1.1842
 8106TIP3   OH245732   5.428   1.297   2.736 -0.1018 -0.3426 -0.0640
 8106TIP3    H145733   5.422   1.392   2.746  0.3738 -0.3231  0.0598
 8106TIP3    H245734   5.388   1.262   2.816  0.1450 -0.2384  0.1064
 8107TIP3   OH245735   4.737   4.724   3.801 -0.1633 -0.3251 -0.1596
 8107TIP3    H145736   4.726   4.637   3.762 -0.8602  0.0539 -0.8446
 8107TIP3    H245737   4.828   4.726   3.831 -0.2217 -1.3967  0.1383
 8108TIP3   OH245738   0.458   1.808  11.625  0.4125  0.1177  0.0866
 8108TIP3    H145739   0.412   1.892  11.634 -0.6032 -0.4176  0.0179
 8108TIP3    H245740   0.494   1.791  11.712  0.7306  0.6780  0.0709
 8109TIP3   OH245741   6.587   2.835   4.781  0.1925  0.0530 -0.0223
 8109TIP3    H145742   6.601   2.927   4.803 -1.2355  0.0286  1.1648
 8109TIP3    H245743   6.560   2.836   4.689  0.7405  0.7536 -0.1841
 8110TIP3   OH245744   0.010   6.501   5.552 -0.0677  0.3644  0.2179
 8110TIP3    H145745   0.044   6.419   5.517 -1.3665 -0.2228  0.2773
 8110TIP3    H245746  -0.029   6.545   5.477  2.2406  1.8573 -0.2195
 8111TIP3   OH245747   2.784   5.326  15.786  0.1209  0.4153 -0.3803
 8111TIP3    H145748   2.766   5.232  15.792 -0.9650  0.4689 -2.0249
 8111TIP3    H245749   2.700   5.365  15.763  0.2327  2.0046  1.7029
 8112TIP3   OH245750   3.025   3.014  15.714 -0.6594 -0.1639  0.2834
 8112TIP3    H145751   3.076   2.952  15.766 -0.3636  2.1516  2.9719
 8112TIP3    H245752   3.047   3.099  15.750 -0.3224  1.7179 -3.8288
 8113TIP3   OH245753   3.751   1.228   3.250  0.4971 -0.0524 -0.3769
 8113TIP3    H145754   3.715   1.143   3.226  0.0718 -0.4704  1.5805
 8113TIP3    H245755   3.676   1.287   3.253  0.7617  0.3709 -1.5197
 8114TIP3   OH245756   0.470   2.819   0.608 -0.5179 -0.8148 -0.2328
 8114TIP3    H145757   0.508   2.879   0.543 -2.4027  0.5233 -0.1954
 8114TIP3    H245758   0.419   2.876   0.665 -0.8927 -2.2767  0.9464
 8115TIP3   OH245759   6.096   3.032   2.144 -0.0780  0.2527 -0.6228
 8115TIP3    H145760   6.101   3.029   2.048  0.7021 -1.6952 -0.5645
 8115TIP3    H245761   6.100   2.941   2.171 -2.7692  0.5667  1.2030
 8116TIP3   OH245762   2.927   3.446   1.850  0.8245  0.3880 -0.3674
 8116TIP3    H145763   2.840   3.410   1.868 -0.3298  3.0989 -0.0003
 8116TIP3    H245764   2.974   3.375   1.805 -0.9288 -1.7715  0.9897
 8117TIP3   OH245765   0.113   0.261   4.019  0.0823  0.1890 -0.5055
 8117TIP3    H145766   0.022   0.292   4.019 -0.5022 -1.2921 -2.6336
 8117TIP3    H245767   0.143   0.275   4.109 -1.7286  2.1084 -0.1268
 8118TIP3   OH245768   2.682   4.986   4.081  0.0849 -0.7106 -0.3053
 8118TIP3    H145769   2.593   4.980   4.046  0.0556 -0.3746 -0.2928
 8118TIP3    H245770   2.710   5.074   4.060  0.6370 -1.0035 -0.8154
 8119TIP3   OH245771   6.131   1.463  16.846 -0.5420  0.1817 -0.0636
 8119TIP3    H145772   6.162   1.551  16.868  1.5811 -0.5073 -0.1269
 8119TIP3    H245773   6.204   1.422  16.799 -1.5432 -1.5711 -0.1856
 8120TIP3   OH245774   0.543   6.577   0.398 -0.2929 -0.2435  0.5662
 8120TIP3    H145775   0.496   6.534   0.469 -1.1182 -0.9150 -0.3656
 8120TIP3    H245776   0.477   6.632   0.356  0.3920  0.8115  0.8199
 8121TIP3   OH245777   2.807   3.153   4.959 -0.4978  0.2486 -0.3586
 8121TIP3    H145778   2.724   3.163   4.914  0.3042  0.4295 -1.8692
 8121TIP3    H245779   2.807   3.062   4.990 -0.3673 -0.4758 -2.3151
 8122TIP3   OH245780   4.521   0.395  16.058  0.1825 -0.0586  0.2520
 8122TIP3    H145781   4.488   0.305  16.063  0.9366 -0.3601 -0.0042
 8122TIP3    H245782   4.503   0.431  16.145  1.5843 -1.0944  1.0223
 8123TIP3   OH245783   3.524   4.009   3.010  0.7834 -0.7049 -0.0459
 8123TIP3    H145784   3.442   4.049   2.981  2.2186  1.8762 -0.9775
 8123TIP3    H245785   3.550   4.061   3.086  1.2802 -1.8499  0.5847
 8124TIP3   OH245786   4.818   5.963   5.171 -0.0959  0.0767 -0.0790
 8124TIP3    H145787   4.912   5.971   5.154  0.2201 -0.7213  1.1862
 8124TIP3    H245788   4.782   5.934   5.087  0.8536 -0.0676 -0.4541
 8125TIP3   OH245789   4.907   3.193   5.347 -0.3946 -0.4552 -0.5005
 8125TIP3    H145790   4.858   3.211   5.427 -0.4664 -0.3540 -0.5658
 8125TIP3    H245791   4.852   3.229   5.277 -0.0293  0.0467 -0.5355
 8126TIP3   OH245792   3.401   5.755   4.774  0.1878  0.0787  0.1644
 8126TIP3    H145793   3.492   5.724   4.764 -0.3639 -2.0638  1.1624
 8126TIP3    H245794   3.363   5.697   4.840 -1.4993  1.9216  0.9180
 8127TIP3   OH245795   3.817   0.128   1.832 -0.1419 -0.4244 -0.4509
 8127TIP3    H145796   3.904   0.121   1.794 -0.3085  1.5394 -1.3243
 8127TIP3    H245797   3.829   0.180   1.911 -0.5933  0.5254 -0.9856
 8128TIP3   OH245798   3.364   0.523  16.323 -0.1124  0.3428 -0.1603
 8128TIP3    H145799   3.311   0.603  16.321 -2.1768 -0.9555 -0.6502
 8128TIP3    H245800   3.369   0.500  16.416 -0.9198  0.1849 -0.1483
 8129TIP3   OH245801   0.283   3.415  12.327 -0.0817 -0.2594  0.3498
 8129TIP3    H145802   0.270   3.388  12.236  0.4108 -0.5339  0.3550
 8129TIP3    H245803   0.290   3.511  12.323  1.0306 -0.3419 -0.0548
 8130TIP3   OH245804   5.055   3.458   3.019  0.2467 -0.2376  0.2026
 8130TIP3    H145805   5.003   3.532   3.051 -0.4204 -0.5204 -0.2234
 8130TIP3    H245806   5.092   3.419   3.098 -0.0233  0.0885  0.4933
 8131TIP3   OH245807   4.050   2.889  11.686 -0.0883  0.1932 -0.2464
 8131TIP3    H145808   3.992   2.936  11.746  0.8888  1.3858 -0.2139
 8131TIP3    H245809   4.094   2.957  11.636  1.8052 -0.6398  0.1983
 8132TIP3   OH245810   0.559   0.244  11.504 -1.3352  0.4259 -0.1165
 8132TIP3    H145811   0.542   0.333  11.474 -0.4760  1.3999  2.0413
 8132TIP3    H245812   0.652   0.244  11.527 -0.4550 -2.0124 -3.0096
 8133TIP3   OH245813   0.418   5.847  14.199 -0.0349  0.2455 -0.5432
 8133TIP3    H145814   0.343   5.835  14.140  0.6902  1.8679 -1.8666
 8133TIP3    H245815   0.493   5.860  14.141  0.1548  5.7654  0.4025
 8134TIP3   OH245816   6.055   0.230  13.510 -0.6077  0.1631  0.1595
 8134TIP3    H145817   6.093   0.318  13.509  1.5001 -0.6897  0.4690
 8134TIP3    H245818   6.092   0.187  13.433  1.2205 -1.5270  1.8860
 8135TIP3   OH245819   3.007   3.622  15.720 -0.4775  0.1950 -0.2018
 8135TIP3    H145820   2.984   3.712  15.696 -1.3146  0.5820  1.8235
 8135TIP3    H245821   2.932   3.570  15.691  0.0343  0.1135 -1.4313
 8136TIP3   OH245822   0.496   5.191   5.028 -0.5820 -0.9817 -0.4165
 8136TIP3    H145823   0.589   5.213   5.020 -0.2964 -2.4746 -1.7556
 8136TIP3    H245824   0.471   5.223   5.114  1.3499 -1.1319  0.2450
 8137TIP3   OH245825   1.995   3.226   1.623  0.4906 -0.2430  0.0679
 8137TIP3    H145826   2.002   3.226   1.528 -1.6517  1.1335 -0.1611
 8137TIP3    H245827   1.936   3.154   1.644 -0.4238  0.4998  0.1546
 8138TIP3   OH245828   4.348   5.412  14.856 -0.3293 -0.1414 -0.4715
 8138TIP3    H145829   4.395   5.463  14.791  0.1041 -0.7486 -0.6452
 8138TIP3    H245830   4.325   5.474  14.925 -0.1970  0.3660 -0.8843
 8139TIP3   OH245831   0.280   3.952  16.250  0.7202 -0.2154  0.1999
 8139TIP3    H145832   0.212   3.948  16.183  1.0232 -1.0755 -0.0719
 8139TIP3    H245833   0.237   3.994  16.325  0.0256 -0.3200 -0.1265
 8140TIP3   OH245834   5.101   2.664   0.990 -0.3109 -0.0657  0.2284
 8140TIP3    H145835   5.106   2.643   1.083 -1.1410  2.1138  0.8236
 8140TIP3    H245836   5.044   2.741   0.986 -0.9780 -0.6067 -2.1721
 8141TIP3   OH245837   3.369   2.595   1.928  0.7704 -0.4865  0.7013
 8141TIP3    H145838   3.406   2.607   1.840 -0.5141 -1.2708  0.0381
 8141TIP3    H245839   3.282   2.558   1.913  0.8067 -1.3060  2.3358
 8142TIP3   OH245840   6.432   6.776  16.071 -0.0126  0.6882 -0.1816
 8142TIP3    H145841   6.528   6.766  16.068  0.0370  1.2876 -0.6694
 8142TIP3    H245842   6.399   6.686  16.077  0.5320  0.3754 -1.4893
 8143TIP3   OH245843   1.546   1.583   4.308 -0.3121 -0.0603  0.3269
 8143TIP3    H145844   1.566   1.645   4.238 -2.4242  0.5620  0.2044
 8143TIP3    H245845   1.618   1.594   4.371 -0.3035  2.1006  0.0259
 8144TIP3   OH245846   0.626   6.021   4.019  0.2943  0.9181 -0.8393
 8144TIP3    H145847   0.690   6.016   3.948  0.6371 -0.7537 -0.4574
 8144TIP3    H245848   0.636   6.109   4.055  2.2674  0.7492 -0.8920
 8145TIP3   OH245849   2.769   3.446  11.485 -0.1003 -0.3865  0.1178
 8145TIP3    H145850   2.822   3.377  11.525  0.1475 -1.5811 -2.1254
 8145TIP3    H245851   2.721   3.402  11.415  0.1121  1.7158 -1.4413
 8146TIP3   OH245852   3.447   3.620  14.161  0.0397  0.0471  0.0252
 8146TIP3    H145853   3.428   3.526  14.156 -1.9728  0.4223 -0.4419
 8146TIP3    H245854   3.529   3.630  14.114  0.2504 -1.4736  0.0094
 8147TIP3   OH245855   2.024   5.442   1.285  0.0682  0.1808  0.0108
 8147TIP3    H145856   1.952   5.455   1.346 -0.4218 -0.3897 -0.4327
 8147TIP3    H245857   2.097   5.491   1.322 -0.6101  0.9372  0.3547
 8148TIP3   OH245858   0.530   6.307   4.053 -0.5783 -0.4104 -0.1768
 8148TIP3    H145859   0.573   6.389   4.076 -0.7143 -0.5304  0.5201
 8148TIP3    H245860   0.540   6.301   3.958 -0.2743  0.2439 -0.1930
 8149TIP3   OH245861   5.689   4.042   4.342 -0.0010 -0.0036 -0.5690
 8149TIP3    H145862   5.629   4.103   4.300 -0.5994 -0.7599 -0.8482
 8149TIP3    H245863   5.770   4.091   4.353 -0.3706  0.7363 -1.0574
 8150TIP3   OH245864   2.131   0.154  11.555  0.4672  0.3570 -0.4514
 8150TIP3    H145865   2.060   0.213  11.581 -0.1748 -0.1737 -0.9918
 8150TIP3    H245866   2.093   0.097  11.489  1.1597 -0.4841 -0.1505
 8151TIP3   OH245867   0.279   2.176  13.662  0.2444  0.0682 -0.3204
 8151TIP3    H145868   0.317   2.131  13.737 -0.1862  1.1461  0.5718
 8151TIP3    H245869   0.344   2.165  13.592  1.1991  0.0519  0.5492
 8152TIP3   OH245870   1.890   0.952  16.871  0.2116 -0.0272  0.3831
 8152TIP3    H145871   1.942   0.978  16.948  2.3794  0.3661 -1.1093
 8152TIP3    H245872   1.921   1.010  16.801 -0.4951 -1.4611 -1.1901
 8153TIP3   OH245873   0.705   4.326  15.964  0.3577  0.3387  0.0922
 8153TIP3    H145874   0.771   4.272  15.920  0.9733  1.1434  0.0197
 8153TIP3    H245875   0.632   4.330  15.902  0.6884  0.3799 -0.2963
 8154TIP3   OH245876   0.523   5.416   3.492  0.0011  0.3309  0.1573
 8154TIP3    H145877   0.540   5.322   3.485  0.1422  0.4401 -1.1621
 8154TIP3    H245878   0.587   5.448   3.556  0.5892 -0.3050 -0.1120
 8155TIP3   OH245879   3.686   1.023  12.827  0.0086 -0.4921  1.0455
 8155TIP3    H145880   3.653   1.106  12.860 -1.9925  0.4844 -2.8114
 8155TIP3    H245881   3.634   0.956  12.871 -0.7200  0.5158  1.7487
 8156TIP3   OH245882   2.969   2.974   2.062  0.0539  0.5839 -0.0728
 8156TIP3    H145883   2.876   2.967   2.041 -0.0064  1.3776 -0.0864
 8156TIP3    H245884   2.971   3.028   2.141  0.5648  1.4315 -0.6608
 8157TIP3   OH245885   6.440   5.881   2.407 -0.0288 -0.4111  0.2739
 8157TIP3    H145886   6.467   5.926   2.327  1.0024 -0.5632  0.5180
 8157TIP3    H245887   6.365   5.829   2.381  1.2809 -1.7576 -1.0327
 8158TIP3   OH245888   0.827   4.867   3.927  0.6398 -0.4858 -0.1975
 8158TIP3    H145889   0.866   4.826   4.004  0.0650  0.8760  0.8468
 8158TIP3    H245890   0.891   4.932   3.898  1.1363 -1.4149 -1.2888
 8159TIP3   OH245891   3.973   6.558  15.218  0.2251 -0.1543  0.6693
 8159TIP3    H145892   3.934   6.471  15.209 -0.5359  0.1683  0.7581
 8159TIP3    H245893   3.994   6.566  15.311  2.2670 -1.0485  0.3401
 8160TIP3   OH245894   4.613   0.568   0.799 -0.0976  0.5268 -0.4727
 8160TIP3    H145895   4.561   0.526   0.868  0.1448  0.5772 -0.2593
 8160TIP3    H245896   4.704   0.562   0.830  0.0014  0.6374 -0.7402
 8161TIP3   OH245897   4.865   0.144   1.621  0.1214 -0.2828 -0.0580
 8161TIP3    H145898   4.862   0.195   1.541 -0.1521  1.1520  0.8304
 8161TIP3    H245899   4.949   0.099   1.618 -0.6268 -1.6930 -1.9625
 8162TIP3   OH245900   0.998   6.019   4.569  0.4315 -0.3852  0.1677
 8162TIP3    H145901   0.936   6.013   4.497  0.1959  0.3442  0.3058
 8162TIP3    H245902   1.078   6.056   4.531 -0.5837  2.6930  0.7771
 8163TIP3   OH245903   6.335   5.964  16.623 -0.3497  0.1549  0.1461
 8163TIP3    H145904   6.315   5.962  16.529 -0.0951  0.9398  0.0757
 8163TIP3    H245905   6.415   6.016  16.630 -0.1195 -0.2633  0.7612
 8164TIP3   OH245906   2.574   5.494   0.143 -0.1339 -0.5227 -0.5027
 8164TIP3    H145907   2.617   5.580   0.140  0.3008 -0.5902  1.6704
 8164TIP3    H245908   2.487   5.510   0.106 -0.1889  0.9572  0.1675
 8165TIP3   OH245909   6.699   3.297   0.288  0.1744 -0.0685  0.0824
 8165TIP3    H145910   6.682   3.385   0.322 -1.0812 -0.5838  0.8773
 8165TIP3    H245911   6.787   3.276   0.319  0.1380  0.5718  0.6528
 8166TIP3   OH245912   4.364   3.943  15.086  0.1358  0.7850  0.0767
 8166TIP3    H145913   4.375   4.034  15.061  0.5652  0.2137 -1.9801
 8166TIP3    H245914   4.293   3.911  15.029 -0.7313  0.0750  1.4840
 8167TIP3   OH245915   3.063   5.883  13.652  0.1515 -0.7508 -0.1676
 8167TIP3    H145916   3.139   5.937  13.629  0.3164 -1.2014 -0.7143
 8167TIP3    H245917   3.082   5.798  13.613  0.8254 -1.8433  2.2972
 8168TIP3   OH245918   1.700   0.837   7.032 -0.0339  0.1438  0.0263
 8168TIP3    H145919   1.715   0.897   6.959 -2.1329  0.3425 -0.2893
 8168TIP3    H245920   1.774   0.776   7.027 -0.2500 -0.0584 -2.5097
 8169TIP3   OH245921   1.159   0.636  11.239 -0.2124  0.2075 -0.6092
 8169TIP3    H145922   1.233   0.576  11.230 -0.6338 -0.4438  0.1401
 8169TIP3    H245923   1.176   0.684  11.321 -1.7886 -1.6959  0.9408
 8170TIP3   OH245924   2.984   5.954  12.510  0.3541 -0.0112 -0.1571
 8170TIP3    H145925   2.982   5.977  12.603 -1.1264  0.3049 -0.2467
 8170TIP3    H245926   3.077   5.959  12.487  0.9091 -1.2098  1.5621
 8171TIP3   OH245927   2.420   1.736   5.062 -0.1500 -0.3091 -0.0366
 8171TIP3    H145928   2.404   1.671   5.130  3.2830  0.2105  1.4344
 8171TIP3    H245929   2.491   1.699   5.010 -1.3335  0.2302 -2.1591
 8172TIP3   OH245930   4.352   0.054   0.916  0.3846  0.1865  0.1633
 8172TIP3    H145931   4.275  -0.003   0.915  0.2847  0.3263 -0.9736
 8172TIP3    H245932   4.357   0.089   0.827  1.1812  0.9644  0.5036
 8173TIP3   OH245933   1.398   4.527  16.362 -0.2338 -0.3184  0.2094
 8173TIP3    H145934   1.326   4.494  16.308 -0.2959  1.1022 -0.6185
 8173TIP3    H245935   1.477   4.493  16.319 -0.3713 -1.3093  0.7211
 8174TIP3   OH245936   0.414   3.478   2.128 -0.0951  0.4043  0.4375
 8174TIP3    H145937   0.479   3.547   2.143  0.0923  0.0760  1.2200
 8174TIP3    H245938   0.343   3.521   2.081 -0.2779  1.2919  1.4865
 8175TIP3   OH245939   0.733   5.101   1.956  0.0185  0.1900  0.5701
 8175TIP3    H145940   0.670   5.045   2.003  0.0189 -0.6544 -0.4126
 8175TIP3    H245941   0.819   5.067   1.981  0.0110 -0.5080 -0.3206
 8176TIP3   OH245942   0.496   4.086  12.805 -0.4000  0.1310 -0.0452
 8176TIP3    H145943   0.448   4.084  12.888 -1.0551  0.4796 -0.4086
 8176TIP3    H245944   0.582   4.050  12.826 -1.1424 -1.4874  0.4091
 8177TIP3   OH245945   1.475   2.529   1.548 -0.1518  0.4062 -0.4446
 8177TIP3    H145946   1.486   2.591   1.476  1.3908 -0.4445 -0.9890
 8177TIP3    H245947   1.441   2.450   1.506 -2.4496  0.9257  0.2962
 8178TIP3   OH245948   6.089   4.373  15.950 -0.6805  0.2992  1.0140
 8178TIP3    H145949   6.140   4.379  16.031  2.0961 -1.5235 -0.4317
 8178TIP3    H245950   6.147   4.407  15.882 -2.8257  1.5135 -0.3415
 8179TIP3   OH245951   6.077   5.406  14.515 -0.0102  0.2229 -0.5398
 8179TIP3    H145952   6.114   5.326  14.478  0.4475  0.2900 -0.2254
 8179TIP3    H245953   6.149   5.446  14.563 -0.5703  0.1749  0.3630
 8180TIP3   OH245954   5.381   1.372  14.344  0.4465 -0.2908  0.5209
 8180TIP3    H145955   5.456   1.330  14.386  0.9177 -0.7727 -0.7586
 8180TIP3    H245956   5.338   1.302  14.294  0.9791  0.5862 -1.2706
 8181TIP3   OH245957   3.988   0.346   0.621  0.1781 -0.0293  0.2871
 8181TIP3    H145958   3.927   0.271   0.620 -0.1190  0.1688  1.5142
 8181TIP3    H245959   3.964   0.394   0.700  1.0768  0.7843  0.0745
 8182TIP3   OH245960   1.183   3.699   0.177 -0.2031 -0.5927  0.2083
 8182TIP3    H145961   1.106   3.744   0.213  0.0443  2.1528 -2.2909
 8182TIP3    H245962   1.148   3.631   0.121 -0.8041 -0.0323 -0.1064
 8183TIP3   OH245963   4.111   5.647   2.510  0.0564 -0.4363  0.3446
 8183TIP3    H145964   4.131   5.721   2.452 -1.3412 -1.3223 -1.3761
 8183TIP3    H245965   4.054   5.685   2.577 -0.2441  0.1604 -0.2266
 8184TIP3   OH245966   5.233   4.024  16.260 -0.4348  0.5821 -0.4137
 8184TIP3    H145967   5.248   4.108  16.218  0.7494  0.4471 -0.2972
 8184TIP3    H245968   5.269   4.035  16.348 -0.6373  0.0812 -0.2652
 8185TIP3   OH245969   4.796   3.838   2.272  0.0778  0.1526 -0.5490
 8185TIP3    H145970   4.723   3.884   2.311  0.8023  0.6278  0.2867
 8185TIP3    H245971   4.810   3.881   2.188  1.1260  1.9184  0.4664
 8186TIP3   OH245972   5.091   0.144   6.641 -0.5271 -0.0753 -0.6461
 8186TIP3    H145973   5.097   0.082   6.714 -0.5171  0.7247  0.0543
 8186TIP3    H245974   4.999   0.171   6.640 -0.2415  0.9392 -0.0519
 8187TIP3   OH245975   3.629   6.270   5.896  0.0553  0.2448  0.1112
 8187TIP3    H145976   3.632   6.176   5.914  1.4680 -0.1295 -1.8307
 8187TIP3    H245977   3.558   6.302   5.952 -0.6427 -2.0040  0.6322
 8188TIP3   OH245978   6.554   4.649  11.121  0.1279 -0.0312  0.1628
 8188TIP3    H145979   6.514   4.694  11.196  1.7108  0.5670  0.6947
 8188TIP3    H245980   6.484   4.643  11.056 -0.8717  0.7606  1.1303
 8189TIP3   OH245981   1.561   5.167  16.109 -0.0252 -0.5669  0.8021
 8189TIP3    H145982   1.528   5.102  16.171 -1.7529 -1.3771 -0.8487
 8189TIP3    H245983   1.500   5.241  16.117 -0.2058 -0.6390  0.1746
 8190TIP3   OH245984   5.552   6.597   1.551 -0.1792  0.1834  0.3403
 8190TIP3    H145985   5.480   6.655   1.577  0.1399  0.0851  1.5323
 8190TIP3    H245986   5.628   6.655   1.549  0.6253 -0.4692  3.8663
 8191TIP3   OH245987   3.193   2.123   5.114  0.4926 -0.1123  0.1636
 8191TIP3    H145988   3.148   2.167   5.042  0.3287  0.9320  0.8955
 8191TIP3    H245989   3.286   2.137   5.096  0.4642 -0.1360 -0.0067
 8192TIP3   OH245990   5.914   6.337   5.486  0.0531 -0.0285  0.5208
 8192TIP3    H145991   5.996   6.340   5.437  0.3496  0.5502  1.0433
 8192TIP3    H245992   5.853   6.290   5.429  0.5326  0.2023 -0.1849
 8193TIP3   OH245993   5.292   5.889   0.694  0.2380 -0.2530 -0.0620
 8193TIP3    H145994   5.290   5.927   0.606 -0.6581  0.4786  0.2506
 8193TIP3    H245995   5.385   5.889   0.718  0.4125  0.2968 -0.6916
 8194TIP3   OH245996   3.961   4.553  13.097 -0.3908 -0.3444 -0.0921
 8194TIP3    H145997   3.927   4.609  13.166 -0.8846  0.6329 -1.0988
 8194TIP3    H245998   4.000   4.479  13.143  0.0250  0.6831  1.2578
 8195TIP3   OH245999   4.589   3.575  15.962  0.0497 -0.0365 -0.8622
 8195TIP3    H146000   4.567   3.555  15.871 -0.0703 -0.7960 -0.6728
 8195TIP3    H246001   4.666   3.521  15.980 -0.0578 -0.0470 -0.4472
 8196TIP3   OH246002   1.799   5.896   1.233  0.1122 -0.1942 -0.1428
 8196TIP3    H146003   1.710   5.910   1.264  0.1380  0.2996 -0.2905
 8196TIP3    H246004   1.805   5.801   1.220  0.3647 -0.5497  2.1605
 8197TIP3   OH246005   3.811   5.879  11.908  0.4132 -0.3091 -0.3872
 8197TIP3    H146006   3.871   5.905  11.838  1.2414  2.4864  1.1962
 8197TIP3    H246007   3.785   5.790  11.885  2.3249 -0.3150 -3.0618
 8198TIP3   OH246008   6.506   1.014  14.247  0.4010  0.0205 -0.3862
 8198TIP3    H146009   6.476   1.090  14.197  0.1744  0.0766 -0.1685
 8198TIP3    H246010   6.428   0.986  14.296  0.5990 -0.0896 -0.1355
 8199TIP3   OH246011   5.243   6.434  17.041  0.0086 -0.3321  0.6667
 8199TIP3    H146012   5.247   6.428  17.137 -1.5261  0.5445  0.8129
 8199TIP3    H246013   5.209   6.349  17.013  4.3035 -2.2762  0.4747
 8200TIP3   OH246014   0.316   4.103  12.599 -0.3905  0.0278  0.1824
 8200TIP3    H146015   0.382   4.077  12.663 -1.4039  0.6273  1.5339
 8200TIP3    H246016   0.239   4.125  12.652 -0.7576  2.1965 -1.1180
 8201TIP3   OH246017   2.461   5.483   3.119  0.0221  0.9939 -0.2056
 8201TIP3    H146018   2.450   5.568   3.076 -2.2295 -0.1700 -2.1270
 8201TIP3    H246019   2.528   5.438   3.067  0.2629  1.1049  0.0083
 8202TIP3   OH246020   3.461   0.499  11.628  0.5400  0.2957 -0.0639
 8202TIP3    H146021   3.510   0.559  11.573 -1.2720  2.3500  0.4333
 8202TIP3    H246022   3.375   0.494  11.588  0.4084 -1.4340  0.3374
 8203TIP3   OH246023   0.325   5.195  17.116  0.3396 -0.6964 -0.5476
 8203TIP3    H146024   0.233   5.190  17.140 -0.3215 -2.1285 -3.0042
 8203TIP3    H246025   0.362   5.111  17.142  0.5424 -0.7482 -0.9827
 8204TIP3   OH246026   1.705   0.322  15.276  0.2409  0.4783  0.4788
 8204TIP3    H146027   1.661   0.248  15.319 -1.1611  1.0909  0.1532
 8204TIP3    H246028   1.763   0.281  15.212 -0.2970 -0.3510  0.5050
 8205TIP3   OH246029   1.102   1.669   0.887 -0.4059  0.0738 -0.0368
 8205TIP3    H146030   1.105   1.650   0.981 -0.9108 -1.3582 -0.2943
 8205TIP3    H246031   1.041   1.605   0.851 -0.1785  0.5726 -1.3559
 8206TIP3   OH246032   5.722   0.636   1.062 -0.9476 -0.3233  0.0819
 8206TIP3    H146033   5.748   0.650   0.971  0.8820 -0.3898  0.5567
 8206TIP3    H246034   5.671   0.713   1.084  0.1656  0.6121 -0.4672
 8207TIP3   OH246035   5.529   0.331  15.118  0.3787 -0.2081  0.1750
 8207TIP3    H146036   5.533   0.425  15.103 -0.6478 -0.4477 -2.1809
 8207TIP3    H246037   5.620   0.304  15.130  0.9946  0.7563 -1.9179
 8208TIP3   OH246038   3.612   5.212   2.881  0.0628 -0.2299 -0.1360
 8208TIP3    H146039   3.633   5.288   2.827  0.8760 -0.3255  0.0259
 8208TIP3    H246040   3.606   5.247   2.970  0.0942 -0.2947 -0.1083
 8209TIP3   OH246041   1.226   4.792   4.303 -0.3698  0.1311  0.4040
 8209TIP3    H146042   1.151   4.762   4.251  0.1366 -0.4216 -0.0122
 8209TIP3    H246043   1.188   4.854   4.365 -0.9688  0.9060 -0.6996
 8210TIP3   OH246044   3.663   1.830  14.006  0.3651  0.2586  0.0442
 8210TIP3    H146045   3.756   1.816  13.991  0.7036  3.3961 -1.7089
 8210TIP3    H246046   3.647   1.793  14.093  2.8314 -1.7461 -0.2205
 8211TIP3   OH246047   3.249   2.290  11.772 -0.2929  0.2797  0.0792
 8211TIP3    H146048   3.288   2.215  11.817  0.9484  0.2357 -0.9736
 8211TIP3    H246049   3.271   2.366  11.826  1.4136  0.2651 -0.5381
 8212TIP3   OH246050   2.948   0.015   0.469 -0.2986  0.1900  0.4139
 8212TIP3    H146051   2.987  -0.049   0.410 -2.0333 -0.3261 -0.2535
 8212TIP3    H246052   2.979   0.100   0.437 -0.7347 -0.1203 -0.8905
 8213TIP3   OH246053   1.981   6.414  13.493 -0.4268  0.1719 -0.3872
 8213TIP3    H146054   2.051   6.354  13.519 -0.9343  0.3485  1.4706
 8213TIP3    H246055   2.025   6.480  13.440  0.9280  0.5517  1.1535
 8214TIP3   OH246056   5.473   2.998  16.136 -0.3197  0.2652 -0.8764
 8214TIP3    H146057   5.390   3.042  16.155 -0.4761  0.2387 -1.4567
 8214TIP3    H246058   5.534   3.069  16.116  0.1297  0.3584  0.6986
 8215TIP3   OH246059   5.465   3.240  14.112  0.5361 -1.1736 -0.6304
 8215TIP3    H146060   5.501   3.182  14.178  3.9260 -0.9600 -2.0791
 8215TIP3    H246061   5.540   3.290  14.081 -1.4173  0.7215 -2.6817
 8216TIP3   OH246062   1.634   4.827   3.488  0.2184 -0.3275  0.1958
 8216TIP3    H146063   1.725   4.802   3.501  0.3876  0.0069 -0.3398
 8216TIP3    H246064   1.591   4.747   3.458  0.2412 -0.5921  0.8381
 8217TIP3   OH246065   1.935   0.206  14.632  0.4093  0.4683 -0.3657
 8217TIP3    H146066   1.989   0.174  14.704 -0.8821 -1.8308 -0.3360
 8217TIP3    H246067   1.977   0.172  14.553  1.3459  2.2858 -0.7219
 8218TIP3   OH246068   5.527   5.083   5.400 -0.1463 -0.2413 -0.2242
 8218TIP3    H146069   5.458   5.126   5.450 -0.3976 -1.2772  0.3701
 8218TIP3    H246070   5.498   4.992   5.394 -0.4308 -0.0517 -2.8269
 8219TIP3   OH246071   0.200   2.305   3.018 -0.0462 -0.0892  0.0367
 8219TIP3    H146072   0.149   2.251   2.957 -0.5960  1.1108 -0.5824
 8219TIP3    H246073   0.270   2.342   2.964 -1.3222  2.0776 -0.2448
 8220TIP3   OH246074   2.076   6.123   5.305  0.2588  0.1801  0.0098
 8220TIP3    H146075   2.042   6.156   5.388  0.3103  0.3398 -0.0332
 8220TIP3    H246076   2.006   6.139   5.242  0.8857  1.6707 -0.3478
 8221TIP3   OH246077   1.953   1.037  16.217  0.4228 -0.5266  0.3632
 8221TIP3    H146078   2.035   1.086  16.206 -0.0318  0.0469 -0.5927
 8221TIP3    H246079   1.979   0.945  16.207  1.1634 -0.4539  1.4434
 8222TIP3   OH246080   2.875   2.223   4.092 -0.1906 -0.5546 -0.2066
 8222TIP3    H146081   2.933   2.155   4.056  1.8451  0.9910 -0.0671
 8222TIP3    H246082   2.899   2.228   4.185 -1.6931 -0.9353  0.2213
 8223TIP3   OH246083   4.757   2.000  13.998 -0.0937  0.0188 -0.1922
 8223TIP3    H146084   4.699   2.061  14.042  0.5896 -0.1804  1.0451
 8223TIP3    H246085   4.706   1.965  13.925 -0.9615  1.0074 -0.0750
 8224TIP3   OH246086   3.070   1.593  16.925  0.0730 -1.0317  0.4070
 8224TIP3    H146087   3.109   1.680  16.929 -0.3101 -0.7925 -0.7818
 8224TIP3    H246088   3.102   1.549  17.004  1.5259 -0.3431  0.2355
 8225TIP3   OH246089   5.717   1.355   2.740  0.4164 -0.3130  0.1191
 8225TIP3    H146090   5.789   1.364   2.804  1.0690  0.4814 -0.6945
 8225TIP3    H246091   5.645   1.319   2.791 -0.0676  2.9766  2.0781
 8226TIP3   OH246092   3.272   3.180  12.748  0.9663 -0.1893 -0.0147
 8226TIP3    H146093   3.308   3.250  12.695  2.1620 -0.4700  0.3986
 8226TIP3    H246094   3.283   3.101  12.695  0.1308 -0.1584 -0.2501
 8227TIP3   OH246095   4.608   2.720  13.643  0.0055  0.6374 -0.3867
 8227TIP3    H146096   4.668   2.648  13.624 -0.3512  0.3394 -0.3893
 8227TIP3    H246097   4.624   2.741  13.735 -0.0708  0.3800 -0.3119
 8228TIP3   OH246098   1.468   1.063   6.448  0.3535  0.5132 -0.0045
 8228TIP3    H146099   1.392   1.094   6.498 -0.8684 -0.2666 -1.3162
 8228TIP3    H246100   1.508   1.143   6.415  0.4419  0.9651  1.1218
 8229TIP3   OH246101   6.509   5.611   1.044 -0.3016 -0.4069  0.0350
 8229TIP3    H146102   6.444   5.567   1.098 -1.1288  1.4622  0.6284
 8229TIP3    H246103   6.593   5.586   1.082 -0.8700  1.3353  2.6680
 8230TIP3   OH246104   1.214   3.161   4.603 -0.3545 -0.1970  0.9000
 8230TIP3    H146105   1.240   3.070   4.587 -1.2036 -0.3736  0.4883
 8230TIP3    H246106   1.161   3.185   4.527 -0.3934  0.5471  1.1542
 8231TIP3   OH246107   1.975   4.147  15.291  0.1597 -0.5983  0.8220
 8231TIP3    H146108   2.050   4.140  15.233  1.9522 -2.3942  3.2044
 8231TIP3    H246109   1.976   4.068  15.344 -2.1255  0.3337  2.4758
 8232TIP3   OH246110   3.695   3.617  12.614  0.1400  0.1187  0.6598
 8232TIP3    H146111   3.703   3.588  12.524 -0.6549 -1.4006  1.0374
 8232TIP3    H246112   3.644   3.698  12.609  0.3090  0.1780 -0.2579
 8233TIP3   OH246113   4.760   2.758   3.779 -0.0731  0.2077  0.2205
 8233TIP3    H146114   4.765   2.845   3.739 -3.8993  0.1176 -0.8534
 8233TIP3    H246115   4.818   2.704   3.726  0.8266  1.6966 -0.3673
 8234TIP3   OH246116   4.812   6.361  11.675  0.1168  0.1097 -0.5691
 8234TIP3    H146117   4.883   6.409  11.633 -1.1699 -0.5250 -3.8220
 8234TIP3    H246118   4.755   6.335  11.602 -2.2763 -1.3194  1.6410
 8235TIP3   OH246119   0.808   1.468  13.656 -0.5009  0.5645  0.0301
 8235TIP3    H146120   0.796   1.552  13.612 -0.9975  1.0572  1.0887
 8235TIP3    H246121   0.895   1.473  13.695 -1.1296  1.2328  1.4189
 8236TIP3   OH246122   0.320   0.926   5.547  0.2033 -0.4851 -0.4998
 8236TIP3    H146123   0.349   0.872   5.620  0.0636 -0.4343 -0.4077
 8236TIP3    H246124   0.364   1.010   5.560  0.0952 -0.4424 -0.4188
 8237TIP3   OH246125   4.155   3.177   5.890  0.0648 -0.0973 -1.0509
 8237TIP3    H146126   4.075   3.179   5.943  0.0117  0.1754 -1.1411
 8237TIP3    H246127   4.226   3.164   5.952  0.0625  0.8312 -0.8513
 8238TIP3   OH246128   6.125   3.885  13.162  0.3162 -0.2243 -0.5996
 8238TIP3    H146129   6.163   3.970  13.142 -0.7618  0.0510 -1.5935
 8238TIP3    H246130   6.045   3.882  13.110 -0.3045 -1.3402  0.3863
 8239TIP3   OH246131   6.694   6.690  15.501  0.3417  0.6489 -0.0619
 8239TIP3    H146132   6.600   6.673  15.509 -0.2184  3.3327 -0.0966
 8239TIP3    H246133   6.718   6.650  15.417 -1.0068  0.7663 -0.5355
 8240TIP3   OH246134   1.574   4.169   5.175 -0.1790 -0.9863 -0.0216
 8240TIP3    H146135   1.561   4.078   5.149 -1.4710 -0.5456 -1.0049
 8240TIP3    H246136   1.489   4.198   5.208  0.0273  0.0504 -0.3375
 8241TIP3   OH246137   3.206   0.089  13.903 -0.1364 -0.2486 -1.1049
 8241TIP3    H146138   3.216   0.022  13.971 -0.3196  1.8958  1.1823
 8241TIP3    H246139   3.132   0.059  13.850 -0.2472 -1.8081 -0.1225
 8242TIP3   OH246140   0.540   1.508  12.099 -0.9938 -0.4236  0.2556
 8242TIP3    H146141   0.616   1.528  12.045 -0.7934 -0.1609  0.6340
 8242TIP3    H246142   0.551   1.417  12.124 -0.3675 -0.1522  1.0012
 8243TIP3   OH246143   2.651   2.737  12.389 -0.1943 -0.2730  0.2618
 8243TIP3    H146144   2.709   2.739  12.312  0.6203  0.6643  0.8650
 8243TIP3    H246145   2.569   2.701  12.357  0.1536  0.0440 -1.0417
 8244TIP3   OH246146   5.559   1.492  13.372 -0.1550 -0.0810  0.8970
 8244TIP3    H146147   5.521   1.419  13.323 -1.4724  0.3395  1.2411
 8244TIP3    H246148   5.647   1.502  13.336 -1.5895  1.3564 -2.7733
 8245TIP3   OH246149   6.470   4.491   1.160 -0.2683 -0.0520 -1.0089
 8245TIP3    H146150   6.458   4.432   1.085 -1.2171  1.6159 -2.2372
 8245TIP3    H246151   6.546   4.456   1.206 -0.7089 -2.1243 -1.7598
 8246TIP3   OH246152   1.043   3.496  12.309  0.4428 -0.6017 -0.0447
 8246TIP3    H146153   1.126   3.488  12.261  0.1359 -0.5390 -0.5898
 8246TIP3    H246154   1.064   3.553  12.383  1.3595 -2.1321  0.9217
 8247TIP3   OH246155   5.538   6.512   4.057 -0.0315  0.3780 -0.6771
 8247TIP3    H146156   5.581   6.428   4.065  1.3200  1.1842  1.1166
 8247TIP3    H246157   5.476   6.515   4.130 -0.8270  0.5577 -1.3297
 8248TIP3   OH246158   2.003   4.796  13.033 -0.4309  0.0579 -0.3143
 8248TIP3    H146159   1.925   4.747  13.058 -0.6934  0.3935 -0.4804
 8248TIP3    H246160   2.070   4.728  13.019 -1.1088 -0.3606 -1.7334
 8249TIP3   OH246161   5.510   2.914   0.392  0.4177  0.2301 -0.1478
 8249TIP3    H146162   5.489   2.868   0.311  1.6254  0.4453 -0.6081
 8249TIP3    H246163   5.536   2.845   0.453 -2.6226 -0.1808  0.8418
 8250TIP3   OH246164   3.908   1.507  12.645  0.8432  0.1271 -0.2074
 8250TIP3    H146165   3.828   1.455  12.636  0.7401  0.0689  0.9127
 8250TIP3    H246166   3.878   1.597  12.643  0.7370  0.1048  0.2510
 8251TIP3   OH246167   0.569   0.052   3.420 -0.3906  0.6837 -0.2379
 8251TIP3    H146168   0.634   0.115   3.449  2.9880 -1.9927 -1.3155
 8251TIP3    H246169   0.549   0.078   3.330 -0.2777  1.0981 -0.1453
 8252TIP3   OH246170   1.536   3.333   0.574 -0.8019  0.2523 -0.0024
 8252TIP3    H146171   1.498   3.299   0.655  0.1307  0.7979  0.6896
 8252TIP3    H246172   1.598   3.400   0.603  2.4263 -2.1272 -0.8935
 8253TIP3   OH246173   2.950   4.122   2.922 -0.1526  0.1291  0.1924
 8253TIP3    H146174   2.913   4.159   2.842 -0.5736 -0.4048  0.1374
 8253TIP3    H246175   2.908   4.037   2.930 -2.2553  1.2559  2.4625
 8254TIP3   OH246176   0.446   0.673  12.926  0.1081  0.0152  0.6528
 8254TIP3    H146177   0.352   0.684  12.913  0.2126 -0.9767 -1.4165
 8254TIP3    H246178   0.485   0.749  12.882  0.2912  0.9444  2.3383
 8255TIP3   OH246179   4.034   5.759   5.551 -0.1883  0.6084 -0.1985
 8255TIP3    H146180   4.035   5.807   5.634 -1.3470 -0.8297  0.6897
 8255TIP3    H246181   4.021   5.827   5.485 -0.1058  1.6961  0.8674
 8256TIP3   OH246182   1.234   0.639   6.095 -0.1828  0.2770 -0.0826
 8256TIP3    H146183   1.239   0.563   6.036  0.5725  0.3563 -0.1279
 8256TIP3    H246184   1.222   0.713   6.036  0.6995  0.3712 -0.1627
 8257TIP3   OH246185   1.652   2.353   1.953  0.8563 -0.0409 -0.6730
 8257TIP3    H146186   1.572   2.303   1.968  1.6305 -1.0337  0.2588
 8257TIP3    H246187   1.656   2.363   1.858  0.4780 -1.4136 -0.8526
 8258TIP3   OH246188   1.948   3.887  13.171 -0.6853 -0.0255  0.0737
 8258TIP3    H146189   1.908   3.837  13.099 -1.2957  0.7544 -0.1404
 8258TIP3    H246190   1.942   3.978  13.143 -1.6214  0.3621  1.4312
 8259TIP3   OH246191   0.127   4.369   3.692  0.1807 -0.0242  0.6430
 8259TIP3    H146192   0.043   4.395   3.728 -1.1878 -1.6076 -1.1580
 8259TIP3    H246193   0.118   4.275   3.674  2.8590 -0.5979  1.6960
 8260TIP3   OH246194   5.091   4.605  16.501  0.2791 -0.2007  0.6830
 8260TIP3    H146195   5.051   4.586  16.586  0.5737 -1.0743  0.6354
 8260TIP3    H246196   5.173   4.555  16.501 -0.1289 -0.9023 -0.4556
 8261TIP3   OH246197   4.678   3.352  12.919 -0.7840  0.0383 -0.2761
 8261TIP3    H146198   4.647   3.404  12.846  0.8282  3.6712  1.3927
 8261TIP3    H246199   4.644   3.396  12.997  1.8110 -0.5078  1.3059
 8262TIP3   OH246200   1.923   4.327  13.992 -0.3279  0.5698 -0.0391
 8262TIP3    H146201   1.974   4.387  14.046  1.0598 -0.1165 -0.5471
 8262TIP3    H246202   1.854   4.296  14.050  0.5532  0.5984  1.0554
 8263TIP3   OH246203   0.036   3.519  13.823 -0.5619  0.1809 -0.3521
 8263TIP3    H146204  -0.028   3.492  13.758  0.5957 -0.6840 -1.1725
 8263TIP3    H246205   0.116   3.535  13.773 -0.0135  0.8234  0.6950
 8264TIP3   OH246206   5.339   1.299   3.619 -0.6443  0.0635  0.4826
 8264TIP3    H146207   5.317   1.209   3.646 -0.2846 -0.4061 -0.7243
 8264TIP3    H246208   5.257   1.335   3.586 -0.6481 -0.0612  0.3527
 8265TIP3   OH246209   2.984   1.956   4.619 -0.0698  0.3067  0.2568
 8265TIP3    H146210   2.946   1.909   4.545  0.7039 -0.1857  0.1540
 8265TIP3    H246211   2.960   1.905   4.696  0.8114 -0.3106  0.1403
 8266TIP3   OH246212   0.068   2.939  13.984 -0.7645 -0.2858  0.1122
 8266TIP3    H146213   0.016   2.959  14.061 -2.8945  0.5472 -1.4668
 8266TIP3    H246214   0.036   2.853  13.955 -1.3177  0.2444 -0.8862
 8267TIP3   OH246215   2.328   6.303   2.105  0.1101 -0.3599  0.5269
 8267TIP3    H146216   2.355   6.238   2.039  1.7815 -2.2230  2.8874
 8267TIP3    H246217   2.279   6.252   2.169 -1.5402  1.4262  0.7438
 8268TIP3   OH246218   1.069   2.624  17.146  0.0752  0.4593 -0.3168
 8268TIP3    H146219   1.159   2.612  17.176  0.4410 -0.7123 -1.7648
 8268TIP3    H246220   1.072   2.705  17.094  0.7951 -0.5977 -2.0136
 8269TIP3   OH246221   5.560   1.238  13.576  0.5852 -0.0486  0.0923
 8269TIP3    H146222   5.549   1.166  13.638  0.8378 -1.0370 -0.9619
 8269TIP3    H246223   5.474   1.249  13.535  0.4414  0.5411  0.5349
 8270TIP3   OH246224   1.740   4.146   2.407 -0.2038 -0.2775  0.4381
 8270TIP3    H146225   1.829   4.177   2.393 -0.1767 -0.4686  0.1611
 8270TIP3    H246226   1.724   4.086   2.333 -0.7124  0.0933  0.2385
 8271TIP3   OH246227   5.221   2.585  10.706 -0.4707 -0.1319 -0.1267
 8271TIP3    H146228   5.129   2.588  10.678 -0.1677  1.0500 -1.0180
 8271TIP3    H246229   5.259   2.666  10.674  0.7696 -0.3567  0.7133
 8272TIP3   OH246230   1.618   0.863   6.336 -0.0148 -0.2704 -0.2057
 8272TIP3    H146231   1.579   0.934   6.388  0.3899 -0.7704  0.8134
 8272TIP3    H246232   1.572   0.866   6.252 -0.1783  1.0296 -0.0844
 8273TIP3   OH246233   5.710   0.778  14.691  0.1854  0.1989 -0.0004
 8273TIP3    H146234   5.627   0.733  14.676  0.1156  0.1593  0.5043
 8273TIP3    H246235   5.725   0.770  14.785  0.1525  1.2551  0.1040
 8274TIP3   OH246236   2.353   0.072  16.760  0.7663  0.4923 -0.7282
 8274TIP3    H146237   2.380   0.059  16.851  1.4615  1.0319 -0.8491
 8274TIP3    H246238   2.385  -0.006  16.715  1.1344  0.5968 -0.6548
 8275TIP3   OH246239   1.637   2.162   5.780  0.1166 -0.0940  0.0274
 8275TIP3    H146240   1.606   2.244   5.743  0.7912  0.1081 -0.1035
 8275TIP3    H246241   1.557   2.116   5.807 -0.2835  0.4492 -0.2131
 8276TIP3   OH246242   5.461   3.118   4.829  0.1213  0.5438 -0.1658
 8276TIP3    H146243   5.441   3.025   4.845  0.2557  0.1798 -1.9694
 8276TIP3    H246244   5.392   3.165   4.876  0.3099 -0.4383  1.1566
 8277TIP3   OH246245   0.004   3.718  12.673  0.2545  0.1747  0.2580
 8277TIP3    H146246  -0.023   3.791  12.617  1.6396  0.2908 -0.2902
 8277TIP3    H246247   0.020   3.646  12.613 -2.7156 -1.1892  0.9108
 8278TIP3   OH246248   2.503   3.565   1.502  0.6454 -0.3532 -0.1752
 8278TIP3    H146249   2.572   3.499   1.490  0.2971 -0.4469 -1.9781
 8278TIP3    H246250   2.521   3.630   1.434 -1.8468 -1.1438 -1.7375
 8279TIP3   OH246251   4.665   2.888  16.739 -0.1134 -0.0490 -0.5103
 8279TIP3    H146252   4.582   2.932  16.720  0.5211  1.3690 -0.2072
 8279TIP3    H246253   4.706   2.877  16.654 -0.5505 -0.6384 -0.6494
 8280TIP3   OH246254   0.236   2.818  12.761  0.5274  0.0390 -0.2486
 8280TIP3    H146255   0.289   2.888  12.801  0.2642 -0.1509  0.4528
 8280TIP3    H246256   0.281   2.737  12.785 -0.4239 -0.1676  0.9237
 8281TIP3   OH246257   0.613   1.449  14.689 -0.2793  0.1112 -0.2077
 8281TIP3    H146258   0.622   1.358  14.717  1.0395  0.5164  0.7639
 8281TIP3    H246259   0.594   1.497  14.770 -0.3408  0.7782 -0.6133
 8282TIP3   OH246260   2.336   1.999   0.983  0.0630 -0.0824 -0.4781
 8282TIP3    H146261   2.399   2.029   0.917  1.9536 -1.3313  0.6544
 8282TIP3    H246262   2.367   2.038   1.064 -0.4261 -0.9915  0.1583
 8283TIP3   OH246263   3.691   1.965   2.041  0.8099 -0.3683  0.1518
 8283TIP3    H146264   3.690   1.879   2.082 -0.1684  0.5060  2.1447
 8283TIP3    H246265   3.736   2.021   2.104 -1.8692  1.3023  0.7825
 8284TIP3   OH246266   0.810   2.897   0.197  0.4051 -0.1275  0.7281
 8284TIP3    H146267   0.738   2.865   0.251  0.1446  0.2959  0.6412
 8284TIP3    H246268   0.842   2.820   0.151  0.2608 -0.3905  1.0602
 8285TIP3   OH246269   5.769   1.006   4.152 -0.1315 -0.1156  0.2241
 8285TIP3    H146270   5.678   0.978   4.144 -0.7691  1.4059  1.6322
 8285TIP3    H246271   5.793   1.037   4.064 -1.6522  1.3358  0.2804
 8286TIP3   OH246272   3.447   3.026   3.739 -0.2478  0.0421  0.4519
 8286TIP3    H146273   3.482   3.110   3.770 -1.3801  0.9063 -0.5298
 8286TIP3    H246274   3.525   2.972   3.725  0.5874  1.2774  0.0973
 8287TIP3   OH246275   2.227   0.393  11.355 -0.5873 -0.4224  0.1526
 8287TIP3    H146276   2.162   0.430  11.294 -2.1165  0.4090  2.1662
 8287TIP3    H246277   2.214   0.299  11.350 -0.7802 -0.3613 -0.6790
 8288TIP3   OH246278   2.126   2.857  15.648  0.1605  0.3352 -0.7768
 8288TIP3    H146279   2.178   2.936  15.639  0.5321  0.2272  0.2587
 8288TIP3    H246280   2.051   2.884  15.702 -0.7166  0.4238 -2.0135
 8289TIP3   OH246281   1.560   1.040  11.664 -0.6157 -0.5961  0.0434
 8289TIP3    H146282   1.591   0.958  11.624 -0.7665 -0.0561 -1.2115
 8289TIP3    H246283   1.622   1.106  11.633 -2.4132  0.3445 -1.7492
 8290TIP3   OH246284   2.718   1.679   4.337 -0.7667  0.0458 -0.5502
 8290TIP3    H146285   2.700   1.757   4.389 -1.0274 -1.0074  1.0303
 8290TIP3    H246286   2.636   1.662   4.290 -2.6814 -2.1643  3.1493
 8291TIP3   OH246287   6.245   4.527   1.867  0.3362 -0.7338 -0.2976
 8291TIP3    H146288   6.328   4.555   1.905 -0.7899  2.4784  0.0888
 8291TIP3    H246289   6.185   4.524   1.941  0.0381 -3.0567 -0.5706
 8292TIP3   OH246290   6.012   1.372  15.566  0.6732  0.1672 -0.0086
 8292TIP3    H146291   6.092   1.343  15.610  1.1960  0.0086 -1.0267
 8292TIP3    H246292   5.942   1.354  15.628  1.5781  1.8333  1.6056
 8293TIP3   OH246293   2.311   3.272   2.760  0.6773  0.0066 -0.0622
 8293TIP3    H146294   2.304   3.302   2.851 -0.6118 -1.7942  0.4968
 8293TIP3    H246295   2.368   3.195   2.765 -1.6667 -1.8448 -0.2412
 8294TIP3   OH246296   0.340   4.366   4.741 -0.1433 -0.3079  0.0816
 8294TIP3    H146297   0.246   4.372   4.728 -0.1898 -1.7655 -0.4291
 8294TIP3    H246298   0.350   4.336   4.831 -0.2365 -1.2646 -0.2077
 8295TIP3   OH246299   2.123   5.167  12.075 -0.1072  0.5903  0.1663
 8295TIP3    H146300   2.165   5.230  12.133 -1.8947  2.7521 -0.7456
 8295TIP3    H246301   2.032   5.162  12.106  0.2887 -2.9010  1.2512
 8296TIP3   OH246302   5.277   5.352   0.190 -0.4651 -0.0148 -0.4144
 8296TIP3    H146303   5.277   5.436   0.144 -0.4846  0.2450  0.0587
 8296TIP3    H246304   5.243   5.372   0.277 -2.4841 -0.8848 -0.9541
 8297TIP3   OH246305   6.624   2.153  13.750 -0.4388  0.0256 -0.2086
 8297TIP3    H146306   6.575   2.209  13.689  1.8704 -0.4800 -2.7536
 8297TIP3    H246307   6.623   2.067  13.708  2.8874  0.0964 -0.6918
 8298TIP3   OH246308   4.131   3.128  12.711 -0.4342 -0.2233 -0.4344
 8298TIP3    H146309   4.059   3.188  12.695  1.3020  2.2934  0.5370
 8298TIP3    H246310   4.193   3.145  12.640  0.6634  0.1480  0.5839
 8299TIP3   OH246311   4.229   3.179  15.845  0.8382 -0.1074 -0.2824
 8299TIP3    H146312   4.187   3.117  15.905  0.3748  1.1709  0.7621
 8299TIP3    H246313   4.322   3.169  15.861  0.8124 -1.0663 -0.6772
 8300TIP3   OH246314   4.790   1.631  14.290  0.6706 -0.5098  0.1141
 8300TIP3    H146315   4.857   1.640  14.358 -0.0679  1.3229  0.6747
 8300TIP3    H246316   4.804   1.544  14.253  4.1724  0.2211 -0.6440
 8301TIP3   OH246317   2.051   0.750  15.967 -0.1351 -0.4529  0.1291
 8301TIP3    H146318   2.033   0.660  15.937 -0.5563 -0.7576  1.2352
 8301TIP3    H246319   2.080   0.739  16.057 -0.9083  0.5777  0.5192
 8302TIP3   OH246320   2.339   5.672   2.167  0.3567  0.3005  0.1083
 8302TIP3    H146321   2.357   5.608   2.098 -0.2490  0.6895 -0.4176
 8302TIP3    H246322   2.403   5.651   2.235  0.3935 -0.6440 -0.1959
 8303TIP3   OH246323   3.452   4.165  10.607  0.4609 -0.0093 -0.0569
 8303TIP3    H146324   3.447   4.242  10.550  0.8431 -0.9906 -1.4838
 8303TIP3    H246325   3.546   4.147  10.615  0.4551  0.5680  1.5583
 8304TIP3   OH246326   1.614   0.437   0.986 -0.6065 -0.5202  0.1099
 8304TIP3    H146327   1.542   0.448   0.923  0.8198  0.1248 -1.4759
 8304TIP3    H246328   1.665   0.365   0.951  1.0004  0.7577 -0.3103
 8305TIP3   OH246329   1.781   0.272   0.853  0.2612  0.7375  0.3093
 8305TIP3    H146330   1.774   0.190   0.902 -2.1880 -0.0202 -1.1183
 8305TIP3    H246331   1.819   0.246   0.769 -2.8816  0.4469 -1.1557
 8306TIP3   OH246332   2.069   2.381  17.037  0.5601  0.3814 -0.1414
 8306TIP3    H146333   2.026   2.448  17.090  0.7193 -0.8729  1.6666
 8306TIP3    H246334   2.159   2.412  17.028  0.6800  0.3496  0.8356
 8307TIP3   OH246335   5.472   2.804  11.342  0.1277 -0.3582  0.0538
 8307TIP3    H146336   5.425   2.760  11.413  1.1518 -1.8911 -0.1851
 8307TIP3    H246337   5.483   2.736  11.275 -0.3317  0.9068 -1.3539
 8308TIP3   OH246338   3.305   5.095   0.723 -0.3764 -0.1761  0.3942
 8308TIP3    H146339   3.345   5.018   0.683  1.8276  1.3200 -0.4659
 8308TIP3    H246340   3.282   5.151   0.648 -1.8143  0.0828  1.0069
 8309TIP3   OH246341   0.016   2.934   3.214  0.3772 -0.6422  0.2522
 8309TIP3    H146342   0.083   2.872   3.244  1.6976 -0.0337 -1.3068
 8309TIP3    H246343   0.056   3.020   3.224  0.3943 -0.3412 -1.9446
 8310TIP3   OH246344   4.076   0.734   2.058  0.6383 -0.3698 -0.7531
 8310TIP3    H146345   4.139   0.708   2.125  0.1975  0.4230 -0.0197
 8310TIP3    H246346   4.107   0.819   2.027 -1.4577  1.3433  1.5062
 8311TIP3   OH246347   2.462   0.010   4.987 -0.1008  0.3546  0.0273
 8311TIP3    H146348   2.421  -0.070   5.017 -0.1002 -0.4110 -1.9059
 8311TIP3    H246349   2.556  -0.007   4.993 -0.0868  0.6223  0.6361
 8312TIP3   OH246350   1.279   5.415   5.668 -0.2276 -0.2953 -0.5873
 8312TIP3    H146351   1.367   5.450   5.670 -0.9745  1.8518 -1.8306
 8312TIP3    H246352   1.233   5.459   5.740 -0.2355 -1.6204  0.2450
 8313TIP3   OH246353   4.678   0.812   5.615 -0.0227 -0.2721 -0.1132
 8313TIP3    H146354   4.718   0.861   5.687 -0.7947 -0.8027  0.6976
 8313TIP3    H246355   4.619   0.750   5.658 -0.9242 -0.2200 -1.2302
 8314TIP3   OH246356   1.461   6.086   4.852  0.1936 -0.2972  0.0781
 8314TIP3    H146357   1.366   6.083   4.848  0.1790 -0.0135  0.1563
 8314TIP3    H246358   1.483   6.054   4.940  0.3298 -3.1093 -0.8772
 8315TIP3   OH246359   3.692   5.283   6.264 -0.0604 -0.1574  0.1125
 8315TIP3    H146360   3.666   5.372   6.239  1.4209 -0.0569 -1.2304
 8315TIP3    H246361   3.615   5.229   6.245 -0.6334  0.6802  0.0105
 8316TIP3   OH246362   4.945   4.571   1.142 -0.1458  0.3688 -0.4474
 8316TIP3    H146363   4.870   4.622   1.173 -0.8733 -1.7497  1.5490
 8316TIP3    H246364   5.017   4.595   1.200 -0.0429  0.3159 -0.5511
 8317TIP3   OH246365   4.727   6.138   3.158 -0.0173  0.2927  0.3329
 8317TIP3    H146366   4.733   6.190   3.078 -1.8813 -3.1841 -2.3504
 8317TIP3    H246367   4.781   6.061   3.141 -1.1770 -0.9838  2.0506
 8318TIP3   OH246368   2.479   1.155  14.773 -0.1408  0.2461 -0.1226
 8318TIP3    H146369   2.444   1.069  14.796  0.3641 -0.1105 -0.6393
 8318TIP3    H246370   2.454   1.168  14.681 -0.1345  0.6056 -0.0738
 8319TIP3   OH246371   5.218   4.877  11.186 -0.0741  0.2218 -0.1344
 8319TIP3    H146372   5.289   4.829  11.230 -0.0649  0.2472 -0.1217
 8319TIP3    H246373   5.242   4.876  11.094 -0.5575 -0.6516 -0.2702
 8320TIP3   OH246374   0.206   0.885  16.973 -0.2975  0.1734  0.1770
 8320TIP3    H146375   0.195   0.850  17.061  0.6033 -0.1703  0.1595
 8320TIP3    H246376   0.289   0.933  16.976 -1.6890  2.7310  0.3267
 8321TIP3   OH246377   6.476   0.047   3.104  0.0547 -0.4155  0.3150
 8321TIP3    H146378   6.385   0.027   3.084  0.2299 -3.3862  1.9949
 8321TIP3    H246379   6.474   0.086   3.192  0.3434  0.8146 -0.1948
 8322TIP3   OH246380   4.066   2.387  15.707  0.0155  0.3712  0.7482
 8322TIP3    H146381   4.025   2.404  15.622 -1.5262 -2.8425  0.6809
 8322TIP3    H246382   3.993   2.392  15.770  0.0888 -2.0195  1.1248
 8323TIP3   OH246383   0.259   2.687   3.783 -0.2871 -0.3861  0.0400
 8323TIP3    H146384   0.331   2.639   3.823 -0.3355 -0.3702  0.1475
 8323TIP3    H246385   0.235   2.753   3.848 -0.3167 -0.3106 -0.0466
 8324TIP3   OH246386   1.814   5.613   2.492  0.3038  0.0468  0.1523
 8324TIP3    H146387   1.844   5.650   2.575 -2.4577  0.2781  1.1710
 8324TIP3    H246388   1.734   5.565   2.515 -0.3208 -0.2381 -2.3145
 8325TIP3   OH246389   4.348   0.021   5.150 -0.1829 -0.5910  0.1018
 8325TIP3    H146390   4.288   0.061   5.214 -0.3087 -0.9770  0.2291
 8325TIP3    H246391   4.424   0.079   5.150 -0.6522  0.0399 -0.2415
 8326TIP3   OH246392   2.294   2.222  14.759 -0.2667  0.2368  0.0018
 8326TIP3    H146393   2.287   2.318  14.761  0.2685  0.2748  0.2785
 8326TIP3    H246394   2.275   2.195  14.849 -0.2697  0.0922 -0.0414
 8327TIP3   OH246395   1.057   4.387   1.098  0.1013 -0.0351  0.2692
 8327TIP3    H146396   0.999   4.399   1.022 -0.7994  0.6313  1.0487
 8327TIP3    H246397   1.133   4.441   1.079 -1.1779  2.0924  0.9056
 8328TIP3   OH246398   2.331   4.666  11.058  0.1066 -0.1135 -0.0027
 8328TIP3    H146399   2.299   4.604  10.992  0.0308 -1.1832  1.0168
 8328TIP3    H246400   2.373   4.735  11.007 -0.9058 -0.3523 -1.2242
 8329TIP3   OH246401   3.516   4.962  16.303  0.4531 -0.6388  0.0382
 8329TIP3    H146402   3.568   4.882  16.304  0.0766 -0.8857 -0.0525
 8329TIP3    H246403   3.442   4.943  16.245 -0.1745 -0.5736  0.7965
 8330TIP3   OH246404   2.204   0.323   4.379 -0.1658  0.0811 -0.3774
 8330TIP3    H146405   2.277   0.322   4.441  0.3499 -1.4128 -0.9698
 8330TIP3    H246406   2.244   0.298   4.296 -1.4788 -1.6848 -0.5281
 8331TIP3   OH246407   5.140   0.850   4.779  0.5122  0.3845  0.3043
 8331TIP3    H146408   5.068   0.789   4.792  0.2865  0.5602 -0.1167
 8331TIP3    H246409   5.202   0.803   4.724  1.4516 -0.3454  1.9208
 8332TIP3   OH246410   3.564   2.172   5.371 -0.4868 -0.0400 -0.0709
 8332TIP3    H146411   3.650   2.187   5.331 -0.2385  1.0484  0.8029
 8332TIP3    H246412   3.529   2.096   5.325  0.5967 -0.0058 -1.0064
 8333TIP3   OH246413   2.341   6.389  12.317 -0.1847  0.7687 -0.0094
 8333TIP3    H146414   2.337   6.300  12.353  0.5002  1.0140  0.7036
 8333TIP3    H246415   2.415   6.388  12.257  2.0889  1.7351  2.6065
 8334TIP3   OH246416   0.921   0.386   3.627 -0.2715 -0.5624  0.1808
 8334TIP3    H146417   0.841   0.333   3.622 -1.8189  1.5965  0.4706
 8334TIP3    H246418   0.940   0.410   3.537  2.0812 -3.7165 -0.3331
 8335TIP3   OH246419   3.615   4.573   5.739  0.1855 -0.1697  0.4723
 8335TIP3    H146420   3.698   4.601   5.700  0.8763 -0.4207  1.7348
 8335TIP3    H246421   3.635   4.488   5.778 -0.9098 -0.6524  0.0084
 8336TIP3   OH246422   1.468   5.063   2.268  0.9298  0.4932 -0.4553
 8336TIP3    H146423   1.540   5.004   2.245  1.6291  2.0048 -2.4731
 8336TIP3    H246424   1.510   5.148   2.281 -0.3823  1.2416 -0.8990
 8337TIP3   OH246425   0.900   2.047  11.134  0.0799  0.9516 -0.2684
 8337TIP3    H146426   0.859   2.023  11.218  0.1189  1.3878 -0.1233
 8337TIP3    H246427   0.827   2.065  11.076  0.0433  0.1772 -0.4723
 8338TIP3   OH246428   2.742   6.042   2.066 -0.3871 -0.3264  0.0286
 8338TIP3    H146429   2.699   5.960   2.042  0.8834 -1.3279  0.9686
 8338TIP3    H246430   2.813   6.052   2.002 -0.2113 -0.2411  0.2352
 8339TIP3   OH246431   4.506   4.801  14.872  0.3682  0.9165  0.3007
 8339TIP3    H146432   4.448   4.823  14.945  0.6696  0.4337  0.6840
 8339TIP3    H246433   4.582   4.858  14.882  1.3743 -0.5769  1.5720
 8340TIP3   OH246434   6.603   5.074  14.234 -0.2767  0.2580 -1.1547
 8340TIP3    H146435   6.645   5.159  14.250 -0.7877  0.1302  1.3798
 8340TIP3    H246436   6.529   5.094  14.177  0.2523  1.3184 -1.4970
 8341TIP3   OH246437   5.327   2.882  16.824 -0.0185  0.2518 -0.1982
 8341TIP3    H146438   5.272   2.839  16.758 -1.4672  1.1131  0.3879
 8341TIP3    H246439   5.313   2.831  16.903  0.0682  0.4403 -0.0622
 8342TIP3   OH246440   1.693   4.109  16.687  0.1391 -0.8658  0.0537
 8342TIP3    H146441   1.777   4.120  16.643 -0.1721 -0.2729 -0.3937
 8342TIP3    H246442   1.689   4.015  16.707  0.9978 -0.8612  0.2705
 8343TIP3   OH246443   6.575   5.021  11.986 -0.1653 -0.3904 -0.5533
 8343TIP3    H146444   6.554   5.109  11.955 -2.3208 -0.6819 -0.0469
 8343TIP3    H246445   6.556   4.964  11.911  3.3477 -0.3431 -1.6759
 8344TIP3   OH246446   6.463   1.682  11.487 -0.4163 -0.5942  0.1100
 8344TIP3    H146447   6.429   1.603  11.529  0.0856 -1.0553 -0.3305
 8344TIP3    H246448   6.394   1.710  11.428  0.0380 -1.6862 -0.9891
 8345TIP3   OH246449   0.716   0.142  14.100  0.4719 -0.1329  0.3440
 8345TIP3    H146450   0.800   0.099  14.119 -0.0551 -1.5019 -0.2712
 8345TIP3    H246451   0.686   0.173  14.186  1.6461  0.4991  0.5569
 8346TIP3   OH246452   4.952   1.055   2.505 -0.0109 -0.3995 -0.0529
 8346TIP3    H146453   5.036   1.100   2.500 -0.3724  0.5908  2.0143
 8346TIP3    H246454   4.891   1.121   2.537 -1.1656 -1.6115  0.3552
 8347TIP3   OH246455   2.310   1.533  11.375  0.0670  0.2416 -0.3063
 8347TIP3    H146456   2.283   1.519  11.465 -1.9727 -0.2423 -0.9397
 8347TIP3    H246457   2.261   1.610  11.346  1.4531  1.0086 -0.7313
 8348TIP3   OH246458   2.511   5.692   6.388 -0.1955 -0.5921 -0.0370
 8348TIP3    H146459   2.429   5.695   6.338  0.1193  1.0806 -0.5053
 8348TIP3    H246460   2.485   5.714   6.477 -0.5128 -1.9958  0.2495
 8349TIP3   OH246461   6.323   5.161   4.512  0.0310  0.1650  0.1148
 8349TIP3    H146462   6.381   5.206   4.573 -0.6078  1.7296 -0.3968
 8349TIP3    H246463   6.256   5.121   4.568 -1.1227  2.4134  0.4455
 8350TIP3   OH246464   0.586   1.874  12.377  0.6238 -0.1074 -0.2250
 8350TIP3    H146465   0.643   1.930  12.325  0.5356 -0.9040 -1.2101
 8350TIP3    H246466   0.626   1.787  12.372 -0.1433 -0.4789 -0.1207
 8351TIP3   OH246467   2.483   0.839   6.450  0.4837 -0.1917 -0.6563
 8351TIP3    H146468   2.455   0.902   6.383 -0.2703 -1.3548 -1.4759
 8351TIP3    H246469   2.402   0.798   6.481  1.0251 -1.7100 -1.1269
 8352TIP3   OH246470   5.381   4.186   2.250  0.4432  0.0145 -0.3172
 8352TIP3    H146471   5.305   4.127   2.252  0.0802  0.4895  1.4607
 8352TIP3    H246472   5.448   4.138   2.202  0.0241 -1.7216  0.7520
 8353TIP3   OH246473   5.614   3.025   4.382 -0.5547  0.5665 -0.0133
 8353TIP3    H146474   5.675   2.985   4.444 -2.0280 -1.7787  0.0834
 8353TIP3    H246475   5.660   3.023   4.298  0.3905  1.0900  0.4802
 8354TIP3   OH246476   3.104   1.639  10.682  0.1469 -0.0329 -0.5540
 8354TIP3    H146477   3.090   1.564  10.623 -0.8433  0.0727 -0.4702
 8354TIP3    H246478   3.037   1.702  10.656 -0.1109  0.1332  0.4861
 8355TIP3   OH246479   0.671   0.391   5.354 -0.3266 -0.3266 -0.1100
 8355TIP3    H146480   0.747   0.445   5.377 -0.7177  0.1950 -0.0219
 8355TIP3    H246481   0.596   0.446   5.373 -0.6970  0.0003 -2.2748
 8356TIP3   OH246482   3.574   2.778  14.602  0.4948  0.0387  0.1319
 8356TIP3    H146483   3.580   2.687  14.570 -0.5349  0.6175 -1.8328
 8356TIP3    H246484   3.527   2.771  14.686  0.0549 -1.1998 -0.1957
 8357TIP3   OH246485   3.875   5.579   4.613  0.4053  0.2699  0.7272
 8357TIP3    H146486   3.787   5.590   4.650  0.3463  1.7585  0.2119
 8357TIP3    H246487   3.885   5.653   4.553  2.2722  0.4935  1.2517
 8358TIP3   OH246488   4.475   6.571   3.198  0.1911 -0.1916  0.2495
 8358TIP3    H146489   4.402   6.616   3.238 -1.0545 -2.2820  0.4822
 8358TIP3    H246490   4.552   6.598   3.248 -0.2536  2.5415 -0.4097
 8359TIP3   OH246491   0.323   5.184  13.676  0.2768  0.6073 -0.2694
 8359TIP3    H146492   0.282   5.256  13.724  0.2611  1.5720 -1.6541
 8359TIP3    H246493   0.380   5.227  13.613 -0.7156 -0.5156 -2.0339
 8360TIP3   OH246494   1.495   0.684   3.304 -0.4795  0.0386 -0.6839
 8360TIP3    H146495   1.586   0.662   3.281  0.7818  2.5117  1.3799
 8360TIP3    H246496   1.452   0.696   3.220  1.0393 -1.3480 -1.7326
 8361TIP3   OH246497   4.763   4.241  15.907  0.2006 -0.0872 -0.1305
 8361TIP3    H146498   4.785   4.305  15.838  0.3981  0.2823  0.2702
 8361TIP3    H246499   4.670   4.225  15.895 -0.6858  2.8149  1.8088
 8362TIP3   OH246500   0.838   6.088  10.904  0.0779  0.1909 -0.4866
 8362TIP3    H146501   0.846   6.024  10.834 -0.1620 -0.5337  0.1341
 8362TIP3    H246502   0.797   6.164  10.863 -1.3503 -0.7308 -0.8222
 8363TIP3   OH246503   2.292   1.883  17.065 -0.1994 -0.1627 -0.1662
 8363TIP3    H146504   2.252   1.814  17.118  0.1568  0.5157  1.0193
 8363TIP3    H246505   2.242   1.961  17.087  0.7943  0.3870  0.1566
 8364TIP3   OH246506   1.020   6.302   0.249  0.8669  0.1012  0.2578
 8364TIP3    H146507   1.019   6.267   0.338 -1.1807  0.4685  0.4187
 8364TIP3    H246508   1.027   6.397   0.261  1.6814  0.0883 -0.0306
 8365TIP3   OH246509   5.451   1.222  11.746 -0.6288  0.0827 -0.0198
 8365TIP3    H146510   5.530   1.220  11.801  0.3066 -3.1219 -1.2732
 8365TIP3    H246511   5.404   1.141  11.768 -0.4640 -1.1008 -3.4436
 8366TIP3   OH246512   0.750   2.008  15.607  0.1283 -0.4441 -0.0222
 8366TIP3    H146513   0.782   2.086  15.561  1.2225 -0.9676 -0.1876
 8366TIP3    H246514   0.781   2.019  15.697  1.9308 -1.5265 -0.4505
 8367TIP3   OH246515   2.567   0.462  15.677 -0.4246  0.5187  0.1861
 8367TIP3    H146516   2.598   0.553  15.676 -0.8254  0.6675  0.7459
 8367TIP3    H246517   2.511   0.455  15.599 -0.8638  0.9201  0.4642
 8368TIP3   OH246518   1.040   3.121   5.953  0.3313  0.1540  0.1284
 8368TIP3    H146519   0.980   3.055   5.985  1.1753 -0.7732 -0.1422
 8368TIP3    H246520   1.073   3.165   6.031 -0.8140  0.8124  0.2697
 8369TIP3   OH246521   1.489   5.130   0.807  0.4243 -0.2920  0.1356
 8369TIP3    H146522   1.476   5.115   0.713  0.2243 -0.9001  0.2530
 8369TIP3    H246523   1.584   5.134   0.817  0.6192 -3.1293  0.2920
 8370TIP3   OH246524   5.331   1.720  15.679 -0.1812  0.3762 -0.2277
 8370TIP3    H146525   5.290   1.768  15.607  0.1439 -2.7412 -2.7209
 8370TIP3    H246526   5.258   1.678  15.724 -0.4433  2.7421  1.8190
 8371TIP3   OH246527   5.370   3.986  13.268  0.0144 -0.0400 -0.2218
 8371TIP3    H146528   5.411   4.017  13.348  1.5564 -2.0069 -0.1705
 8371TIP3    H246529   5.329   4.064  13.230  0.0945  1.1311  1.9409
 8372TIP3   OH246530   5.742   0.984  12.541  0.0334 -0.1306  0.0079
 8372TIP3    H146531   5.767   1.075  12.528 -1.9158  0.2804 -1.2249
 8372TIP3    H246532   5.825   0.936  12.540  1.1670  1.6593  1.4287
 8373TIP3   OH246533   4.387   1.707   3.819  0.0547  0.0777 -1.3535
 8373TIP3    H146534   4.454   1.774   3.832  0.8800 -1.0100  0.5419
 8373TIP3    H246535   4.306   1.749   3.849  0.4934  0.3821 -0.5430
 8374TIP3   OH246536   5.521   6.446   1.296 -0.8267  0.4244 -0.2980
 8374TIP3    H146537   5.529   6.469   1.388  2.4418 -1.6290  0.1045
 8374TIP3    H246538   5.461   6.371   1.294  1.5101 -1.6369  0.7715
 8375TIP3   OH246539   4.916   5.704   1.934 -0.1000 -0.2929  0.3734
 8375TIP3    H146540   4.962   5.683   2.016  1.7098  1.2295 -0.1677
 8375TIP3    H246541   4.904   5.619   1.891 -1.8407 -1.2305  2.5218
 8376TIP3   OH246542   2.779   5.506   4.936 -0.4584 -0.2676  0.8154
 8376TIP3    H146543   2.722   5.454   4.880 -1.3824  0.4693  1.0330
 8376TIP3    H246544   2.823   5.566   4.876 -1.1768  0.2790  0.8187
 8377TIP3   OH246545   1.143   3.744  16.446  0.0344  0.0904 -1.0325
 8377TIP3    H146546   1.085   3.734  16.371 -1.1502 -1.3568  0.0121
 8377TIP3    H246547   1.088   3.781  16.515  0.8623  0.5325 -0.5866
 8378TIP3   OH246548   5.548   6.104  11.713  0.3763 -0.6759  0.4923
 8378TIP3    H146549   5.506   6.170  11.768 -2.3987 -1.9371  0.0151
 8378TIP3    H246550   5.632   6.143  11.689 -0.6857  2.1908  1.0963
 8379TIP3   OH246551   3.784   1.587   3.337 -0.9010  0.2234 -0.4612
 8379TIP3    H146552   3.871   1.575   3.375 -0.0679 -0.8506 -2.5252
 8379TIP3    H246553   3.729   1.521   3.381 -0.4845  0.3213  0.2225
 8380TIP3   OH246554   3.608   6.475   1.166 -0.2004  0.0132  0.5998
 8380TIP3    H146555   3.678   6.502   1.106  0.8790 -0.4446  1.6057
 8380TIP3    H246556   3.531   6.524   1.138  0.5823  0.6807 -0.4198
 8381TIP3   OH246557   0.417   0.788   0.582 -0.1616  0.2950 -0.0671
 8381TIP3    H146558   0.369   0.850   0.526  2.3783  0.0864 -2.6773
 8381TIP3    H246559   0.494   0.836   0.610  0.2279 -0.6838  0.5941
 8382TIP3   OH246560   5.762   1.845  13.097 -0.4097 -0.3451  0.6409
 8382TIP3    H146561   5.826   1.778  13.122 -0.3508 -1.0134 -1.1766
 8382TIP3    H246562   5.710   1.805  13.028  0.2394  1.7853 -1.1957
 8383TIP3   OH246563   5.726   0.886   5.726  0.2408  0.0112  0.2896
 8383TIP3    H146564   5.779   0.811   5.753  0.8023  0.2303 -0.1828
 8383TIP3    H246565   5.789   0.954   5.705 -0.2944  1.1472  2.1627
 8384TIP3   OH246566   4.397   1.409  13.968  0.7111 -0.2009  0.2409
 8384TIP3    H146567   4.396   1.483  14.028  0.1013 -1.5630  2.0212
 8384TIP3    H246568   4.485   1.371  13.978  0.8731  0.0162 -0.3288
 8385TIP3   OH246569   6.613   6.124   1.274  0.1212  0.7406 -0.1873
 8385TIP3    H146570   6.518   6.112   1.272  0.1986 -0.0639  0.4533
 8385TIP3    H246571   6.625   6.218   1.260 -0.7056  0.6780 -1.4888
 8386TIP3   OH246572   4.102   4.229  12.316 -0.4754  0.2750 -0.4706
 8386TIP3    H146573   4.169   4.296  12.326  0.8218 -0.7428 -1.8441
 8386TIP3    H246574   4.095   4.188  12.402 -0.4411  1.3605  0.0696
 8387TIP3   OH246575   0.564   1.786   2.177 -0.4508 -0.2654 -0.2548
 8387TIP3    H146576   0.659   1.789   2.184 -0.4307 -0.1413 -0.5506
 8387TIP3    H246577   0.534   1.864   2.223 -0.3947 -0.1645 -0.3886
 8388TIP3   OH246578   6.318   4.754   4.329  0.2435 -0.1849 -0.6256
 8388TIP3    H146579   6.392   4.775   4.386 -1.6204 -1.6086  2.6232
 8388TIP3    H246580   6.241   4.782   4.378 -1.5975 -2.7305 -1.8051
 8389TIP3   OH246581   1.027   1.461   4.855  0.3396 -0.1213  0.9477
 8389TIP3    H146582   1.017   1.452   4.950  0.6694  1.3322  1.1474
 8389TIP3    H246583   0.939   1.443   4.820 -0.8102  2.9266  1.8859
 8390TIP3   OH246584   2.402   0.728   2.019  0.6620  0.5912  0.0129
 8390TIP3    H146585   2.313   0.691   2.019  0.6643  0.5271  1.2888
 8390TIP3    H246586   2.405   0.784   1.942 -1.0437  1.8804  0.8292
 8391TIP3   OH246587   4.191   1.134  12.030 -0.1159 -0.5129 -0.2717
 8391TIP3    H146588   4.145   1.218  12.032  0.3164 -0.2931  1.4685
 8391TIP3    H246589   4.260   1.147  11.964  0.1677  0.6256  0.2206
 8392TIP3   OH246590   0.195   5.538   2.522  0.0899 -0.0405  0.2188
 8392TIP3    H146591   0.235   5.492   2.449  0.4985 -0.4028  0.6655
 8392TIP3    H246592   0.157   5.468   2.576 -0.7041  0.2563  0.0716
 8393TIP3   OH246593   2.764   0.710   1.082  0.0410  0.9687  0.5077
 8393TIP3    H146594   2.672   0.686   1.072  0.1992 -0.8477  2.5482
 8393TIP3    H246595   2.762   0.790   1.134 -0.3739  1.9922 -1.0118
 8394TIP3   OH246596   0.289   4.222   2.677  0.1467  0.0156 -0.4419
 8394TIP3    H146597   0.361   4.161   2.663 -0.3806 -0.9832  0.9559
 8394TIP3    H246598   0.325   4.308   2.652  1.1883 -0.7247 -1.5820
 8395TIP3   OH246599   3.465   1.297   4.566  0.0784  0.0321 -0.0813
 8395TIP3    H146600   3.512   1.330   4.642 -0.8550 -0.1775  0.6113
 8395TIP3    H246601   3.430   1.376   4.523 -1.1101  0.0643  0.8787
 8396TIP3   OH246602   2.589   0.835  10.292  0.3294 -0.2604 -0.1333
 8396TIP3    H146603   2.647   0.907  10.267  1.5506 -0.0688  2.8803
 8396TIP3    H246604   2.521   0.877  10.345 -0.8443 -0.9307 -1.0566
 8397TIP3   OH246605   0.254   5.628   0.063 -0.0666  0.6387 -0.0098
 8397TIP3    H146606   0.174   5.665   0.101  0.3336  0.1177  1.3674
 8397TIP3    H246607   0.323   5.649   0.126  0.7911  0.5275 -0.8794
 8398TIP3   OH246608   6.379   0.859   4.437  0.1794  0.5299  0.2930
 8398TIP3    H146609   6.310   0.794   4.454  0.5981 -0.0441 -0.1494
 8398TIP3    H246610   6.353   0.899   4.353  0.2827  0.4451  0.2204
 8399TIP3   OH246611   1.594   1.207   4.783  0.0230  0.2297 -0.0955
 8399TIP3    H146612   1.550   1.237   4.863 -0.2579  1.1298 -0.5636
 8399TIP3    H246613   1.595   1.112   4.790  0.8137  0.3117  1.4031
 8400TIP3   OH246614   4.992   6.528   5.496 -0.0195  0.1274  0.3196
 8400TIP3    H146615   5.082   6.533   5.464  0.0486 -1.6542  0.1757
 8400TIP3    H246616   4.939   6.520   5.416 -0.2118  0.0450  0.4555
 8401TIP3   OH246617   1.448   2.578   0.395 -0.4346 -0.2570 -0.7396
 8401TIP3    H146618   1.400   2.526   0.330 -0.0561  0.3560 -1.5323
 8401TIP3    H246619   1.381   2.612   0.453 -0.6510 -2.0304  0.1135
 8402TIP3   OH246620   1.445   5.304   4.155  0.7808 -0.2811  0.0622
 8402TIP3    H146621   1.403   5.227   4.193  0.5207 -0.5320 -0.7213
 8402TIP3    H246622   1.457   5.364   4.229  1.4829 -1.2852  0.7875
 8403TIP3   OH246623   2.872   0.083  15.333  0.2246  0.9569 -0.2320
 8403TIP3    H146624   2.916   0.143  15.274 -0.7199  3.8747  1.8115
 8403TIP3    H246625   2.943   0.040  15.382  0.8950  1.5507 -0.6690
 8404TIP3   OH246626   3.796   4.294   0.079 -0.0685 -0.3410 -0.6012
 8404TIP3    H146627   3.828   4.205   0.095 -1.6708 -0.8924 -0.3175
 8404TIP3    H246628   3.702   4.290   0.096 -0.2128  1.3734 -0.7720
 8405TIP3   OH246629   5.934   2.505  15.986  0.3332 -0.1421  0.4618
 8405TIP3    H146630   5.944   2.449  16.063  0.4062 -0.1381  0.4547
 8405TIP3    H246631   5.879   2.455  15.926  0.5938 -0.3060  0.3576
 8406TIP3   OH246632   0.398   6.712  11.939  0.4065 -0.3828  0.0123
 8406TIP3    H146633   0.399   6.625  11.980  0.9932  0.6106  2.2452
 8406TIP3    H246634   0.452   6.702  11.861  1.6423 -1.7128  0.9816
 8407TIP3   OH246635   1.143   1.580   3.062  0.6405  0.0677 -0.1831
 8407TIP3    H146636   1.074   1.556   3.124  0.5649 -0.0186 -0.2983
 8407TIP3    H246637   1.106   1.558   2.976  1.3248 -1.2366 -0.1642
 8408TIP3   OH246638   2.046   5.703  15.342 -0.1301  0.1104  0.1438
 8408TIP3    H146639   2.036   5.775  15.279 -0.7995 -0.7681 -0.7781
 8408TIP3    H246640   1.971   5.647  15.327  0.6657 -1.0837  0.4842
 8409TIP3   OH246641   6.186   0.677   4.488 -0.4365  0.7863  0.1004
 8409TIP3    H146642   6.171   0.708   4.577 -0.7341 -1.8309  1.0527
 8409TIP3    H246643   6.106   0.631   4.464  1.5765 -3.6456  0.8792
 8410TIP3   OH246644   5.786   2.189   6.717 -0.6733 -0.3588  0.0465
 8410TIP3    H146645   5.772   2.121   6.651 -0.2184  1.3616 -1.9260
 8410TIP3    H246646   5.862   2.237   6.686 -2.1056  2.2380  0.3046
 8411TIP3   OH246647   6.390   3.686  17.093 -0.0501  0.2295  0.3593
 8411TIP3    H146648   6.377   3.607  17.146 -1.7504  0.4515  0.2973
 8411TIP3    H246649   6.440   3.656  17.017 -1.9287 -1.1087 -0.4041
 8412TIP3   OH246650   2.119   6.399  16.400  0.1321 -0.4092  0.3706
 8412TIP3    H146651   2.146   6.400  16.492  1.6373  0.4997 -0.0442
 8412TIP3    H246652   2.025   6.414  16.402 -0.3226 -2.8645  1.8676
 8413TIP3   OH246653   1.971   0.712  16.597 -0.2778  0.1293 -0.2654
 8413TIP3    H146654   1.977   0.703  16.692  0.1045  1.0374 -0.1937
 8413TIP3    H246655   2.056   0.679  16.565 -0.6542 -0.7886 -0.3519
 8414TIP3   OH246656   2.818   5.043   4.518  0.1257  0.1949 -0.4569
 8414TIP3    H146657   2.913   5.036   4.528  0.3437  0.7733 -1.8231
 8414TIP3    H246658   2.800   5.137   4.529 -0.0286  0.3576 -1.8422
 8415TIP3   OH246659   4.147   2.186   3.046 -0.2099 -0.1420 -0.3536
 8415TIP3    H146660   4.077   2.244   3.018 -0.4181 -0.3250 -0.2147
 8415TIP3    H246661   4.219   2.244   3.068 -0.1587  0.0242 -0.9378
 8416TIP3   OH246662   4.235   2.730  10.662 -0.6844 -0.4098 -0.7153
 8416TIP3    H146663   4.166   2.713  10.597 -1.7849 -0.4615  0.4089
 8416TIP3    H246664   4.190   2.720  10.747  0.3478  1.0720  0.0486
 8417TIP3   OH246665   3.690   3.017  15.839  0.5717  0.5524 -0.3912
 8417TIP3    H146666   3.621   3.079  15.864 -0.2389 -0.0347 -1.0837
 8417TIP3    H246667   3.663   2.934  15.878  0.3062  0.0733 -1.5432
 8418TIP3   OH246668   1.217   3.534   2.595 -0.1387 -0.3199  0.1528
 8418TIP3    H146669   1.168   3.469   2.646 -0.4746 -1.3857 -1.4553
 8418TIP3    H246670   1.149   3.588   2.553  0.1315  0.3706  0.5741
 8419TIP3   OH246671   1.564   1.340   2.257 -0.2436 -0.1620  0.2829
 8419TIP3    H146672   1.603   1.417   2.215 -0.3662 -0.1485  0.1959
 8419TIP3    H246673   1.575   1.357   2.351 -1.3584  0.5419  0.3120
 8420TIP3   OH246674   1.188   5.151  12.288  1.1659  0.1846  0.6700
 8420TIP3    H146675   1.268   5.142  12.236  0.9969 -0.1650  0.4656
 8420TIP3    H246676   1.172   5.246  12.291  1.6292  0.2614  0.7829
 8421TIP3   OH246677   6.608   2.666   4.319  0.0791 -0.0985 -0.0128
 8421TIP3    H146678   6.524   2.687   4.360 -0.1943 -0.0837 -0.5637
 8421TIP3    H246679   6.598   2.575   4.290 -0.7966  0.7155 -2.5304
 8422TIP3   OH246680   3.550   4.182   0.779 -0.2869 -0.1458  0.3750
 8422TIP3    H146681   3.621   4.173   0.715 -0.9399  1.1055 -0.5822
 8422TIP3    H246682   3.586   4.148   0.860  1.3294  0.2208 -0.1450
 8423TIP3   OH246683   1.066   3.308   0.835 -0.0128 -0.0481 -0.0562
 8423TIP3    H146684   0.997   3.359   0.793 -0.7516 -0.6450  0.3908
 8423TIP3    H246685   1.122   3.373   0.877 -1.1739  0.3849  0.8627
 8424TIP3   OH246686   2.065   6.644   5.236  0.4269 -0.4999  0.1638
 8424TIP3    H146687   2.023   6.638   5.322  0.9581  1.9155  0.6737
 8424TIP3    H246688   2.157   6.659   5.256  0.4073  1.0847 -0.7438
 8425TIP3   OH246689   0.493   3.545  11.127  0.2540  0.0821 -0.0357
 8425TIP3    H146690   0.441   3.600  11.069 -1.7101 -0.1764  1.3869
 8425TIP3    H246691   0.486   3.587  11.213  2.6177  0.1475  0.1911
 8426TIP3   OH246692   3.546   4.267  13.751 -0.6901 -0.2271  0.1525
 8426TIP3    H146693   3.540   4.342  13.692  0.7516 -1.0270 -1.0647
 8426TIP3    H246694   3.466   4.272  13.803 -0.3220  2.5406  0.6133
 8427TIP3   OH246695   2.134   2.247  13.816 -0.0081 -0.3472  0.8202
 8427TIP3    H146696   2.183   2.226  13.895 -0.4882 -1.6496  0.8123
 8427TIP3    H246697   2.082   2.324  13.839  1.0785  0.2893  1.2243
 8428TIP3   OH246698   6.525   0.016   0.636  0.0293  0.7105  0.1959
 8428TIP3    H146699   6.434  -0.010   0.650  0.0555  0.9318  0.7989
 8428TIP3    H246700   6.519   0.103   0.597 -0.0201  1.7677  2.3711
 8429TIP3   OH246701   2.086   0.904  10.936  0.0515  0.0051 -0.3523
 8429TIP3    H146702   2.111   0.901  11.029 -0.9363  2.5687  0.0800
 8429TIP3    H246703   1.994   0.876  10.936  0.2234 -0.5691 -0.6577
 8430TIP3   OH246704   0.007   0.948  12.699  0.2315  1.0757  0.3693
 8430TIP3    H146705  -0.077   0.952  12.743  0.3151 -1.5554  0.9265
 8430TIP3    H246706  -0.005   0.882  12.630  1.2705  2.1492 -0.9003
 8431TIP3   OH246707   1.136   5.089   0.848  0.0854 -0.0214  0.6804
 8431TIP3    H146708   1.065   5.066   0.908 -0.4078  1.9037  0.9052
 8431TIP3    H246709   1.212   5.102   0.904 -0.1738  0.9868  0.8020
 8432TIP3   OH246710   0.284   5.488  14.293  0.1344  0.1630  0.8224
 8432TIP3    H146711   0.379   5.490  14.291  0.1717  2.8183  1.9456
 8432TIP3    H246712   0.262   5.400  14.261  2.9816 -1.1743  2.1027
 8433TIP3   OH246713   4.124   4.541  16.090 -0.3719  0.0146  0.7831
 8433TIP3    H146714   4.057   4.506  16.148 -0.2294  0.7629  1.4127
 8433TIP3    H246715   4.195   4.568  16.148  0.2337 -0.2259  0.1708
 8434TIP3   OH246716   3.910   5.242   2.873 -0.2703 -0.1748  0.4515
 8434TIP3    H146717   3.819   5.268   2.858  0.0696  0.8789  0.1397
 8434TIP3    H246718   3.907   5.189   2.952 -1.0348  0.7005  1.0295
 8435TIP3   OH246719   1.915   0.869   3.848  0.5143 -0.4111 -0.2232
 8435TIP3    H146720   1.911   0.831   3.936 -3.8751 -0.5455 -0.2598
 8435TIP3    H246721   1.909   0.794   3.789 -1.4215 -0.1418 -0.4369
 8436TIP3   OH246722   5.392   5.197  14.099 -0.1847  0.0818 -0.0968
 8436TIP3    H146723   5.430   5.129  14.155  0.3768 -0.7479 -1.4318
 8436TIP3    H246724   5.446   5.195  14.020  0.3733  2.6457  0.1099
 8437TIP3   OH246725   0.277   6.436  12.958 -0.2546  0.2485  0.2402
 8437TIP3    H146726   0.244   6.390  12.880 -0.1194  0.0993  0.2701
 8437TIP3    H246727   0.344   6.495  12.924  2.3726 -2.2876  0.5899
 8438TIP3   OH246728   4.429   2.451   5.692  0.0207 -0.0007 -0.2963
 8438TIP3    H146729   4.488   2.385   5.655 -2.2512 -2.7146  0.5775
 8438TIP3    H246730   4.368   2.471   5.621 -0.4549 -0.3388  0.0083
 8439TIP3   OH246731   0.283   2.603  13.420  0.3683 -0.2366 -0.5621
 8439TIP3    H146732   0.287   2.541  13.492 -1.0210  0.9872  0.6213
 8439TIP3    H246733   0.338   2.677  13.448 -1.6338  1.0617  0.1312
 8440TIP3   OH246734   4.196   4.821  11.882  0.2028 -0.5092 -0.6511
 8440TIP3    H146735   4.279   4.841  11.925 -0.0809  1.8864 -1.0729
 8440TIP3    H246736   4.148   4.768  11.945  1.2120 -0.1085  0.4934
 8441TIP3   OH246737   0.011   5.395   5.726 -0.3840  0.2893  0.2079
 8441TIP3    H146738  -0.033   5.473   5.761  0.7382  1.3492 -0.6699
 8441TIP3    H246739  -0.049   5.323   5.746 -0.8214  1.1523  2.2890
 8442TIP3   OH246740   0.696   3.689  12.206  0.1410 -0.3044 -0.2529
 8442TIP3    H146741   0.675   3.624  12.273 -1.2922  1.1632  0.8007
 8442TIP3    H246742   0.789   3.709  12.220  0.0970 -0.7037  0.6858
 8443TIP3   OH246743   5.678   4.313  12.188 -0.5531  0.1103  0.6607
 8443TIP3    H146744   5.612   4.374  12.220 -1.6697  1.9089 -4.1827
 8443TIP3    H246745   5.760   4.362  12.192 -1.2203  1.6366 -1.8758
 8444TIP3   OH246746   4.441   5.841   4.454  0.2607  0.3341 -0.0755
 8444TIP3    H146747   4.368   5.783   4.474 -0.1909  1.4109  1.5941
 8444TIP3    H246748   4.480   5.861   4.540  2.1119  0.3193 -0.8603
 8445TIP3   OH246749   2.994   6.626   4.391  0.8115  0.0918 -0.5894
 8445TIP3    H146750   3.010   6.550   4.335  0.5272  0.1352 -0.7270
 8445TIP3    H246751   3.052   6.612   4.466  1.4249  0.1918 -1.0360
 8446TIP3   OH246752   6.204   6.006   3.955 -0.2395  0.1708  0.0063
 8446TIP3    H146753   6.265   6.043   4.019 -1.3078 -1.8600  2.3767
 8446TIP3    H246754   6.260   5.975   3.883  0.9029  3.5113 -0.7198
 8447TIP3   OH246755   0.185   2.786   0.885 -0.1742  0.0319  0.0785
 8447TIP3    H146756   0.238   2.816   0.959 -2.1931  0.1163  1.5711
 8447TIP3    H246757   0.221   2.701   0.862  1.6842  0.8307 -0.1110
 8448TIP3   OH246758   2.285   6.383  11.931 -0.2612  0.1223  0.3205
 8448TIP3    H146759   2.255   6.314  11.990  1.5767 -0.8538  0.1950
 8448TIP3    H246760   2.234   6.371  11.852 -0.7881 -0.3368  0.7229
 8449TIP3   OH246761   5.189   5.910   6.295 -0.2140 -0.0270 -0.0648
 8449TIP3    H146762   5.141   5.993   6.294 -1.0338 -0.4918 -0.9997
 8449TIP3    H246763   5.261   5.924   6.357 -0.6058  1.2253  0.1250
 8450TIP3   OH246764   5.187   3.367   3.251  0.1713  0.5922  0.9032
 8450TIP3    H146765   5.251   3.353   3.182  0.7180 -4.5009  2.0963
 8450TIP3    H246766   5.239   3.370   3.331 -0.7818 -3.3364  1.8585
 8451TIP3   OH246767   1.896   0.763   5.068  0.5244  0.5575 -0.0985
 8451TIP3    H146768   1.895   0.782   4.975  1.7829  1.3363  0.0136
 8451TIP3    H246769   1.909   0.849   5.109  0.0208  0.2229  0.7842
 8452TIP3   OH246770   0.101   1.816   0.370 -0.6632 -0.3864  0.2821
 8452TIP3    H146771   0.186   1.794   0.406 -0.1679  1.5082  0.3956
 8452TIP3    H246772   0.038   1.769   0.424  0.2441 -0.5577  1.1976
 8453TIP3   OH246773   1.542   4.932  13.535  0.4307  0.3875  0.5097
 8453TIP3    H146774   1.545   5.023  13.565 -0.2181  0.6762 -0.2403
 8453TIP3    H246775   1.580   4.881  13.606  2.2448  1.3933  0.3275
 8454TIP3   OH246776   0.099   3.764  14.562  0.5134 -0.2005 -0.3689
 8454TIP3    H146777   0.052   3.712  14.496 -0.9049 -1.0420  1.2371
 8454TIP3    H246778   0.191   3.755  14.538  0.3312 -3.3014 -0.3115
 8455TIP3   OH246779   3.522   2.039   1.477 -0.0358  0.3368 -0.1687
 8455TIP3    H146780   3.493   2.130   1.484 -1.1042  0.1596 -1.8477
 8455TIP3    H246781   3.547   2.015   1.566 -0.6589  1.9675  0.4795
 8456TIP3   OH246782   4.534   6.115  17.092  0.1652  0.0478 -0.1453
 8456TIP3    H146783   4.513   6.033  17.047  0.9587 -1.5536  2.2099
 8456TIP3    H246784   4.449   6.153  17.114 -0.2492 -0.9853  0.1251
 8457TIP3   OH246785   0.744   4.911   6.697  0.6632 -0.2144 -0.0883
 8457TIP3    H146786   0.756   5.002   6.724 -0.1920 -0.2523  0.4320
 8457TIP3    H246787   0.684   4.916   6.622 -0.0756 -0.4091  0.4822
 8458TIP3   OH246788   6.040   3.384  13.036  0.3268 -0.2918  0.0238
 8458TIP3    H146789   5.980   3.458  13.037  2.1842  1.2799  0.2939
 8458TIP3    H246790   6.051   3.363  12.944  2.2790  1.9699 -0.3467
 8459TIP3   OH246791   3.510   0.127   3.892 -0.3090 -0.0312  0.3732
 8459TIP3    H146792   3.514   0.038   3.927 -1.0522  0.0798  0.7589
 8459TIP3    H246793   3.452   0.174   3.952  0.9688  1.0205  0.8386
 8460TIP3   OH246794   0.278   2.247   5.089 -0.3810 -0.4037 -0.3080
 8460TIP3    H146795   0.257   2.319   5.029  0.5343 -0.1434 -0.3333
 8460TIP3    H246796   0.295   2.290   5.172 -1.7519 -0.7749  0.1794
 8461TIP3   OH246797   5.536   0.602  15.013  0.6136 -0.7766 -0.0504
 8461TIP3    H146798   5.588   0.667  15.061  0.8496 -2.1155  1.5521
 8461TIP3    H246799   5.453   0.647  14.995  1.6255  0.7961 -1.1480
 8462TIP3   OH246800   3.445   4.361  16.182  0.6669  0.1086  0.6063
 8462TIP3    H146801   3.512   4.322  16.238  0.4934 -1.7058 -0.3719
 8462TIP3    H246802   3.371   4.301  16.188  0.2953  0.3946 -0.7926
 8463TIP3   OH246803   6.514   1.695  16.693 -0.2209  0.0098  0.2205
 8463TIP3    H146804   6.427   1.718  16.727 -0.5309 -2.3521  1.2025
 8463TIP3    H246805   6.572   1.705  16.768 -0.3887 -2.2803  0.7263
 8464TIP3   OH246806   2.629   4.205   1.028  0.2610  0.3399 -0.2590
 8464TIP3    H146807   2.624   4.201   1.123  1.7388 -2.0770 -0.1930
 8464TIP3    H246808   2.540   4.188   0.998  0.1443 -0.9809  0.7351
 8465TIP3   OH246809   1.258   1.025  10.465 -0.6693 -0.2898  0.1874
 8465TIP3    H146810   1.237   1.116  10.445  0.4405 -0.1644 -0.4600
 8465TIP3    H246811   1.351   1.015  10.443  0.0251 -0.8098  2.9665
 8466TIP3   OH246812   0.301   4.309  15.602 -0.3411 -0.8244 -0.9793
 8466TIP3    H146813   0.345   4.300  15.518 -0.1399  0.3028 -1.0020
 8466TIP3    H246814   0.241   4.383  15.590 -0.6704 -0.9715 -0.2884
 8467TIP3   OH246815   5.593   5.822  12.840  0.4519 -0.0298 -0.1181
 8467TIP3    H146816   5.598   5.727  12.846 -0.0873  0.0173  2.5159
 8467TIP3    H246817   5.503   5.840  12.815  0.6152 -0.1968 -0.8467
 8468TIP3   OH246818   3.002   3.628  16.244  0.2977 -0.5046  0.4238
 8468TIP3    H146819   3.092   3.641  16.272  0.7538 -2.3644 -0.0407
 8468TIP3    H246820   3.009   3.578  16.162 -1.1405 -0.9180  0.5197
 8469TIP3   OH246821   5.983   3.710   0.307 -0.0593  0.1607  0.3567
 8469TIP3    H146822   5.971   3.647   0.378 -0.7743  0.4536  0.5112
 8469TIP3    H246823   5.981   3.658   0.227  0.0944 -0.0997  0.5243
 8470TIP3   OH246824   4.853   5.946  14.913  0.5273 -0.3313  0.0618
 8470TIP3    H146825   4.836   5.858  14.947  0.9925 -0.4095  0.0991
 8470TIP3    H246826   4.948   5.951  14.907  0.5096  0.2395  0.2355
 8471TIP3   OH246827   2.642   5.424  16.868  0.1082 -0.6580  0.3183
 8471TIP3    H146828   2.609   5.411  16.779  0.8822 -1.6964  0.1604
 8471TIP3    H246829   2.685   5.341  16.890  0.6780 -0.1168  1.3366
 8472TIP3   OH246830   6.563   0.966   5.880 -0.0243  0.0098  0.3116
 8472TIP3    H146831   6.578   0.934   5.969 -1.2305 -0.9556  0.1897
 8472TIP3    H246832   6.609   0.903   5.824 -0.7879 -0.4417  0.1743
 8473TIP3   OH246833   2.705   0.919   0.844  0.2575 -0.0926  0.4277
 8473TIP3    H146834   2.645   0.965   0.786  1.2990  1.0631  0.2149
 8473TIP3    H246835   2.681   0.827   0.836  1.8780 -0.3664 -3.7844
 8474TIP3   OH246836   2.361   1.017   2.852  0.3507  0.1276 -0.2697
 8474TIP3    H146837   2.362   0.936   2.800 -0.4726 -0.2124  0.2298
 8474TIP3    H246838   2.433   1.007   2.914 -1.2320 -1.3385  1.4309
 8475TIP3   OH246839   3.836   1.506  14.270  0.4173  0.2843  0.0826
 8475TIP3    H146840   3.830   1.522  14.176 -1.4735  3.0001  0.5339
 8475TIP3    H246841   3.750   1.471  14.294 -0.1017  2.1478  1.1248
 8476TIP3   OH246842   0.610   1.254  15.935 -0.0587 -0.4236  0.5095
 8476TIP3    H146843   0.683   1.299  15.977  0.6922  0.9277 -2.0405
 8476TIP3    H246844   0.652   1.195  15.872 -1.1228 -0.2161 -0.4325
 8477TIP3   OH246845   2.940   2.588  10.508 -0.0189 -0.1237 -0.2617
 8477TIP3    H146846   2.876   2.545  10.451  1.4878 -0.9353 -1.3777
 8477TIP3    H246847   3.024   2.578  10.464  0.6530  2.7094  0.1649
 8478TIP3   OH246848   5.821   1.443  10.366  0.5787 -0.0915 -0.2652
 8478TIP3    H146849   5.832   1.533  10.335 -0.4218 -0.6354 -2.3850
 8478TIP3    H246850   5.751   1.449  10.431 -0.7932  0.4655 -1.7135
 8479TIP3   OH246851   2.896   4.505  15.824  0.4971  0.2978  0.0127
 8479TIP3    H146852   2.909   4.598  15.808  1.3961  0.4750  1.5892
 8479TIP3    H246853   2.873   4.499  15.917  1.7009 -1.1309  0.2530
 8480TIP3   OH246854   1.918   0.169  13.212 -0.5037 -0.3214  0.2609
 8480TIP3    H146855   1.965   0.129  13.139  0.5147  0.1758  0.6309
 8480TIP3    H246856   1.852   0.104  13.237 -0.5730 -0.6764 -0.8045
 8481TIP3   OH246857   2.528   3.855  12.689 -0.5735 -0.7112 -0.6235
 8481TIP3    H146858   2.500   3.857  12.780  0.2463 -2.1615 -0.3014
 8481TIP3    H246859   2.463   3.907  12.642 -1.7810 -1.0781  0.5907
 8482TIP3   OH246860   6.294   3.450  12.514  0.2849  0.3539 -0.7508
 8482TIP3    H146861   6.236   3.392  12.465  0.2976 -1.2108  0.9718
 8482TIP3    H246862   6.236   3.506  12.565  0.1820 -1.3156  1.0912
 8483TIP3   OH246863   3.527   6.578  11.726  0.1124 -0.0923  0.1914
 8483TIP3    H146864   3.619   6.599  11.709  0.4136 -0.6775  1.0002
 8483TIP3    H246865   3.508   6.504  11.669  0.0961  0.1166 -0.0777
 8484TIP3   OH246866   3.522   2.563  14.031  0.4864  0.2795 -0.3705
 8484TIP3    H146867   3.443   2.518  14.059  1.3561 -1.3279 -0.3552
 8484TIP3    H246868   3.542   2.525  13.946  1.3469  0.4999 -0.2769
 8485TIP3   OH246869   1.652   2.365   1.693  0.6852 -0.1540 -0.2978
 8485TIP3    H146870   1.663   2.307   1.618 -0.3963  0.1169 -0.7004
 8485TIP3    H246871   1.585   2.428   1.664 -0.2762 -0.4676  1.1257
 8486TIP3   OH246872   0.875   6.054   3.584 -0.1583 -0.1790  0.5739
 8486TIP3    H146873   0.887   5.968   3.623 -1.0403 -0.8751 -0.6152
 8486TIP3    H246874   0.957   6.071   3.537  0.0094 -0.3790  0.7967
 8487TIP3   OH246875   2.506   5.065   5.485 -0.4649 -0.0846  0.1741
 8487TIP3    H146876   2.457   5.116   5.549 -2.1193  1.1469 -1.9177
 8487TIP3    H246877   2.559   5.130   5.438  0.0482 -0.8257 -0.3005
 8488TIP3   OH246878   4.110   0.400   5.405 -0.2332 -0.1117 -0.5920
 8488TIP3    H146879   4.092   0.367   5.317  0.1267 -1.0387 -0.3295
 8488TIP3    H246880   4.090   0.494   5.400  0.3468 -0.0290 -1.8188
 8489TIP3   OH246881   4.927   2.941   5.202  0.2852  0.1912  0.4141
 8489TIP3    H146882   4.957   3.028   5.228  0.4664  0.0192  0.7851
 8489TIP3    H246883   4.872   2.957   5.125  0.2772  0.6376  0.5087
 8490TIP3   OH246884   1.943   1.747  15.001  0.4206  0.2071 -0.4719
 8490TIP3    H146885   2.020   1.693  14.985  0.7045  0.6677 -0.6753
 8490TIP3    H246886   1.953   1.822  14.942 -0.0769  0.3760 -0.3506
 8491TIP3   OH246887   3.888   2.650   5.586 -0.1280  0.2284  0.2885
 8491TIP3    H146888   3.891   2.612   5.674  0.0358 -1.1123 -0.2785
 8491TIP3    H246889   3.806   2.618   5.549 -0.4189  1.1600  0.1006
 8492TIP3   OH246890   1.074   1.878  12.756 -0.2818 -0.1843 -0.7941
 8492TIP3    H146891   1.123   1.899  12.836 -1.8574  1.0328 -0.0827
 8492TIP3    H246892   0.994   1.930  12.764 -1.6611 -2.0398 -1.9292
 8493TIP3   OH246893   4.539   4.386   3.792 -0.1180  0.2065 -0.1326
 8493TIP3    H146894   4.633   4.394   3.782 -0.1344  2.3449  0.8840
 8493TIP3    H246895   4.513   4.465   3.839 -2.4129 -0.3579 -0.3321
 8494TIP3   OH246896   4.556   3.680   2.046  0.4290  0.0374 -0.5787
 8494TIP3    H146897   4.614   3.717   2.112 -1.6627 -0.5433  1.7435
 8494TIP3    H246898   4.508   3.755   2.011 -0.3436  0.1185  0.5789
 8495TIP3   OH246899   6.302   0.173   4.017  0.1970 -0.2584  0.1023
 8495TIP3    H146900   6.369   0.185   4.084  0.7495  0.1505 -0.5024
 8495TIP3    H246901   6.229   0.228   4.047  0.0186 -0.9154  0.8999
 8496TIP3   OH246902   3.865   2.920   3.126 -0.6225 -0.2347 -0.0840
 8496TIP3    H146903   3.935   2.984   3.141 -1.2068  0.1727  1.0554
 8496TIP3    H246904   3.788   2.973   3.110 -1.2930 -0.6075  1.7071
 8497TIP3   OH246905   2.770   2.681   3.880  0.2689 -0.1790  0.4468
 8497TIP3    H146906   2.831   2.618   3.843 -1.0378 -2.1261  1.4617
 8497TIP3    H246907   2.729   2.723   3.804  0.3124 -1.4305 -0.2813
 8498TIP3   OH246908   2.472   1.828  16.257 -0.4175 -0.1544 -0.6280
 8498TIP3    H146909   2.480   1.911  16.305 -0.5884 -0.2031 -0.5126
 8498TIP3    H246910   2.548   1.777  16.284 -0.2820 -0.0140 -0.7407
 8499TIP3   OH246911   6.204   0.980  13.312  0.0867 -0.2843  0.3324
 8499TIP3    H146912   6.275   0.961  13.251 -0.1041  0.3349 -0.0942
 8499TIP3    H246913   6.221   1.069  13.342  0.5067 -0.7873  1.6605
 8500TIP3   OH246914   6.748   4.264  16.860  0.2394 -0.1671  0.0149
 8500TIP3    H146915   6.790   4.261  16.946 -0.9702 -0.9037  0.6046
 8500TIP3    H246916   6.705   4.179  16.852  1.1945 -0.5244 -1.7812
 8501TIP3   OH246917   1.024   2.086  15.858  0.5907  0.0602  0.3436
 8501TIP3    H146918   1.078   2.105  15.781 -0.4249 -1.4511 -0.8109
 8501TIP3    H246919   1.083   2.039  15.917  1.1557  0.4540  0.1032
 8502TIP3   OH246920   3.265   1.761  11.922  0.1468 -0.6066 -0.6134
 8502TIP3    H146921   3.336   1.727  11.868  0.0813 -1.3940 -0.2283
 8502TIP3    H246922   3.189   1.761  11.864  0.5082  0.5104 -1.1088
 8503TIP3   OH246923   0.917   5.915   5.506  0.6815  0.3006 -0.3401
 8503TIP3    H146924   0.995   5.864   5.486  0.8020 -0.9804  2.7418
 8503TIP3    H246925   0.863   5.856   5.558 -2.3080  1.2315 -2.1315
 8504TIP3   OH246926   1.824   4.289  13.692  0.2814 -0.5018  0.2601
 8504TIP3    H146927   1.858   4.311  13.778 -0.5069  0.3163  0.3647
 8504TIP3    H246928   1.757   4.354  13.674  1.3050  0.1395 -1.5281
 8505TIP3   OH246929   2.024   2.159   3.509 -0.4712 -0.0534  0.4223
 8505TIP3    H146930   2.091   2.217   3.470 -0.6483  1.3203  2.0460
 8505TIP3    H246931   2.046   2.156   3.602 -1.2290 -1.6251  0.5853
 8506TIP3   OH246932   0.764   1.842  15.298  0.3285 -0.2679 -0.0087
 8506TIP3    H146933   0.778   1.823  15.205  0.3572 -0.8752  0.1146
 8506TIP3    H246934   0.764   1.756  15.340 -1.2362 -0.1124  0.3498
 8507TIP3   OH246935   2.109   0.742  12.637 -0.0149 -0.5765  0.2370
 8507TIP3    H146936   2.158   0.691  12.700 -0.9325 -0.7417  0.8430
 8507TIP3    H246937   2.074   0.816  12.688  1.1438  0.5876 -0.5770
 8508TIP3   OH246938   5.962   4.024   0.864  0.2042 -0.5575 -0.2037
 8508TIP3    H146939   5.931   4.053   0.950  0.7195  0.1261 -0.2443
 8508TIP3    H246940   6.055   4.045   0.863 -0.0494  0.6375 -1.4054
 8509TIP3   OH246941   1.026   3.011   3.309 -0.2444  1.1841 -0.2276
 8509TIP3    H146942   0.950   3.044   3.260 -0.1693  1.6626 -0.0289
 8509TIP3    H246943   1.100   3.061   3.275  0.0182  0.5694 -0.5659
 8510TIP3   OH246944   1.583   1.823  12.038  0.3897  0.2109  1.1514
 8510TIP3    H146945   1.617   1.796  12.123 -1.0928  0.0083  1.7078
 8510TIP3    H246946   1.515   1.887  12.058 -0.2359 -0.1142  0.1573
 8511TIP3   OH246947   3.461   5.231   4.879  0.1609  0.0384  0.2693
 8511TIP3    H146948   3.401   5.288   4.830 -1.3538 -1.8371 -0.1748
 8511TIP3    H246949   3.404   5.184   4.940  0.9300 -2.6819 -0.9763
 8512TIP3   OH246950   3.747   4.711  12.705 -0.1093 -0.1066  0.2856
 8512TIP3    H146951   3.671   4.699  12.762  0.4990 -0.7807  0.9685
 8512TIP3    H246952   3.727   4.790  12.655 -0.3431  0.9443  1.9578
 8513TIP3   OH246953   3.634   1.195  13.260  0.1515 -0.2917  0.0093
 8513TIP3    H146954   3.671   1.131  13.321  0.3331 -0.2222 -0.0253
 8513TIP3    H246955   3.627   1.275  13.311 -0.5147 -0.4577  0.1879
 8514TIP3   OH246956   1.140   2.232   5.427  0.5038 -0.1461  0.1092
 8514TIP3    H146957   1.136   2.308   5.484 -2.8608 -2.0555  2.7737
 8514TIP3    H246958   1.089   2.258   5.350 -0.8012  0.2863  1.0818
 8515TIP3   OH246959   6.736   0.556  14.481 -1.0443  0.1334 -0.2209
 8515TIP3    H146960   6.780   0.543  14.398 -1.9341  1.8953 -1.0171
 8515TIP3    H246961   6.661   0.611  14.460 -0.4314  1.9418  1.9803
 8516TIP3   OH246962   2.233   5.919  12.167  0.3701 -0.5321 -0.5837
 8516TIP3    H146963   2.304   5.890  12.224  0.9887  0.8784 -0.6112
 8516TIP3    H246964   2.276   5.944  12.086  0.1654  2.3169  0.0903
 8517TIP3   OH246965   6.441   0.287  11.329 -0.1254 -0.3519  0.3548
 8517TIP3    H146966   6.409   0.218  11.271  0.2688 -1.3186  1.2574
 8517TIP3    H246967   6.374   0.296  11.396 -0.5289  0.6894 -0.1583
 8518TIP3   OH246968   3.051   6.113   6.519 -0.5501 -0.0922 -0.8048
 8518TIP3    H146969   3.109   6.163   6.576 -1.1046  0.5461 -0.7801
 8518TIP3    H246970   3.073   6.142   6.430  1.4400 -2.2543 -1.1250
 8519TIP3   OH246971   3.101   4.799  11.886 -0.0502  0.4650 -0.1819
 8519TIP3    H146972   3.021   4.754  11.859  1.3524 -1.6631 -1.0968
 8519TIP3    H246973   3.136   4.745  11.956  1.6997  0.0594 -1.3116
 8520TIP3   OH246974   3.518   0.877   0.168  0.6669  0.1661 -0.2612
 8520TIP3    H146975   3.562   0.812   0.221  1.3852  0.4643 -0.4864
 8520TIP3    H246976   3.560   0.871   0.082 -0.5086 -0.3494 -0.8246
 8521TIP3   OH246977   0.957   1.870   4.040  0.4063 -0.0925  0.2202
 8521TIP3    H146978   0.975   1.887   3.947 -0.0420 -0.2351  0.1062
 8521TIP3    H246979   1.012   1.795   4.061  0.2285 -0.2955 -0.0291
 8522TIP3   OH246980   5.773   5.801  15.479  0.0038  0.6704  0.1581
 8522TIP3    H146981   5.773   5.821  15.386  1.8055  0.4906  0.0668
 8522TIP3    H246982   5.821   5.718  15.485 -0.9825  0.1458  1.1588
 8523TIP3   OH246983   0.263   0.238  13.507  0.2008  0.0664 -0.1080
 8523TIP3    H146984   0.266   0.264  13.415  0.6056 -0.2144 -0.1770
 8523TIP3    H246985   0.223   0.151  13.506 -0.4417  0.3563  0.0481
 8524TIP3   OH246986   3.109   1.902   2.268  0.2866 -0.5260  0.1283
 8524TIP3    H146987   3.133   1.832   2.330  0.4331 -0.6418 -0.0576
 8524TIP3    H246988   3.019   1.882   2.243  0.4108 -0.7937 -0.1159
 8525TIP3   OH246989   0.751   5.322  13.923  0.1220 -0.2458 -0.0941
 8525TIP3    H146990   0.663   5.287  13.913  0.6176 -1.3474 -0.8283
 8525TIP3    H246991   0.789   5.319  13.835  1.2017 -0.6637  0.3638
 8526TIP3   OH246992   5.028   3.225   1.170  0.0036  0.3272  0.0043
 8526TIP3    H146993   5.120   3.238   1.191 -0.2499  0.8860  0.8325
 8526TIP3    H246994   4.983   3.230   1.255 -1.0256  2.3032 -0.5925
 8527TIP3   OH246995   1.447   2.249   1.453  0.8468 -0.8185  0.2422
 8527TIP3    H146996   1.446   2.217   1.362 -0.4822  3.5497 -1.5337
 8527TIP3    H246997   1.357   2.241   1.482  0.0246  2.5229 -0.9404
 8528TIP3   OH246998   1.436   5.316   1.295 -0.1704 -0.1483  0.0750
 8528TIP3    H146999   1.525   5.287   1.272 -1.0758 -2.2481 -1.0433
 8528TIP3    H247000   1.412   5.377   1.225  0.1404 -0.1431 -0.0286
 8529TIP3   OH247001   3.977   2.663   5.243  0.6348  0.0600  0.5790
 8529TIP3    H147002   3.885   2.642   5.230  0.8092 -1.2040  1.1651
 8529TIP3    H247003   3.977   2.747   5.289 -0.3211 -0.7559  2.1783
 8530TIP3   OH247004   1.536   2.421  15.823 -0.7226  0.2526 -0.1645
 8530TIP3    H147005   1.537   2.436  15.729 -1.6585  0.4576 -0.1513
 8530TIP3    H247006   1.573   2.334  15.835 -1.9486 -0.3892 -0.8541
 8531TIP3   OH247007   2.298   1.081   1.396 -0.6600 -0.1877  0.5010
 8531TIP3    H147008   2.363   1.011   1.405 -0.2326  0.0473 -0.5872
 8531TIP3    H247009   2.265   1.095   1.484 -2.6220 -3.5489  0.4726
 8532TIP3   OH247010   1.318   5.897   1.638 -0.9710 -0.4273 -0.1482
 8532TIP3    H147011   1.279   5.865   1.719 -1.0680 -1.0912 -0.4550
 8532TIP3    H247012   1.282   5.841   1.569 -0.5047 -0.1967 -0.5913
 8533TIP3   OH247013   4.276   5.764  17.082  0.2390 -0.0323 -0.1730
 8533TIP3    H147014   4.220   5.802  17.150  2.4287  0.3465  1.5537
 8533TIP3    H247015   4.314   5.686  17.124  2.9913  1.1792 -0.2428
 8534TIP3   OH247016   5.612   4.686   3.158  0.4536 -0.2308  0.6981
 8534TIP3    H147017   5.630   4.738   3.080 -2.3185 -0.2706 -0.0958
 8534TIP3    H247018   5.549   4.738   3.208 -3.1446 -2.9201 -0.5498
 8535TIP3   OH247019   5.996   2.342   5.880 -0.2926 -0.2817 -0.3150
 8535TIP3    H147020   6.065   2.402   5.855 -3.7926  4.6537  0.3691
 8535TIP3    H247021   5.984   2.356   5.974 -1.5753 -1.7449 -0.2001
 8536TIP3   OH247022   4.295   2.016   0.499 -1.0239 -0.3358  0.2324
 8536TIP3    H147023   4.340   2.079   0.444 -0.0850 -1.5194 -0.3863
 8536TIP3    H247024   4.301   2.053   0.587  1.0072 -0.3624  0.1451
 8537TIP3   OH247025   3.778   6.179  10.707 -0.1890 -0.0945 -0.0554
 8537TIP3    H147026   3.696   6.140  10.676  0.6061 -1.2991 -0.7244
 8537TIP3    H247027   3.750   6.246  10.771 -1.6887 -0.2583 -0.4914
 8538TIP3   OH247028   3.841   0.314   2.011 -0.1114  0.1467 -0.8973
 8538TIP3    H147029   3.910   0.379   2.022 -0.4365  0.3560  0.0873
 8538TIP3    H247030   3.817   0.290   2.101 -0.0930 -1.2355 -1.2463
 8539TIP3   OH247031   2.916   2.250   2.693 -0.2642 -0.7117  0.1322
 8539TIP3    H147032   2.890   2.333   2.655 -0.2977 -1.1044 -0.7225
 8539TIP3    H247033   2.838   2.195   2.689 -0.6465 -0.3760  1.9413
 8540TIP3   OH247034   3.208   2.543   2.701  0.1981 -0.1050  0.1900
 8540TIP3    H147035   3.218   2.448   2.703  0.3519 -0.0712  1.7473
 8540TIP3    H247036   3.228   2.572   2.790  1.5113  1.5298 -0.5642
 8541TIP3   OH247037   0.485   1.642  11.091  0.2587  0.1467 -0.2310
 8541TIP3    H147038   0.469   1.578  11.160  0.8032 -0.5380 -0.7264
 8541TIP3    H247039   0.405   1.643  11.039 -0.3287  1.0006  0.6619
 8542TIP3   OH247040   1.510   2.308  13.478 -0.2482  0.6431 -0.1404
 8542TIP3    H147041   1.539   2.276  13.563 -0.2631  0.4987 -0.1896
 8542TIP3    H247042   1.554   2.392  13.467  0.9009  0.0098 -0.6145
 8543TIP3   OH247043   0.345   2.873  11.954 -0.2097 -0.0262 -0.2053
 8543TIP3    H147044   0.318   2.822  12.031  1.2277 -0.8178 -0.1936
 8543TIP3    H247045   0.275   2.937  11.942 -1.7151 -1.5210  0.2383
 8544TIP3   OH247046   3.609   1.263   5.305 -0.6817  0.3613  0.5143
 8544TIP3    H147047   3.675   1.322   5.341 -1.4732  0.9925  0.9568
 8544TIP3    H247048   3.659   1.202   5.250  0.1706  1.2832  0.2405
 8545TIP3   OH247049   4.484   0.729   1.045  0.1941 -0.0031  0.2025
 8545TIP3    H147050   4.538   0.805   1.024 -0.7905  1.0612  1.3815
 8545TIP3    H247051   4.546   0.664   1.078  1.3037 -0.4667 -2.5650
 8546TIP3   OH247052   5.038   6.476  13.453  0.1704 -0.7178  0.8848
 8546TIP3    H147053   5.000   6.497  13.368  0.2800 -1.5596  0.6227
 8546TIP3    H247054   5.008   6.387  13.473  1.2908 -1.0818  1.0592
 8547TIP3   OH247055   5.206   1.173  15.304 -0.0308 -0.3123 -0.5864
 8547TIP3    H147056   5.262   1.125  15.366 -1.2076 -3.6448 -1.8685
 8547TIP3    H247057   5.268   1.213  15.243  1.0688  1.2533  1.4312
 8548TIP3   OH247058   4.716   5.439  13.219 -0.2402  0.2494  0.1143
 8548TIP3    H147059   4.703   5.448  13.314 -1.4480  2.0289 -0.1725
 8548TIP3    H247060   4.662   5.363  13.195 -0.5135  0.2317  0.7554
 8549TIP3   OH247061   6.653   2.499  11.102 -0.4844 -0.5459 -0.8096
 8549TIP3    H147062   6.636   2.591  11.121  0.0052 -0.1403 -2.2405
 8549TIP3    H247063   6.567   2.461  11.085 -0.6024 -0.1195 -1.1760
 8550TIP3   OH247064   4.691   3.966   2.661  0.3299  0.1182 -0.2140
 8550TIP3    H147065   4.699   3.880   2.701  1.1835  0.0700 -0.4737
 8550TIP3    H247066   4.703   4.028   2.733 -1.1397  0.0315  0.1288
 8551TIP3   OH247067   0.991   2.794   3.954  0.5573 -0.3858 -0.5166
 8551TIP3    H147068   0.946   2.877   3.941  0.2452 -0.3002  0.9593
 8551TIP3    H247069   1.015   2.765   3.866 -0.5280  0.5934 -1.1493
 8552TIP3   OH247070   5.394   2.080   3.627 -0.5044 -0.0703 -0.3228
 8552TIP3    H147071   5.457   2.027   3.675  0.3470 -0.1271 -1.4806
 8552TIP3    H247072   5.447   2.140   3.575 -1.4356  1.0768  0.0113
 8553TIP3   OH247073   3.590   6.456  16.042 -0.3229 -0.4799 -0.6625
 8553TIP3    H147074   3.541   6.454  15.959 -0.7909 -0.5058 -0.3876
 8553TIP3    H247075   3.609   6.548  16.057  1.1062 -0.6003 -1.5802
 8554TIP3   OH247076   5.111   2.800   1.744 -0.6798  0.1510  0.3274
 8554TIP3    H147077   5.086   2.886   1.778  2.8266  0.7660  1.8715
 8554TIP3    H247078   5.126   2.747   1.823  0.4812 -0.7793 -0.4803
 8555TIP3   OH247079   4.436   3.279  12.587 -0.1823  0.3139  0.6803
 8555TIP3    H147080   4.418   3.363  12.629 -1.4264  0.5685 -0.3184
 8555TIP3    H247081   4.407   3.290  12.496  1.1946 -0.6497  0.0704
 8556TIP3   OH247082   3.319   1.154  11.264 -0.0081  0.1771  0.3744
 8556TIP3    H147083   3.407   1.118  11.251 -0.1407 -0.1031  0.2185
 8556TIP3    H247084   3.271   1.128  11.185  0.3872  2.2781 -0.6262
 8557TIP3   OH247085   2.846   0.007   0.999  0.3841  0.3725 -0.7775
 8557TIP3    H147086   2.839  -0.038   0.914  0.2533  0.5082 -0.8399
 8557TIP3    H247087   2.853   0.099   0.976 -1.1506  0.5591 -0.6008
 8558TIP3   OH247088   2.669   0.570  16.185 -0.0571 -0.5293 -0.0700
 8558TIP3    H147089   2.601   0.517  16.225 -0.6636 -0.2654 -0.7328
 8558TIP3    H247090   2.746   0.513  16.185 -0.5971 -1.2808 -0.4257
 8559TIP3   OH247091   0.355   5.527  10.935  0.0295  0.1405  0.1632
 8559TIP3    H147092   0.411   5.451  10.955  0.4096  0.4257  0.1926
 8559TIP3    H247093   0.408   5.581  10.877 -1.1725 -0.8339 -1.9551
 8560TIP3   OH247094   2.816   0.658   3.591 -0.0254 -0.0539  0.0449
 8560TIP3    H147095   2.751   0.728   3.596  1.0013  0.9009  0.3319
 8560TIP3    H247096   2.787   0.604   3.517  0.2046  1.7585 -1.4377
 8561TIP3   OH247097   4.515   0.602   1.630  0.2025  0.3001  0.8489
 8561TIP3    H147098   4.593   0.577   1.579 -0.0260 -0.4281  0.8434
 8561TIP3    H247099   4.456   0.641   1.566 -0.3302 -1.1518  0.4053
 8562TIP3   OH247100   0.826   5.862  13.115 -0.2046  0.5871 -0.2717
 8562TIP3    H147101   0.852   5.948  13.147  1.1854 -0.0811  0.4953
 8562TIP3    H247102   0.730   5.865  13.114 -0.2439  1.5336  1.5326
 8563TIP3   OH247103   2.247   0.890   3.760 -0.5421  0.1341 -0.2749
 8563TIP3    H147104   2.256   0.812   3.814 -1.7871  0.4853  0.4956
 8563TIP3    H247105   2.305   0.955   3.800  0.0862 -0.2255 -0.5967
 8564TIP3   OH247106   6.251   1.020   5.640  0.5007  0.3897 -0.7069
 8564TIP3    H147107   6.242   0.993   5.731  1.0599 -0.5040 -0.9100
 8564TIP3    H247108   6.163   1.013   5.604  0.6270 -1.2062 -0.7547
 8565TIP3   OH247109   1.147   2.438  13.888  0.4316 -0.1162 -0.9833
 8565TIP3    H147110   1.148   2.422  13.982 -0.9663 -1.0555 -1.0966
 8565TIP3    H247111   1.162   2.352  13.849 -1.0066 -0.1005 -1.6083
 8566TIP3   OH247112   2.373   1.410  12.800  0.4069 -0.2113  0.2692
 8566TIP3    H147113   2.406   1.322  12.818 -2.0713 -0.9183  1.9806
 8566TIP3    H247114   2.362   1.412  12.705  2.0663 -1.1090  0.0238
 8567TIP3   OH247115   1.580   1.477  14.488 -0.2063 -0.8517 -0.1328
 8567TIP3    H147116   1.665   1.500  14.527 -0.7690  1.3719 -0.0929
 8567TIP3    H247117   1.518   1.540  14.527 -1.6752 -1.7100 -1.0014
 8568TIP3   OH247118   2.347   4.534  13.929  0.0779  0.2910  0.0666
 8568TIP3    H147119   2.301   4.593  13.989  1.0816 -0.3453  1.5201
 8568TIP3    H247120   2.326   4.446  13.961  1.5820 -0.0281  0.2354
 8569TIP3   OH247121   3.008   5.106  11.339 -0.6449  0.2379  0.7875
 8569TIP3    H147122   3.034   5.126  11.430  0.7295  1.6302  0.1352
 8569TIP3    H247123   2.968   5.187  11.308 -0.8097 -0.1291  0.0434
 8570TIP3   OH247124   1.473   3.710   4.865 -0.2586  0.6232 -0.1949
 8570TIP3    H147125   1.457   3.647   4.795 -1.0562  2.5835 -1.8715
 8570TIP3    H247126   1.555   3.682   4.905 -0.5128 -1.3535 -0.9655
 8571TIP3   OH247127   3.914   6.657   1.259  0.1900  0.2807  0.2802
 8571TIP3    H147128   3.881   6.587   1.202  1.2563 -0.0733  0.0866
 8571TIP3    H247129   3.912   6.735   1.204 -0.0103  0.1963  0.1663
 8572TIP3   OH247130   5.368   0.119  13.964 -0.3439 -0.0813 -0.3830
 8572TIP3    H147131   5.438   0.097  13.903  1.2891  0.7621  1.0976
 8572TIP3    H247132   5.316   0.039  13.971  0.2288 -0.6136 -1.8020
 8573TIP3   OH247133   3.827   2.061  16.122 -0.2914  0.6437 -0.5516
 8573TIP3    H147134   3.872   2.095  16.200  0.7492 -0.1321 -0.7841
 8573TIP3    H247135   3.816   1.967  16.140 -2.4911  0.9175 -0.2055
 8574TIP3   OH247136   0.133   0.233   0.891  0.3090 -0.2824  0.3436
 8574TIP3    H147137   0.184   0.237   0.809 -0.4568  0.1992 -0.1185
 8574TIP3    H247138   0.093   0.146   0.889 -0.6978  0.1802 -0.4137
 8575TIP3   OH247139   1.208   0.626   5.538 -0.0744 -0.2090  0.4354
 8575TIP3    H147140   1.293   0.669   5.528  0.2836 -0.9779  0.1201
 8575TIP3    H247141   1.144   0.697   5.532  0.4736  0.2097 -0.6256
 8576TIP3   OH247142   2.248   5.704  11.934  0.1159 -0.1571 -0.6583
 8576TIP3    H147143   2.213   5.788  11.903 -0.8458 -0.3360 -0.0748
 8576TIP3    H247144   2.173   5.644  11.932  0.2217 -0.4044  1.1605
 8577TIP3   OH247145   4.025   6.121  14.396  0.4760 -0.2037 -0.3112
 8577TIP3    H147146   4.107   6.072  14.388  1.3346  1.1542 -0.2072
 8577TIP3    H247147   4.020   6.146  14.488  0.4506  0.5275 -0.5001
 8578TIP3   OH247148   1.101   4.700   6.077  0.4691  0.2222 -0.0864
 8578TIP3    H147149   1.127   4.712   6.168  0.7144 -1.1554  0.0488
 8578TIP3    H247150   1.043   4.625   6.078 -0.3758  0.8398 -0.9405
 8579TIP3   OH247151   3.651   1.008  15.953 -0.3407 -0.3767  0.1788
 8579TIP3    H147152   3.740   1.044  15.949 -0.5867  0.2226 -0.0724
 8579TIP3    H247153   3.623   1.024  16.043 -0.2106 -0.5271  0.2458
 8580TIP3   OH247154   1.767   2.716  16.935  0.0270  0.2345  0.4271
 8580TIP3    H147155   1.715   2.655  16.988  0.5272 -0.3769  0.2170
 8580TIP3    H247156   1.794   2.784  16.997 -3.1396  2.0334  0.0966
 8581TIP3   OH247157   6.470   5.783   5.679 -0.0361 -0.1656  0.3773
 8581TIP3    H147158   6.473   5.839   5.601  3.2514 -1.6470 -0.7745
 8581TIP3    H247159   6.384   5.741   5.675 -1.3106  2.3199 -0.4741
 8582TIP3   OH247160   5.376   5.578  13.907  1.0376 -0.1549 -0.0784
 8582TIP3    H147161   5.405   5.555  13.995  0.8069 -0.8014 -0.1731
 8582TIP3    H247162   5.446   5.546  13.850  2.0007  1.7078 -0.0364
 8583TIP3   OH247163   1.610   4.961  11.503 -0.4444 -0.1429  0.4891
 8583TIP3    H147164   1.540   4.950  11.439 -0.5223 -0.6425  0.6593
 8583TIP3    H247165   1.665   4.884  11.493 -1.4395 -1.1406  2.2479
 8584TIP3   OH247166   1.473   6.350   0.379 -0.1081 -0.1904 -0.0123
 8584TIP3    H147167   1.424   6.348   0.462 -0.8536 -0.6962 -0.4491
 8584TIP3    H247168   1.449   6.434   0.339 -1.2484 -0.7584 -0.5737
 8585TIP3   OH247169   2.792   6.348   2.877 -0.5006  0.0394  0.2096
 8585TIP3    H147170   2.818   6.293   2.803 -0.5346 -1.2975  1.1689
 8585TIP3    H247171   2.831   6.306   2.953 -0.9538  1.0706  1.0272
 8586TIP3   OH247172   2.613   5.795  11.754 -0.4352  0.1020 -0.3730
 8586TIP3    H147173   2.534   5.802  11.700 -1.2019  1.9213  0.8741
 8586TIP3    H247174   2.595   5.724  11.815 -1.4029  0.8977  0.3014
 8587TIP3   OH247175   3.577   2.976  15.203 -0.0289  0.2076  0.0912
 8587TIP3    H147176   3.603   2.908  15.265  0.1712 -0.5377 -0.7912
 8587TIP3    H247177   3.634   3.051  15.225 -0.1012  0.0255  0.9269
 8588TIP3   OH247178   1.325   2.947   0.790  0.9542  0.2238  0.4653
 8588TIP3    H147179   1.232   2.945   0.810  0.2789  2.1228 -2.0959
 8588TIP3    H247180   1.340   2.869   0.737  0.8152  0.0191  0.7199
 8589TIP3   OH247181   6.475   5.229  12.658 -0.2833 -0.2747  0.4176
 8589TIP3    H147182   6.518   5.143  12.653 -1.2813 -0.9654  2.6318
 8589TIP3    H247183   6.382   5.210  12.648 -0.3605  1.1126 -3.3821
 8590TIP3   OH247184   4.729   5.960  16.613  0.1568  0.0584  0.0721
 8590TIP3    H147185   4.785   5.923  16.545  1.8860  1.0206  0.9167
 8590TIP3    H247186   4.779   5.950  16.694 -1.3349  0.0573  1.0446
 8591TIP3   OH247187   3.347   1.050  16.899 -0.2836  0.0138  0.0056
 8591TIP3    H147188   3.350   0.955  16.891 -0.5695 -0.1491  1.4586
 8591TIP3    H247189   3.391   1.068  16.982 -1.5100  1.0137  0.4707
 8592TIP3   OH247190   0.693   5.932   1.527 -0.3175 -0.1408  0.3107
 8592TIP3    H147191   0.604   5.900   1.537 -0.3692 -0.7730 -1.7599
 8592TIP3    H247192   0.734   5.871   1.465  1.1868  0.8164  0.3119
 8593TIP3   OH247193   6.745   5.951  17.083  0.6058 -0.0561  0.3985
 8593TIP3    H147194   6.696   5.886  17.133  2.2911 -2.8947 -1.3544
 8593TIP3    H247195   6.720   6.035  17.121 -2.7165 -1.5738  1.9532
 8594TIP3   OH247196   2.835   0.984  10.945 -0.1036  0.0774  0.5240
 8594TIP3    H147197   2.859   0.901  10.903  0.5362  0.0348  0.9473
 8594TIP3    H247198   2.873   1.051  10.888 -3.4897  0.3314 -1.7545
 8595TIP3   OH247199   2.248   3.773   4.941  0.2587 -0.2675  0.3992
 8595TIP3    H147200   2.233   3.861   4.906 -2.5514 -1.4339 -1.7279
 8595TIP3    H247201   2.342   3.760   4.935  0.5173  1.8255 -1.1961
 8596TIP3   OH247202   2.447   2.083   4.328  0.6994  0.1827 -0.0427
 8596TIP3    H147203   2.374   2.126   4.372  0.7785 -1.4326  1.7969
 8596TIP3    H247204   2.467   2.140   4.254 -2.3189  0.7402 -0.5489
 8597TIP3   OH247205   6.162   4.338   1.265  0.3377  0.1868 -0.5447
 8597TIP3    H147206   6.137   4.259   1.216 -2.5291 -0.0982  1.1270
 8597TIP3    H247207   6.135   4.410   1.209 -0.2540 -0.0844 -0.6191
 8598TIP3   OH247208   4.802   6.066   4.654 -0.9028  0.1198 -0.1948
 8598TIP3    H147209   4.764   6.078   4.567 -0.0951 -0.7821 -0.6861
 8598TIP3    H247210   4.763   5.985   4.687 -2.0867  1.0367  0.7949
 8599TIP3   OH247211   5.998   1.293   4.898 -0.4447  0.0024  0.1470
 8599TIP3    H147212   6.077   1.239   4.911 -1.8203 -1.7154  2.2074
 8599TIP3    H247213   5.930   1.247   4.948 -3.1502  0.6109 -2.6859
 8600TIP3   OH247214   4.551   1.654   0.398 -0.5053 -0.3116 -0.3458
 8600TIP3    H147215   4.573   1.606   0.478  0.0017 -1.4298 -1.1354
 8600TIP3    H247216   4.467   1.695   0.417 -0.5176 -0.7767  0.6685
 8601TIP3   OH247217   5.175   4.623   2.904  0.6581  0.3584  0.5343
 8601TIP3    H147218   5.198   4.648   2.993  0.8539  1.3937  0.1983
 8601TIP3    H247219   5.226   4.681   2.848  2.1475 -1.6459 -0.3207
 8602TIP3   OH247220   5.086   1.603   0.254  0.2919 -0.0678 -0.0564
 8602TIP3    H147221   5.170   1.574   0.219  0.1964  0.9884 -1.2384
 8602TIP3    H247222   5.107   1.678   0.309  0.1590  0.0101 -0.1097
 8603TIP3   OH247223   3.296   1.378   3.138 -0.4372  0.1651 -0.8474
 8603TIP3    H147224   3.290   1.306   3.076 -0.9791 -0.3028 -0.2626
 8603TIP3    H247225   3.229   1.359   3.204  0.7438  0.1486  0.3971
 8604TIP3   OH247226   1.699   0.738  16.244  0.0815 -0.0158 -0.2531
 8604TIP3    H147227   1.609   0.717  16.272  0.6119 -3.0287 -0.5070
 8604TIP3    H247228   1.749   0.659  16.266  2.1836  0.6680 -2.3242
 8605TIP3   OH247229   0.287   1.047  13.071 -0.2036 -0.3167 -0.1181
 8605TIP3    H147230   0.379   1.069  13.079 -0.1949  0.0499 -1.0810
 8605TIP3    H247231   0.242   1.105  13.133 -0.0310  1.3880 -1.5170
 8606TIP3   OH247232   0.703   4.555  17.260 -0.0194 -0.0060 -0.1817
 8606TIP3    H147233   0.699   4.506  17.343 -1.3045  1.8430  0.9138
 8606TIP3    H247234   0.722   4.645  17.287 -1.8988  0.9273 -1.7481
 8607TIP3   OH247235   6.431   1.715   4.310 -0.0404 -0.4648 -0.2743
 8607TIP3    H147236   6.448   1.794   4.259 -1.8753  1.5538  1.9877
 8607TIP3    H247237   6.346   1.684   4.277 -0.0116 -0.6488 -0.1756
 8608TIP3   OH247238   3.085   2.010  11.556  0.0156  0.0915 -0.1280
 8608TIP3    H147239   3.146   1.968  11.496 -0.0181  0.5605 -0.4961
 8608TIP3    H247240   3.006   2.023  11.505 -0.2183 -0.0514  0.1974
 8609TIP3   OH247241   0.418   4.995  11.627  0.1638 -0.0903 -0.4363
 8609TIP3    H147242   0.501   4.959  11.595  0.2524 -1.1105  0.8513
 8609TIP3    H247243   0.437   5.086  11.649  0.7099 -0.0745 -0.9498
 8610TIP3   OH247244   2.875   6.452  11.945  0.4870 -0.3538 -0.0136
 8610TIP3    H147245   2.884   6.376  12.002  0.7641 -2.0435 -2.1927
 8610TIP3    H247246   2.781   6.472  11.947  0.0981 -1.9362 -0.7963
 8611TIP3   OH247247   4.253   0.714   2.296  0.2699 -0.2012 -0.1281
 8611TIP3    H147248   4.215   0.696   2.382 -0.8636 -0.9967 -0.7589
 8611TIP3    H247249   4.277   0.806   2.298 -2.4430  0.5961  0.0835
 8612TIP3   OH247250   4.163   0.941   3.742 -0.7272  0.2890 -0.4949
 8612TIP3    H147251   4.211   0.943   3.659 -0.7489  0.2708 -0.5077
 8612TIP3    H247252   4.071   0.942   3.717 -0.7616  2.2630 -0.4508
 8613TIP3   OH247253   3.341   5.416   5.442 -0.3035  0.1516  0.1557
 8613TIP3    H147254   3.302   5.334   5.471 -1.4411 -0.3214 -2.4220
 8613TIP3    H247255   3.435   5.406   5.460 -0.7281 -0.6258  2.1740
 8614TIP3   OH247256   3.110   3.473  16.507 -0.0004 -0.0816 -0.3365
 8614TIP3    H147257   3.090   3.560  16.542  1.5358 -0.4080  1.5384
 8614TIP3    H247258   3.029   3.423  16.517  0.2755 -0.0735  2.6903
 8615TIP3   OH247259   2.128   5.015   6.060  0.4213 -0.3045  0.0477
 8615TIP3    H147260   2.038   5.032   6.090  0.1637  2.4449 -1.8784
 8615TIP3    H247261   2.183   5.046   6.132 -0.1675 -0.1121  0.4283
 8616TIP3   OH247262   3.395   0.890  16.156 -0.0762 -0.1121 -0.1568
 8616TIP3    H147263   3.330   0.883  16.226  0.9550 -1.0957  0.7465
 8616TIP3    H247264   3.407   0.984  16.145 -0.6754  0.0672  0.6039
 8617TIP3   OH247265   1.442   1.683   1.105  0.1836 -0.2300 -0.2669
 8617TIP3    H147266   1.500   1.609   1.090  0.4403 -0.4260  1.4721
 8617TIP3    H247267   1.355   1.644   1.116  0.2185 -0.2225  0.0454
 8618TIP3   OH247268   0.439   5.236  12.825  0.3311 -0.1487 -0.4151
 8618TIP3    H147269   0.493   5.303  12.868 -1.2124  0.5064  0.5640
 8618TIP3    H247270   0.385   5.200  12.895 -3.4017  2.0124 -1.8952
 8619TIP3   OH247271   3.351   4.190  16.928 -0.0189 -0.5302  0.6785
 8619TIP3    H147272   3.279   4.250  16.906  1.3504  0.8615 -0.1923
 8619TIP3    H247273   3.393   4.230  17.004  0.7111 -0.5437  0.2919
 8620TIP3   OH247274   0.609   5.265   3.816  0.2278 -0.2799 -0.1262
 8620TIP3    H147275   0.521   5.243   3.849  0.6875 -0.0111  1.3633
 8620TIP3    H247276   0.630   5.194   3.756 -0.2106 -1.4332  1.0271
 8621TIP3   OH247277   5.530   1.574  15.008  0.1584  0.3449  0.4558
 8621TIP3    H147278   5.502   1.666  15.004 -1.0505 -0.0162  0.2414
 8621TIP3    H247279   5.614   1.577  15.053  0.2260  1.5775  0.2971
 8622TIP3   OH247280   0.848   3.695   5.226 -0.3107  0.3984  0.2772
 8622TIP3    H147281   0.883   3.620   5.275  0.3551  0.0510 -0.7048
 8622TIP3    H247282   0.903   3.768   5.250  0.6266  0.0236 -0.6513
 8623TIP3   OH247283   5.201   0.516  11.291  0.4048 -0.0561  0.8725
 8623TIP3    H147284   5.145   0.589  11.267  0.4836  0.7634  2.9194
 8623TIP3    H247285   5.140   0.446  11.316  0.2978  0.1136  1.0943
 8624TIP3   OH247286   0.458   2.072  10.687  0.5075  0.7560  0.3745
 8624TIP3    H147287   0.465   2.078  10.591 -1.0792 -0.2078  0.1586
 8624TIP3    H247288   0.515   1.999  10.710  0.0939  0.3113  0.0191
 8625TIP3   OH247289   2.314   4.904   6.413  0.3351  0.2826 -0.7342
 8625TIP3    H147290   2.329   4.972   6.479  0.4367 -0.7949  0.3708
 8625TIP3    H247291   2.341   4.823   6.455 -2.1698 -0.8364 -1.0762
 8626TIP3   OH247292   2.636   2.232   2.142  0.4423  0.1129 -0.4773
 8626TIP3    H147293   2.567   2.297   2.153 -0.9106 -1.2636 -0.5252
 8626TIP3    H247294   2.669   2.216   2.231  0.5008  0.5381 -0.4190
 8627TIP3   OH247295   4.100   2.087  12.264 -0.2274  0.2019 -0.0699
 8627TIP3    H147296   4.004   2.086  12.265 -0.2843 -0.5755  2.8071
 8627TIP3    H247297   4.125   2.041  12.344  2.6053 -0.9976 -1.5020
 8628TIP3   OH247298   0.036   5.159  14.571 -0.3304  0.2033 -0.0466
 8628TIP3    H147299  -0.032   5.094  14.554  0.0555  0.0110 -0.9547
 8628TIP3    H247300  -0.010   5.234  14.609 -0.6294 -0.9811  2.0235
 8629TIP3   OH247301   1.230   4.722   5.545 -0.3864  0.3659  0.0925
 8629TIP3    H147302   1.228   4.766   5.630  0.4602  0.2119  0.1952
 8629TIP3    H247303   1.138   4.703   5.526 -0.4980 -0.6953  1.5383
 8630TIP3   OH247304   2.584   1.014   4.268  0.6361  0.2629 -0.2078
 8630TIP3    H147305   2.588   0.987   4.176  1.4424  0.8693 -0.3608
 8630TIP3    H247306   2.671   1.051   4.286 -0.1390  1.9411  0.2526
 8631TIP3   OH247307   5.536   6.015   5.636  0.2672 -0.4858  0.3769
 8631TIP3    H147308   5.626   6.001   5.665 -0.1220 -0.2441  1.7612
 8631TIP3    H247309   5.527   6.110   5.629  0.1755 -0.5183  0.0438
 8632TIP3   OH247310   0.270   2.791  11.431 -0.3105  0.0689 -0.1081
 8632TIP3    H147311   0.314   2.870  11.400  0.2372 -0.6497 -1.2346
 8632TIP3    H247312   0.308   2.775  11.517 -0.1994  0.8463  0.0028
 8633TIP3   OH247313   1.268   3.534  13.314 -0.3335  0.1279  0.0839
 8633TIP3    H147314   1.267   3.621  13.353  0.9775  0.0312  0.3540
 8633TIP3    H247315   1.308   3.478  13.380  0.0523 -0.4236 -0.6063
 8634TIP3   OH247316   0.124   3.349   1.651  0.4648 -0.3202 -0.1642
 8634TIP3    H147317   0.096   3.338   1.560  1.3844 -0.1741 -0.4731
 8634TIP3    H247318   0.216   3.373   1.645  1.0668 -2.1899  0.8590
 8635TIP3   OH247319   5.333   2.723  16.093 -0.3755  0.8886  0.2194
 8635TIP3    H147320   5.318   2.677  16.175  0.7418  0.2027  0.0627
 8635TIP3    H247321   5.305   2.663  16.025  0.9131  0.4706  0.0220
 8636TIP3   OH247322   3.650   0.548  12.452 -0.2533 -0.0429 -0.4342
 8636TIP3    H147323   3.721   0.502  12.408  0.4496  0.5633  0.0368
 8636TIP3    H247324   3.682   0.637  12.462 -0.6779  0.0110  0.6411
 8637TIP3   OH247325   5.790   3.415   2.789 -0.1935 -0.2573  0.4224
 8637TIP3    H147326   5.800   3.507   2.812 -0.1864 -0.3162  0.6493
 8637TIP3    H247327   5.755   3.374   2.867  0.5757 -0.5992  0.5974
 8638TIP3   OH247328   3.847   6.256   5.215  0.1079  0.0884  0.2026
 8638TIP3    H147329   3.911   6.281   5.147 -0.5958  1.4870  0.0094
 8638TIP3    H247330   3.865   6.316   5.287 -1.4354  1.0144 -0.1394
 8639TIP3   OH247331   0.517   1.918  14.713 -0.6723 -0.0897 -0.2300
 8639TIP3    H147332   0.475   1.961  14.787 -1.3956 -1.0894 -0.0383
 8639TIP3    H247333   0.468   1.836  14.702  0.7631 -0.9458 -0.4766
 8640TIP3   OH247334   0.992   0.944   0.924  0.3154 -0.3701 -0.8414
 8640TIP3    H147335   0.936   1.015   0.956  1.7467  0.2193  0.5220
 8640TIP3    H247336   0.932   0.880   0.886 -1.0294  1.5720 -2.1648
 8641TIP3   OH247337   3.128   4.392  16.252 -0.1521 -0.4824  0.3032
 8641TIP3    H147338   3.129   4.396  16.157 -0.0460  1.4424  0.3589
 8641TIP3    H247339   3.183   4.316  16.273 -2.0336 -2.3549 -1.1718
 8642TIP3   OH247340   1.428   3.306  17.139 -0.3702 -0.3088  0.0690
 8642TIP3    H147341   1.350   3.250  17.136 -2.1201  2.0113 -1.4472
 8642TIP3    H247342   1.460   3.307  17.049  0.5535 -0.0771  0.3928
 8643TIP3   OH247343   0.322   0.836  15.420 -0.0273 -0.5841  0.3570
 8643TIP3    H147344   0.390   0.898  15.445 -0.9852  1.5243 -1.8395
 8643TIP3    H247345   0.241   0.885  15.427 -1.2257 -2.6067  1.5460
 8644TIP3   OH247346   4.793   2.101  13.385  0.1386 -0.5406 -0.1733
 8644TIP3    H147347   4.818   2.011  13.407  1.4977 -0.1761 -0.1687
 8644TIP3    H247348   4.856   2.156  13.430 -0.7028  0.4396 -0.1434
 8645TIP3   OH247349   1.220   1.792   3.240  0.2252  0.0410 -0.1194
 8645TIP3    H147350   1.184   1.708   3.212  0.3359 -0.3896  0.9895
 8645TIP3    H247351   1.143   1.848   3.251  0.2582  0.6791 -2.6177
 8646TIP3   OH247352   5.583   5.852  11.372  0.2757  0.2177 -0.1140
 8646TIP3    H147353   5.646   5.827  11.303  0.4884  1.1252 -0.2624
 8646TIP3    H247354   5.499   5.820  11.340  0.6224 -0.8293 -0.0141
 8647TIP3   OH247355   4.106   3.908  12.968  0.0042 -0.0169 -0.2911
 8647TIP3    H147356   4.059   3.882  13.047 -2.0421  4.7685  0.4481
 8647TIP3    H247357   4.193   3.932  12.999 -1.0237  2.5956  0.8951
 8648TIP3   OH247358   1.759   4.927   5.320 -0.2717  0.8792  0.1982
 8648TIP3    H147359   1.745   4.857   5.256  2.4831 -1.3116  1.7521
 8648TIP3    H247360   1.695   4.909   5.389  0.8918 -0.6697  0.9323
 8649TIP3   OH247361   1.301   4.259   0.063 -0.5785 -0.1890 -0.3277
 8649TIP3    H147362   1.383   4.248   0.015 -0.3568 -1.7563  0.3649
 8649TIP3    H247363   1.233   4.232   0.002 -0.5685  0.7475 -0.7718
 8650TIP3   OH247364   0.936   4.012  16.219 -0.4966 -0.0265  0.5023
 8650TIP3    H147365   1.019   4.021  16.172 -0.8480 -1.4457 -0.4537
 8650TIP3    H247366   0.886   4.090  16.194 -0.5208 -0.5580 -1.2223
 8651TIP3   OH247367   2.464   0.693  12.758  0.0083 -0.1699  0.1633
 8651TIP3    H147368   2.500   0.670  12.673 -1.4135  0.8787 -0.7634
 8651TIP3    H247369   2.514   0.770  12.785  0.2190 -0.2905  0.1192
 8652TIP3   OH247370   5.002   3.393  14.647  0.9734 -0.5397 -0.4998
 8652TIP3    H147371   4.997   3.354  14.560 -1.6704 -1.5049 -0.0044
 8652TIP3    H247372   4.960   3.329  14.705  1.1683  0.8077  1.2238
 8653TIP3   OH247373   5.811   5.746  14.590  0.2756  0.6267 -0.0197
 8653TIP3    H147374   5.899   5.777  14.612  2.2635 -3.3741 -1.3011
 8653TIP3    H247375   5.800   5.766  14.498 -0.2523  1.2063  0.1601
 8654TIP3   OH247376   0.416   2.850   1.675  0.5345  0.2404  0.1158
 8654TIP3    H147377   0.380   2.916   1.615  0.5868 -0.7014 -0.9866
 8654TIP3    H247378   0.381   2.767   1.643  3.3356 -0.6947 -0.8228
 8655TIP3   OH247379   5.674   5.425   4.099 -0.1256  0.2387  0.1600
 8655TIP3    H147380   5.591   5.451   4.058  0.6653  1.3457 -0.7723
 8655TIP3    H247381   5.701   5.347   4.050  0.8974  1.6426 -1.6580
 8656TIP3   OH247382   3.255   3.280  16.277 -0.1366 -0.3041 -0.2319
 8656TIP3    H147383   3.305   3.336  16.336 -1.1253 -0.4615  0.7913
 8656TIP3    H247384   3.278   3.190  16.303 -1.0289 -0.3785  0.3377
 8657TIP3   OH247385   5.524   1.649   4.495 -0.7016 -0.0742  0.2937
 8657TIP3    H147386   5.443   1.602   4.480 -0.3403 -0.4219 -0.6624
 8657TIP3    H247387   5.497   1.730   4.539 -1.4347 -0.6758  0.9732
 8658TIP3   OH247388   3.892   3.964  13.698 -0.5355  0.2288  0.0384
 8658TIP3    H147389   3.892   4.005  13.784 -0.0102  1.3200 -0.4721
 8658TIP3    H247390   3.867   3.873  13.716  2.1502 -0.2981  1.7035
 8659TIP3   OH247391   5.408   3.063  12.023  0.4576 -0.2479 -0.5981
 8659TIP3    H147392   5.324   3.087  11.983 -0.3297 -0.5933  0.7573
 8659TIP3    H247393   5.417   3.123  12.096  0.8256 -0.9488 -0.0542
 8660TIP3   OH247394   2.208   6.275  13.295 -0.1317  0.0435 -0.0868
 8660TIP3    H147395   2.127   6.257  13.248  1.4644 -2.3045 -2.2357
 8660TIP3    H247396   2.197   6.232  13.380 -1.5643  0.8260  0.1502
 8661TIP3   OH247397   5.925   3.025  16.394 -0.0689  0.4901  0.2703
 8661TIP3    H147398   5.906   3.050  16.485  0.7168  1.5369  0.1654
 8661TIP3    H247399   6.020   3.017  16.390 -0.1594 -0.4041 -0.2596
 8662TIP3   OH247400   1.096   0.603  11.599  0.2804  0.0923  0.2034
 8662TIP3    H147401   1.130   0.565  11.681  0.0569 -0.2509  0.1394
 8662TIP3    H247402   1.020   0.654  11.627 -0.3591 -0.7766  0.1088
 8663TIP3   OH247403   5.437   1.729   3.980 -0.4058 -0.4384 -0.0007
 8663TIP3    H147404   5.441   1.694   4.069 -0.2354  1.3842  0.7472
 8663TIP3    H247405   5.482   1.663   3.927 -0.0480 -1.3165  1.3343
 8664TIP3   OH247406   0.500   0.245   2.280 -0.0184 -0.0153 -0.2612
 8664TIP3    H147407   0.455   0.328   2.299  1.5735  0.6152  1.0365
 8664TIP3    H247408   0.588   0.272   2.251  0.6254 -1.2458  0.4799
 8665TIP3   OH247409   4.867   5.516   4.051 -0.5281 -0.0733  0.3851
 8665TIP3    H147410   4.913   5.573   3.990 -1.4762 -0.4314 -0.7055
 8665TIP3    H247411   4.931   5.448   4.074 -0.6503 -0.9375 -1.6025
 8666TIP3   OH247412   1.337   3.560  16.440 -0.1360  0.0618 -0.3600
 8666TIP3    H147413   1.299   3.504  16.372 -0.6800  1.3114 -1.1246
 8666TIP3    H247414   1.274   3.631  16.450  0.2008  0.1825  1.0868
 8667TIP3   OH247415   0.145   5.051  12.734  0.3538 -0.5248 -0.4198
 8667TIP3    H147416   0.179   5.097  12.810 -1.2736  0.8780 -0.4790
 8667TIP3    H247417   0.158   4.958  12.754  0.2045 -0.1809  1.4439
 8668TIP3   OH247418   5.540   3.985  12.046  0.5051 -0.0995  0.3580
 8668TIP3    H147419   5.496   4.028  11.972 -0.7119 -0.2278  0.9810
 8668TIP3    H247420   5.512   3.894  12.041  1.4216 -0.3792  0.2554
 8669TIP3   OH247421   6.535   3.844   1.299  0.1094 -0.6824  0.8471
 8669TIP3    H147422   6.616   3.893   1.309 -1.3152  2.2881 -0.9674
 8669TIP3    H247423   6.520   3.806   1.386  1.7553  1.4411  2.1611
 8670TIP3   OH247424   0.488   2.481   3.298 -0.5474  0.2036  0.4495
 8670TIP3    H147425   0.564   2.479   3.240  0.2580  2.7181  1.3159
 8670TIP3    H247426   0.447   2.566   3.281 -1.3008  0.2464  2.3154
 8671TIP3   OH247427   2.035   4.419   5.001 -0.0026  0.4732  0.0985
 8671TIP3    H147428   1.970   4.454   4.941 -1.4977 -0.4477  1.1083
 8671TIP3    H247429   1.984   4.384   5.074  1.3815 -2.8535 -0.3468
 8672TIP3   OH247430   5.224   3.361   2.163  0.3055  0.2763  0.2579
 8672TIP3    H147431   5.284   3.359   2.238  0.0839  0.8669  0.4605
 8672TIP3    H247432   5.272   3.410   2.096  0.3955 -0.0180  0.1033
 8673TIP3   OH247433   6.316   2.803   2.778 -0.4385 -0.3128  0.4843
 8673TIP3    H147434   6.248   2.829   2.840  0.5074  0.0638  1.3802
 8673TIP3    H247435   6.376   2.749   2.829 -0.1251 -0.7481 -0.3319
 8674TIP3   OH247436   6.388   5.441   1.531  0.3280 -0.5190  0.2111
 8674TIP3    H147437   6.407   5.347   1.533 -2.9771 -1.3135  0.0311
 8674TIP3    H247438   6.312   5.451   1.588 -0.1850  1.8425 -0.7666
 8675TIP3   OH247439   6.778   3.933   4.864 -0.0265  0.3905 -0.0784
 8675TIP3    H147440   6.711   3.906   4.801  0.2403 -0.8839  0.1640
 8675TIP3    H247441   6.762   4.026   4.878 -2.6073 -0.1470  1.0094
 8676TIP3   OH247442   3.737   4.738  14.369  0.4783 -0.3192  0.4409
 8676TIP3    H147443   3.678   4.770  14.437  0.0251  1.6643 -0.7987
 8676TIP3    H247444   3.679   4.714  14.297  0.9544 -2.3532  0.6862
 8677TIP3   OH247445   3.237   0.554   2.985 -0.7605 -0.0218  0.1159
 8677TIP3    H147446   3.157   0.529   2.939  0.3617 -0.6071 -1.6399
 8677TIP3    H247447   3.258   0.641   2.951  0.3796 -0.6895 -0.9669
 8678TIP3   OH247448   4.120   1.232  15.610  0.1371  0.1275  0.1827
 8678TIP3    H147449   4.051   1.224  15.675 -0.0472 -1.6635 -0.1953
 8678TIP3    H247450   4.198   1.257  15.660 -0.6777  1.9186  0.6387
 8679TIP3   OH247451   0.034   0.151  16.484  0.6513  0.0435 -0.3202
 8679TIP3    H147452  -0.052   0.183  16.458  0.5362  0.3148  0.3972
 8679TIP3    H247453   0.038   0.165  16.578  1.2037 -0.6304 -0.2386
 8680TIP3   OH247454   5.542   4.464   6.082 -0.7531  0.7290 -0.1374
 8680TIP3    H147455   5.461   4.439   6.126  0.2198 -0.0205  1.2816
 8680TIP3    H247456   5.566   4.548   6.122  1.1775 -0.8765  2.3470
 8681TIP3   OH247457   3.677   5.505  13.290 -0.2907 -0.1509 -0.0578
 8681TIP3    H147458   3.760   5.464  13.264 -0.1560  0.1789 -0.1500
 8681TIP3    H247459   3.686   5.520  13.384 -0.2883 -0.2126 -0.0481
 8682TIP3   OH247460   5.958   5.193  16.417 -0.0410  0.0626  0.7162
 8682TIP3    H147461   5.969   5.202  16.322 -0.6845 -0.9995  0.5209
 8682TIP3    H247462   5.918   5.275  16.445 -2.0927 -0.5292 -0.3235
 8683TIP3   OH247463   3.358   0.783  15.911 -0.0966 -0.1583 -0.1741
 8683TIP3    H147464   3.372   0.848  15.843  0.9057 -0.1972 -0.0180
 8683TIP3    H247465   3.388   0.826  15.992  1.6252 -1.1546 -0.2265
 8684TIP3   OH247466   5.306   6.008   1.942  0.0765  0.0520  0.8163
 8684TIP3    H147467   5.374   5.961   1.990 -1.0041 -1.9888  0.4455
 8684TIP3    H247468   5.320   5.984   1.851  0.9818  2.4585  0.2364
 8685TIP3   OH247469   4.020   5.377   2.603 -0.1837 -0.3571 -0.4917
 8685TIP3    H147470   3.953   5.423   2.654 -0.3696 -0.8441 -0.2968
 8685TIP3    H247471   4.002   5.284   2.618 -0.0053 -0.4996 -1.1385
 8686TIP3   OH247472   4.554   0.489  12.752  0.4545  0.2324 -0.9375
 8686TIP3    H147473   4.534   0.437  12.830 -0.4758 -1.0204 -1.9869
 8686TIP3    H247474   4.649   0.478  12.740  0.6762  0.7263  0.1967
 8687TIP3   OH247475   5.289   2.249  15.327 -0.5994 -0.1363 -0.0422
 8687TIP3    H147476   5.363   2.224  15.383 -1.2814  1.6805  1.7895
 8687TIP3    H247477   5.218   2.191  15.354 -1.0823  1.0914  1.4326
 8688TIP3   OH247478   5.461   6.568  16.918  0.0170  0.1586  0.4244
 8688TIP3    H147479   5.426   6.654  16.941  2.6347  0.8385  2.3969
 8688TIP3    H247480   5.405   6.506  16.965 -0.4147  0.9687  1.0109
 8689TIP3   OH247481   6.364   4.112   4.144 -0.9026 -0.1751  0.6499
 8689TIP3    H147482   6.396   4.166   4.217  1.4213 -0.8949  0.2485
 8689TIP3    H247483   6.270   4.130   4.141 -0.4897  2.7724  1.4219
 8690TIP3   OH247484   3.247   4.492  14.253 -0.2892  0.0170 -0.4447
 8690TIP3    H147485   3.215   4.463  14.338 -0.3924 -0.3132 -0.5956
 8690TIP3    H247486   3.333   4.531  14.272  0.0245 -0.7324 -0.2915
 8691TIP3   OH247487   6.550   0.754  16.925 -0.1963  0.0409  0.5095
 8691TIP3    H147488   6.565   0.691  16.996  2.0415 -1.9748 -1.5501
 8691TIP3    H247489   6.456   0.746  16.906 -0.6402 -0.1149  2.4928
 8692TIP3   OH247490   5.720   4.336  10.517  0.2973 -0.3122 -0.2507
 8692TIP3    H147491   5.719   4.429  10.495 -0.5465 -0.1119  0.5287
 8692TIP3    H247492   5.636   4.322  10.561 -0.4981 -1.8894 -2.1251
 8693TIP3   OH247493   2.016   1.431  14.152 -0.3978  0.1604 -0.1137
 8693TIP3    H147494   1.926   1.465  14.151  0.0290  1.3336 -1.0206
 8693TIP3    H247495   2.025   1.384  14.069  0.1193  0.8743 -0.4676
 8694TIP3   OH247496   3.246   4.600   4.306 -0.6163  0.6352  0.4409
 8694TIP3    H147497   3.253   4.695   4.298 -0.1132  0.6317  0.8091
 8694TIP3    H247498   3.285   4.580   4.391  1.6242 -0.1797 -0.7090
 8695TIP3   OH247499   0.918   0.776  11.705 -0.6630  0.2694  0.3501
 8695TIP3    H147500   0.848   0.798  11.644 -0.1281 -0.1917 -0.4518
 8695TIP3    H247501   0.939   0.858  11.749 -0.3543  0.8537 -0.8404
 8696TIP3   OH247502   2.149   1.575  12.862  0.1334 -0.2111  0.4320
 8696TIP3    H147503   2.192   1.492  12.883  1.4985  0.4859  0.4879
 8696TIP3    H247504   2.138   1.573  12.767 -0.3264 -0.6741  0.4910
 8697TIP3   OH247505   3.739   1.335  13.654  0.5574  0.0009 -0.3413
 8697TIP3    H147506   3.794   1.313  13.578  0.8004  2.1257 -0.8529
 8697TIP3    H247507   3.750   1.429  13.665 -2.9122  0.5555 -0.4039
 8698TIP3   OH247508   4.055   6.717   4.055  0.1172  0.7203  0.0890
 8698TIP3    H147509   4.047   6.768   4.135  4.2499  1.5667  0.1987
 8698TIP3    H247510   4.111   6.642   4.079  0.4133  0.3120 -1.6959
 8699TIP3   OH247511   5.079   4.340  12.043 -0.0619 -0.0695 -0.2788
 8699TIP3    H147512   5.008   4.278  12.054 -2.3382  2.2121 -1.1825
 8699TIP3    H247513   5.084   4.387  12.126  1.8326 -1.5093  0.5003
 8700TIP3   OH247514   6.361   4.264  10.741 -0.0163  0.4274  0.0094
 8700TIP3    H147515   6.296   4.214  10.692  0.6568  1.7271 -2.3888
 8700TIP3    H247516   6.416   4.198  10.784 -2.3137 -0.7010  1.3900
 8701TIP3   OH247517   4.916   5.586  13.056 -0.4096 -0.0283 -0.0747
 8701TIP3    H147518   4.870   5.523  13.112 -0.9994 -0.2464 -0.7892
 8701TIP3    H247519   4.948   5.653  13.117 -1.7413  0.1688  0.4545
 8702TIP3   OH247520   5.842   2.986   4.915  0.0205 -0.2117  0.2561
 8702TIP3    H147521   5.934   2.980   4.890  0.2317  0.9765  0.6633
 8702TIP3    H247522   5.814   2.895   4.929  1.6123 -0.5187  1.8150
 8703TIP3   OH247523   4.258   2.646  11.464 -0.1156  0.4489 -0.5547
 8703TIP3    H147524   4.203   2.695  11.403  1.1878 -0.0431 -2.1960
 8703TIP3    H247525   4.214   2.656  11.549 -2.4327  0.5210 -1.6680
 8704TIP3   OH247526   4.838   1.474  13.563 -0.1828 -0.2576  0.7984
 8704TIP3    H147527   4.873   1.404  13.618  2.9582  1.0168  0.6638
 8704TIP3    H247528   4.795   1.533  13.625  0.4871 -0.4515  1.4711
 8705TIP3   OH247529   3.630   3.337  14.286  0.1331 -0.0217 -0.0343
 8705TIP3    H147530   3.547   3.345  14.239  0.6586 -0.4323 -1.0654
 8705TIP3    H247531   3.674   3.263  14.244  0.4763 -0.6545  1.3523
 8706TIP3   OH247532   5.413   0.134  11.326  0.2595 -0.2792 -0.2871
 8706TIP3    H147533   5.450   0.093  11.404  0.7837 -0.6813 -0.7429
 8706TIP3    H247534   5.319   0.115  11.332  0.1875  0.2975  0.6039
 8707TIP3   OH247535   5.075   1.312  13.374  0.1886 -0.2966 -0.8127
 8707TIP3    H147536   5.122   1.237  13.336  0.8506 -0.0309 -0.5436
 8707TIP3    H247537   5.102   1.387  13.320  0.3648 -0.0787 -0.4316
 8708TIP3   OH247538   2.087   3.642   2.637  0.0966  0.1327 -0.2758
 8708TIP3    H147539   2.125   3.587   2.569  1.1906  1.1298 -0.5178
 8708TIP3    H247540   2.090   3.731   2.599 -0.4084  0.5274  0.5931
 8709TIP3   OH247541   6.714   5.592  15.237 -0.0607 -0.1285  0.1934
 8709TIP3    H147542   6.796   5.627  15.272  0.3170 -1.0165  0.2299
 8709TIP3    H247543   6.680   5.537  15.308 -0.8430  0.4601  0.2880
 8710TIP3   OH247544   6.411   1.781  12.184 -0.2565  0.3110 -0.0825
 8710TIP3    H147545   6.335   1.736  12.147 -1.0150 -0.4052  2.2130
 8710TIP3    H247546   6.476   1.712  12.197 -0.0252  0.5455  0.0107
 8711TIP3   OH247547   2.910   4.262  13.119  0.0058 -0.2267  0.0900
 8711TIP3    H147548   2.942   4.321  13.051  0.0260 -0.0201  0.2754
 8711TIP3    H247549   2.820   4.290  13.134  0.7433  1.4521  1.9516
 8712TIP3   OH247550   2.502   0.887   1.492 -0.1900 -0.4406  0.0051
 8712TIP3    H147551   2.536   0.949   1.556 -1.3143 -1.3242  1.5285
 8712TIP3    H247552   2.555   0.809   1.504  1.4690  0.2660 -2.1665
 8713TIP3   OH247553   1.875   4.592   6.329 -0.1320 -1.1942  0.1817
 8713TIP3    H147554   1.913   4.605   6.416  0.6640 -3.0795  0.1741
 8713TIP3    H247555   1.791   4.549   6.346 -1.4037  1.1060  0.1003
 8714TIP3   OH247556   5.555   1.281  14.563 -0.2911  0.3393 -0.0393
 8714TIP3    H147557   5.577   1.256  14.653  1.3791  0.5810 -0.3567
 8714TIP3    H247558   5.568   1.202  14.512 -2.0993 -0.0421  0.0265
 8715TIP3   OH247559   0.070   2.301  14.502  0.5585 -0.4646 -0.0879
 8715TIP3    H147560   0.074   2.250  14.421 -0.4069 -0.9884  0.1716
 8715TIP3    H247561   0.005   2.369  14.485 -0.4358 -1.2200  0.5773
 8716TIP3   OH247562   1.039   0.953  13.221 -0.6945 -0.2023 -0.3009
 8716TIP3    H147563   1.068   0.866  13.249 -0.7052 -0.3048 -0.6075
 8716TIP3    H247564   1.116   1.008  13.229 -0.1155 -0.6941 -2.0975
 8717TIP3   OH247565   4.254   4.298  15.915 -0.3804 -0.5161 -0.2687
 8717TIP3    H147566   4.189   4.308  15.846 -1.2243 -0.9479  0.4346
 8717TIP3    H247567   4.214   4.339  15.992  0.5730  0.0334 -0.0493
 8718TIP3   OH247568   6.265   0.976  13.698  0.2136 -0.2760  0.0627
 8718TIP3    H147569   6.275   1.030  13.619  0.6330 -0.0308  0.2772
 8718TIP3    H247570   6.353   0.943  13.716  0.2221  0.0795  0.7106
 8719TIP3   OH247571   4.053   0.789   4.139 -0.1944  0.1992 -0.0403
 8719TIP3    H147572   4.076   0.805   4.231  0.6006  0.9739 -0.3540
 8719TIP3    H247573   4.042   0.694   4.133 -1.8265  0.2884  1.1873
 8720TIP3   OH247574   0.115   4.075  16.075 -0.4441 -0.8095 -0.5489
 8720TIP3    H147575   0.023   4.059  16.093 -0.1674  0.0711  2.1639
 8720TIP3    H247576   0.123   4.171  16.075  0.5059 -0.8752 -0.4364
 8721TIP3   OH247577   3.186   0.049  12.331 -0.2404  0.7206  0.8195
 8721TIP3    H147578   3.247   0.011  12.267  0.4091  3.1501 -0.0979
 8721TIP3    H247579   3.100   0.040  12.291 -0.1487 -0.1080  0.7967
 8722TIP3   OH247580   3.524   0.344   5.875  0.0811  0.1598 -0.2562
 8722TIP3    H147581   3.608   0.374   5.909  0.2279 -0.6296  0.1029
 8722TIP3    H247582   3.462   0.362   5.946  0.4930 -2.0598  0.7639
 8723TIP3   OH247583   6.699   0.833  15.049 -0.7014 -0.1885  0.5465
 8723TIP3    H147584   6.794   0.832  15.045 -0.6511 -0.5076  1.4004
 8723TIP3    H247585   6.670   0.804  14.962 -0.0805  1.9017 -0.4066
 8724TIP3   OH247586   5.593   4.074  12.294  0.1978  0.3725  0.0342
 8724TIP3    H147587   5.584   4.023  12.214 -1.6278 -0.5212  0.7264
 8724TIP3    H247588   5.606   4.164  12.265  0.5820 -0.0821 -1.2439
 8725TIP3   OH247589   1.312   3.282   1.885  0.0032 -0.0888 -0.3732
 8725TIP3    H147590   1.361   3.223   1.828 -0.6086 -0.0727 -0.9264
 8725TIP3    H247591   1.251   3.327   1.827  2.1553  3.0171 -0.4420
 8726TIP3   OH247592   1.564   4.527  15.174 -0.4414  0.1568  0.0577
 8726TIP3    H147593   1.490   4.565  15.221 -0.1813  0.6316  0.0966
 8726TIP3    H247594   1.542   4.538  15.081 -1.7844 -2.3994 -0.0014
 8727TIP3   OH247595   3.826   5.582   3.542  0.3425 -0.0338 -0.5260
 8727TIP3    H147596   3.915   5.558   3.519  0.5637  0.2939 -0.0234
 8727TIP3    H247597   3.834   5.627   3.626 -0.2455  0.3687 -0.6765
 8728TIP3   OH247598   1.559   4.990  15.608 -0.0407 -0.2358 -0.1796
 8728TIP3    H147599   1.638   5.032  15.575  0.6810 -0.1967  1.4904
 8728TIP3    H247600   1.550   5.022  15.698 -2.6831  0.7600 -0.6944
 8729TIP3   OH247601   3.237   1.223  10.643  0.3938  0.1556 -0.5841
 8729TIP3    H147602   3.174   1.280  10.600  0.6239  0.6840 -0.2202
 8729TIP3    H247603   3.291   1.281  10.696 -0.4101 -0.5856  1.0943
 8730TIP3   OH247604   0.761   3.694   0.131 -0.1043  0.6520 -0.2349
 8730TIP3    H147605   0.763   3.606   0.093  0.5340  1.5868 -2.5195
 8730TIP3    H247606   0.686   3.736   0.090  0.6421  1.7279 -0.5398
 8731TIP3   OH247607   6.176   1.192   5.169 -0.4038  0.1403  0.5456
 8731TIP3    H147608   6.169   1.228   5.257 -0.5980 -0.7631  0.9125
 8731TIP3    H247609   6.212   1.263   5.116 -1.8802  1.2564  0.9791
 8732TIP3   OH247610   6.683   5.832  12.338  0.2862 -0.2471 -0.1519
 8732TIP3    H147611   6.774   5.858  12.324  0.3237 -0.0408  0.4240
 8732TIP3    H247612   6.684   5.736  12.333  1.0530 -0.4658  2.4698
 8733TIP3   OH247613   3.982   2.998   3.877  0.0393  0.1636  0.5089
 8733TIP3    H147614   4.068   2.957   3.888  0.0927  0.0984 -0.1284
 8733TIP3    H247615   3.986   3.038   3.791 -1.2280 -1.4608 -0.3544
 8734TIP3   OH247616   2.122   3.771  16.760  0.5987  0.5570 -0.3122
 8734TIP3    H147617   2.208   3.809  16.777  2.0234 -1.8103 -1.6402
 8734TIP3    H247618   2.111   3.778  16.665 -0.8366  1.0642 -0.1381
 8735TIP3   OH247619   5.857   5.213  14.925  0.2403  0.5144 -0.5485
 8735TIP3    H147620   5.873   5.291  14.978 -1.7761  0.9106 -0.4493
 8735TIP3    H247621   5.861   5.245  14.835  1.0749  0.3603 -0.5809
 8736TIP3   OH247622   3.024   1.070  14.722  0.2926  0.3397 -0.6758
 8736TIP3    H147623   2.940   1.057  14.766 -0.2752  2.0974 -1.1414
 8736TIP3    H247624   3.041   0.988  14.677 -0.3058 -0.6500  0.8252
 8737TIP3   OH247625   1.672   0.552   5.081  0.2772 -0.5585  0.1914
 8737TIP3    H147626   1.646   0.505   5.002 -0.3522  0.3772 -0.1780
 8737TIP3    H247627   1.719   0.629   5.049  0.3514 -0.3662  0.7431
 8738TIP3   OH247628   5.917   0.866   3.336 -0.8415 -0.2150 -0.5161
 8738TIP3    H147629   5.977   0.939   3.323 -0.2278 -1.0240 -2.6073
 8738TIP3    H247630   5.963   0.790   3.300 -2.3768 -1.1908 -0.5255
 8739TIP3   OH247631   1.279   4.226  13.741  0.0523 -0.4405 -0.1722
 8739TIP3    H147632   1.300   4.209  13.833 -1.6730 -0.3502  0.2573
 8739TIP3    H247633   1.332   4.303  13.719  0.6062 -0.5605  0.6765
 8740TIP3   OH247634   0.109   1.446  15.330  0.1587  0.2277 -0.9305
 8740TIP3    H147635   0.142   1.358  15.314 -0.6253  0.2501 -3.0961
 8740TIP3    H247636   0.183   1.494  15.366  0.5814 -1.3109  0.3256
 8741TIP3   OH247637   6.120   6.459   3.720 -0.7806 -0.5461  0.2261
 8741TIP3    H147638   6.069   6.429   3.794 -0.0868 -0.8495  0.5870
 8741TIP3    H247639   6.207   6.422   3.733 -0.2679  0.5179 -0.0125
 8742TIP3   OH247640   2.751   5.516  12.923  0.3292  0.3257  0.3735
 8742TIP3    H147641   2.723   5.428  12.947  0.9882  0.0815  0.2837
 8742TIP3    H247642   2.811   5.542  12.994  1.1989  0.1533 -0.2835
 8743TIP3   OH247643   3.678   0.672   0.259  0.3847 -0.0227  0.0385
 8743TIP3    H147644   3.654   0.580   0.249  1.4662 -0.1236 -2.2554
 8743TIP3    H247645   3.752   0.684   0.199  0.5833  2.2354  0.6465
 8744TIP3   OH247646   4.855   3.644   4.159 -0.6071  0.1472  0.0707
 8744TIP3    H147647   4.936   3.663   4.207 -0.9548 -0.6878  1.0461
 8744TIP3    H247648   4.798   3.718   4.177 -0.2179  0.5247 -0.2481
 8745TIP3   OH247649   5.862   1.653  15.712  0.7777  0.0355  0.3800
 8745TIP3    H147650   5.838   1.625  15.800 -0.2155  1.9938  0.7909
 8745TIP3    H247651   5.779   1.673  15.669  1.3498  3.1808  0.4915
 8746TIP3   OH247652   2.374   0.240   1.599 -0.0006  0.5803  0.3189
 8746TIP3    H147653   2.397   0.166   1.543  0.2830  0.3648  0.7182
 8746TIP3    H247654   2.287   0.266   1.569 -0.1036  0.0844  0.1814
 8747TIP3   OH247655   0.447   2.522   3.921  0.2046 -0.1033  0.0611
 8747TIP3    H147656   0.364   2.526   3.969 -0.2666 -0.9177 -0.6575
 8747TIP3    H247657   0.469   2.429   3.919  1.9028  0.2180  1.4907
 8748TIP3   OH247658   1.667   3.827   5.711  0.2851  0.2877 -0.0631
 8748TIP3    H147659   1.578   3.813   5.743  0.1466 -0.8068 -0.8739
 8748TIP3    H247660   1.723   3.796   5.782  0.0021 -0.3562 -0.1167
 8749TIP3   OH247661   5.373   3.390   6.600 -0.7410 -0.8293  0.7144
 8749TIP3    H147662   5.401   3.319   6.658 -3.1101 -1.2022  1.5239
 8749TIP3    H247663   5.329   3.346   6.527  0.0808 -0.2676 -0.1367
 8750TIP3   OH247664   5.843   3.895   2.591  0.6602  0.0676  0.4000
 8750TIP3    H147665   5.756   3.934   2.576  1.3316  1.9490  1.1630
 8750TIP3    H247666   5.893   3.964   2.634  2.3847 -1.1864  0.4852
 8751TIP3   OH247667   3.505   0.920   1.954  1.0628 -0.3132 -0.1872
 8751TIP3    H147668   3.557   0.895   1.877  0.2356 -2.5580 -0.1029
 8751TIP3    H247669   3.515   1.015   1.961  2.1172 -0.2160 -2.3494
 8752TIP3   OH247670   5.222   3.972   4.706 -0.6477  0.1536  0.7623
 8752TIP3    H147671   5.247   3.987   4.614 -1.5735  0.4097  0.5441
 8752TIP3    H247672   5.296   3.925   4.743  0.2745  1.1205  0.2050
 8753TIP3   OH247673   4.687   1.342  12.069  0.0845  0.3572 -0.1006
 8753TIP3    H147674   4.643   1.408  12.014  2.2366  1.2291 -0.8775
 8753TIP3    H247675   4.778   1.346  12.042  1.0745  0.1121  2.8727
 8754TIP3   OH247676   5.443   5.988  16.882 -0.3476  0.3919  0.8146
 8754TIP3    H147677   5.411   5.901  16.859  3.1633 -0.8396 -0.1682
 8754TIP3    H247678   5.421   5.998  16.974 -1.3136 -1.3109  0.8196
 8755TIP3   OH247679   2.921   5.153   1.545 -0.5126  0.0088 -0.0022
 8755TIP3    H147680   2.949   5.241   1.521 -1.0905  0.7691  1.9252
 8755TIP3    H247681   2.990   5.120   1.602 -1.1610 -0.0724  0.7438
 8756TIP3   OH247682   1.743   4.274  14.215  0.6714  0.0372 -0.1761
 8756TIP3    H147683   1.660   4.288  14.169  1.2371  0.3515 -1.1490
 8756TIP3    H247684   1.752   4.351  14.272  0.0927 -0.2167  0.2645
 8757TIP3   OH247685   0.840   1.177  14.642  0.1381  0.0591 -0.2544
 8757TIP3    H147686   0.849   1.081  14.640  0.2907  0.0690 -2.3194
 8757TIP3    H247687   0.930   1.209  14.650  0.0821  0.0418  0.4972
 8758TIP3   OH247688   1.355   0.455  11.225  0.0348  0.0239 -0.3385
 8758TIP3    H147689   1.355   0.362  11.248  1.8221  0.3922  1.3728
 8758TIP3    H247690   1.434   0.490  11.264 -1.2884  2.6000  0.2829
 8759TIP3   OH247691   0.729   2.376  10.953 -0.4297 -0.2161 -0.2224
 8759TIP3    H147692   0.728   2.299  10.895 -3.0867 -1.0449  0.8000
 8759TIP3    H247693   0.645   2.419  10.937 -0.2510  0.8003  1.3794
 8760TIP3   OH247694   3.043   0.177   2.188 -0.3251 -0.2446  0.8592
 8760TIP3    H147695   2.951   0.175   2.216 -0.4473 -0.9157  0.4279
 8760TIP3    H247696   3.090   0.212   2.264 -1.0837  1.3655  0.6427
 8761TIP3   OH247697   5.309   3.046   1.233  0.0100 -0.1545  0.1262
 8761TIP3    H147698   5.372   3.109   1.197 -0.7561  1.4054  1.3953
 8761TIP3    H247699   5.270   3.005   1.155  0.8157  0.6379 -0.7335
 8762TIP3   OH247700   6.611   3.986   3.706 -0.2923 -0.2048 -0.3007
 8762TIP3    H147701   6.663   3.921   3.753  0.2177  0.2215 -0.2573
 8762TIP3    H247702   6.521   3.968   3.731 -0.1473 -0.8096 -0.1901
 8763TIP3   OH247703   1.283   0.651  17.125 -0.2403  0.2820 -0.1580
 8763TIP3    H147704   1.371   0.645  17.164 -0.6832  0.9301  0.9857
 8763TIP3    H247705   1.298   0.637  17.032  1.2831  1.6345 -0.1818
 8764TIP3   OH247706   1.617   1.094  15.996 -0.1912 -0.2209  0.4993
 8764TIP3    H147707   1.693   1.084  15.939 -1.0087 -0.8355 -0.5164
 8764TIP3    H247708   1.543   1.103  15.936 -1.4190 -3.2192  1.3638
 8765TIP3   OH247709   0.483   0.433   5.932 -0.0643  0.0241 -0.0145
 8765TIP3    H147710   0.487   0.505   5.995 -3.2181  0.5368 -0.2427
 8765TIP3    H247711   0.503   0.474   5.848  1.5720 -0.1334  0.2688
 8766TIP3   OH247712   1.190   1.132   2.702  0.2394 -0.1491  0.2716
 8766TIP3    H147713   1.174   1.129   2.608 -0.1989 -0.5829  0.3536
 8766TIP3    H247714   1.202   1.040   2.727  1.2666  0.0323  0.4900
 8767TIP3   OH247715   2.874   0.865   1.800 -0.6758 -0.2420 -0.5705
 8767TIP3    H147716   2.845   0.930   1.864 -1.3393 -3.2149  2.4439
 8767TIP3    H247717   2.968   0.877   1.794 -0.9307  1.9667 -1.4483
 8768TIP3   OH247718   4.453   3.542  13.413  0.0001  0.2289 -0.1022
 8768TIP3    H147719   4.403   3.468  13.380 -0.7220  0.2346  0.9511
 8768TIP3    H247720   4.459   3.528  13.507  2.9017 -0.3067 -0.2778
 8769TIP3   OH247721   4.111   3.890  14.517  0.1605  0.8454  0.3458
 8769TIP3    H147722   4.174   3.826  14.550  0.3219  1.2915  0.9275
 8769TIP3    H247723   4.049   3.901  14.589  0.2203  1.4428  0.3101
 8770TIP3   OH247724   6.241   6.674   5.122 -0.1681 -0.4524  0.1380
 8770TIP3    H147725   6.161   6.724   5.135  1.2047  1.5245  1.6318
 8770TIP3    H247726   6.279   6.709   5.041 -0.4670 -0.9165 -0.2074
 8771TIP3   OH247727   0.013   2.947   5.895 -0.0395 -0.1915 -0.0466
 8771TIP3    H147728  -0.019   2.870   5.942 -0.6090  0.5301  0.7827
 8771TIP3    H247729   0.060   2.911   5.820  1.1856 -1.3941  1.2370
 8772TIP3   OH247730   1.498   2.268  14.049  0.4038  0.3739 -0.0021
 8772TIP3    H147731   1.585   2.291  14.081  0.4371  0.1185  0.1001
 8772TIP3    H247732   1.460   2.215  14.120 -0.0166  0.8832  0.1545
 8773TIP3   OH247733   5.003   6.190   1.672 -0.2319  0.4666 -0.3247
 8773TIP3    H147734   5.058   6.119   1.638 -0.2007  0.4353 -0.2071
 8773TIP3    H247735   4.949   6.150   1.739  0.1884  0.6683  0.1457
 8774TIP3   OH247736   6.499   3.734   5.966 -0.2621  0.5015 -0.4636
 8774TIP3    H147737   6.533   3.806   6.018  1.4180 -0.1449 -0.6155
 8774TIP3    H247738   6.405   3.751   5.959 -0.1884  1.6706  1.0582
 8775TIP3   OH247739   3.709   0.188  14.065 -0.0878 -0.2848 -0.7914
 8775TIP3    H147740   3.672   0.101  14.048 -3.2645  0.8595 -0.4288
 8775TIP3    H247741   3.696   0.201  14.159  0.5480  0.5268 -0.8059
 8776TIP3   OH247742   5.189   5.583   0.050 -0.1920  0.4178 -0.0467
 8776TIP3    H147743   5.187   5.567  -0.044 -1.3100 -1.5130  0.2484
 8776TIP3    H247744   5.144   5.667   0.061 -1.5251 -0.1236 -1.1203
 8777TIP3   OH247745   2.650   5.347  14.939 -0.6020  0.3743 -0.4673
 8777TIP3    H147746   2.581   5.281  14.926  1.0175 -1.1584 -1.7282
 8777TIP3    H247747   2.716   5.303  14.993 -0.5153  1.7890  0.6512
 8778TIP3   OH247748   4.640   1.328   0.985 -0.1266  0.6257 -0.2282
 8778TIP3    H147749   4.676   1.411   0.953 -0.3720  0.7122 -0.2832
 8778TIP3    H247750   4.610   1.283   0.906 -1.0193  0.9758 -0.1016
 8779TIP3   OH247751   0.210   2.563  11.239 -0.1313  0.1510 -0.3242
 8779TIP3    H147752   0.174   2.615  11.167  0.0996  0.2463 -0.3703
 8779TIP3    H247753   0.216   2.625  11.312 -1.0084 -0.1049 -0.0135
 8780TIP3   OH247754   3.277   5.958  16.601 -0.2132  0.5095  0.3851
 8780TIP3    H147755   3.221   5.915  16.666 -1.0485  0.8289 -0.1059
 8780TIP3    H247756   3.277   6.050  16.627 -1.1570  0.7631 -0.4860
 8781TIP3   OH247757   3.690   4.819   4.660  0.1320 -0.0353 -0.1267
 8781TIP3    H147758   3.700   4.793   4.752  1.2076 -0.5998 -0.3898
 8781TIP3    H247759   3.637   4.899   4.664  3.2834  2.2074  1.3226
 8782TIP3   OH247760   5.598   2.069   0.130 -0.0724  0.0990 -0.0243
 8782TIP3    H147761   5.591   2.043   0.222 -1.6294  0.6719  0.0481
 8782TIP3    H247762   5.642   2.153   0.133 -0.9077  0.5411  0.2938
 8783TIP3   OH247763   4.138   3.903  15.643  0.2704  0.2018 -0.2713
 8783TIP3    H147764   4.057   3.887  15.692 -0.5454  0.6003 -1.4468
 8783TIP3    H247765   4.125   3.860  15.559  0.6241  1.5708 -1.0674
 8784TIP3   OH247766   1.268   4.854  13.871  0.4058  0.1533 -0.0692
 8784TIP3    H147767   1.230   4.881  13.955 -1.1088 -1.5500 -0.1358
 8784TIP3    H247768   1.213   4.897  13.805  0.1301 -0.3489 -0.1713
 8785TIP3   OH247769   3.194   0.585   2.218  0.4830 -0.1471  0.2092
 8785TIP3    H147770   3.123   0.522   2.209 -0.9501  1.4551 -0.3969
 8785TIP3    H247771   3.175   0.631   2.300  0.0682  1.1185 -0.5626
 8786TIP3   OH247772   1.047   5.410  17.219 -0.0611  0.0228  0.2651
 8786TIP3    H147773   1.139   5.401  17.192  0.3369 -0.7639  1.8126
 8786TIP3    H247774   1.029   5.504  17.212  0.7122  0.1273 -0.4842
 8787TIP3   OH247775   6.675   5.270   0.297  0.0095 -0.1914 -0.0325
 8787TIP3    H147776   6.692   5.307   0.211 -0.2191  0.8847  0.3689
 8787TIP3    H247777   6.715   5.183   0.295 -0.0450 -0.1964 -1.2364
 8788TIP3   OH247778   1.532   4.717  15.632  0.1701  0.2111  0.4752
 8788TIP3    H147779   1.544   4.811  15.617 -0.0699  0.3802  1.2654
 8788TIP3    H247780   1.610   4.676  15.594  0.6839  0.8087  0.8658
 8789TIP3   OH247781   0.351   3.043   1.494  0.4870  0.2054 -0.8042
 8789TIP3    H147782   0.323   3.020   1.405 -0.4548 -2.3983  0.0853
 8789TIP3    H247783   0.367   3.137   1.490 -3.1096  0.9160 -2.8642
 8790TIP3   OH247784   5.349   1.430  14.650 -0.2375  0.2148  0.1710
 8790TIP3    H147785   5.403   1.509  14.645 -0.3070  0.2623  0.1705
 8790TIP3    H247786   5.409   1.359  14.630  0.7086 -0.1215  3.5955
 8791TIP3   OH247787   1.627   6.424  13.884 -0.4758 -0.5955  0.2652
 8791TIP3    H147788   1.721   6.439  13.889 -0.3861 -0.8220 -0.5327
 8791TIP3    H247789   1.590   6.510  13.865 -0.4201 -0.5301  0.4489
 8792TIP3   OH247790   0.025   3.708  14.066  0.2550 -0.1635 -0.1251
 8792TIP3    H147791   0.000   3.635  14.010 -0.6112  0.2242 -0.2538
 8792TIP3    H247792   0.105   3.743  14.027 -0.8647  0.7159 -1.6915
 8793TIP3   OH247793   3.432   2.757  11.973  0.2613 -0.0095  0.2879
 8793TIP3    H147794   3.367   2.822  11.944  0.2980  0.4220  1.1389
 8793TIP3    H247795   3.411   2.678  11.922 -1.1761  0.0042  0.8036
 8794TIP3   OH247796   2.103   5.488   5.795  0.0551 -0.6213  0.3143
 8794TIP3    H147797   2.165   5.450   5.857  0.7351 -0.7678 -0.4279
 8794TIP3    H247798   2.145   5.475   5.710 -0.2029  0.8032 -0.0566
 8795TIP3   OH247799   2.510   5.034  15.879  0.3678  0.1353 -0.1560
 8795TIP3    H147800   2.459   4.971  15.829 -0.7433  0.8657  0.0255
 8795TIP3    H247801   2.451   5.109  15.891  1.2201  0.6905  0.7198
 8796TIP3   OH247802   0.717   1.151  12.963  0.2559  0.2314 -0.6146
 8796TIP3    H147803   0.783   1.091  12.928  1.7735  1.1418  0.5449
 8796TIP3    H247804   0.701   1.213  12.892  0.4927 -0.1051 -0.9685
 8797TIP3   OH247805   1.567   5.081  11.939 -0.0210 -0.1023  0.0908
 8797TIP3    H147806   1.605   5.102  11.854 -0.9191 -0.1212 -0.3184
 8797TIP3    H247807   1.592   4.990  11.955 -1.3868 -0.7030 -1.0072
 8798TIP3   OH247808   1.205   0.787   0.981  0.7617  0.5771 -0.1631
 8798TIP3    H147809   1.130   0.847   0.975 -0.0998 -0.2665  1.3294
 8798TIP3    H247810   1.198   0.731   0.904 -0.6895 -0.0492  0.3896
 8799TIP3   OH247811   1.794   0.371  14.886 -0.2775 -0.4294  0.0532
 8799TIP3    H147812   1.868   0.411  14.840 -1.1610  1.0702 -0.1245
 8799TIP3    H247813   1.834   0.327  14.961  0.7340  1.0352  0.4190
 8800TIP3   OH247814   5.759   1.892   5.752  0.0796  0.0311  0.0539
 8800TIP3    H147815   5.760   1.799   5.729 -0.8039  0.3481 -1.4273
 8800TIP3    H247816   5.830   1.931   5.701  1.6626 -0.0753  2.0586
 8801TIP3   OH247817   4.155   4.008  16.525 -0.1294 -0.2288 -0.1209
 8801TIP3    H147818   4.172   4.039  16.436 -1.2731 -1.3584 -0.7673
 8801TIP3    H247819   4.203   3.925  16.531 -1.9817 -1.4016 -0.5796
 8802TIP3   OH247820   4.343   4.664  13.594 -0.7696  0.3907  0.5717
 8802TIP3    H147821   4.321   4.597  13.660 -0.3601 -0.7994 -0.4595
 8802TIP3    H247822   4.264   4.718  13.588 -1.4562 -0.5493  0.7941
 8803TIP3   OH247823   5.615   5.483  11.240  0.5156  0.3286 -0.7655
 8803TIP3    H147824   5.570   5.454  11.320 -0.6514  1.5652 -0.9320
 8803TIP3    H247825   5.631   5.403  11.191 -0.1112 -0.3027  0.0233
 8804TIP3   OH247826   1.826   4.032   3.685  0.5008  1.1127  0.2941
 8804TIP3    H147827   1.870   4.072   3.759  0.4168  2.6223 -0.4272
 8804TIP3    H247828   1.799   4.106   3.630  0.0637  0.0735 -0.9559
 8805TIP3   OH247829   5.352   0.020   0.858 -0.3242 -0.3136  0.2741
 8805TIP3    H147830   5.441   0.035   0.890 -0.3117 -0.1599  0.1690
 8805TIP3    H247831   5.330  -0.069   0.887 -0.2737 -0.2145  0.6153
 8806TIP3   OH247832   1.406   0.528   5.282 -0.1921 -0.2655  0.0777
 8806TIP3    H147833   1.429   0.500   5.370  1.1097 -1.5890 -0.6525
 8806TIP3    H247834   1.386   0.448   5.235 -0.6646  0.4093 -0.9128
 8807TIP3   OH247835   3.756   1.761  15.796  0.2709 -0.1775 -0.5035
 8807TIP3    H147836   3.828   1.785  15.854 -0.8751  3.2989 -0.2461
 8807TIP3    H247837   3.680   1.753  15.855 -0.3130  0.3564 -1.1669
 8808TIP3   OH247838   3.867   1.277   4.093 -0.8640 -0.5375  0.1777
 8808TIP3    H147839   3.777   1.309   4.106  0.3189  3.3179  0.2228
 8808TIP3    H247840   3.875   1.265   3.999 -1.4982 -1.2599  0.2046
 8809TIP3   OH247841   1.473   5.604   1.063 -0.3413  0.2257 -0.2458
 8809TIP3    H147842   1.510   5.658   0.993 -0.2756 -1.6392 -1.7236
 8809TIP3    H247843   1.550   5.572   1.111 -0.2888  0.2081 -0.3398
 8810TIP3   OH247844   4.889   4.381   1.381  0.8627 -0.0916  0.3459
 8810TIP3    H147845   4.984   4.376   1.393  1.2947 -0.5062 -2.5368
 8810TIP3    H247846   4.877   4.447   1.312 -1.0502  0.6871  1.3541
 8811TIP3   OH247847   4.443   5.571  14.620  0.4408  0.8392  0.4257
 8811TIP3    H147848   4.537   5.561  14.605  0.1609  0.2587 -1.1045
 8811TIP3    H247849   4.424   5.661  14.596  0.6381  1.0340  0.9817
 8812TIP3   OH247850   6.771   5.309  15.600  0.1378  0.2723 -0.3688
 8812TIP3    H147851   6.861   5.341  15.594 -0.1745  1.2088 -0.2563
 8812TIP3    H247852   6.717   5.385  15.576 -0.5862 -0.6500 -1.8239
 8813TIP3   OH247853   1.460   0.299  14.700 -0.3932  0.4806 -0.1726
 8813TIP3    H147854   1.367   0.292  14.683 -0.4531 -0.9056  0.5634
 8813TIP3    H247855   1.498   0.222  14.659  0.2157  0.2361  0.8013
 8814TIP3   OH247856   1.946   3.177  13.191  0.2008  0.0608  0.5932
 8814TIP3    H147857   1.928   3.121  13.267  0.1585 -0.9393 -0.1285
 8814TIP3    H247858   2.028   3.143  13.156  1.0124  1.4751  1.0358
 8815TIP3   OH247859   4.383   2.245  13.093 -0.2840  0.0629  0.1327
 8815TIP3    H147860   4.422   2.168  13.052 -0.8634  0.2768 -0.8565
 8815TIP3    H247861   4.457   2.302  13.114  0.1094 -0.5733  0.4845
 8816TIP3   OH247862   5.010   2.114   0.511  0.1998 -0.4121  0.5986
 8816TIP3    H147863   4.974   2.090   0.596  0.5780  1.0245  1.1876
 8816TIP3    H247864   5.083   2.172   0.531  1.1831 -1.1500 -0.6672
 8817TIP3   OH247865   2.617   3.073  15.842 -0.5642  0.2884  0.2355
 8817TIP3    H147866   2.627   3.152  15.790 -0.9064  0.5461  0.5575
 8817TIP3    H247867   2.678   3.084  15.915  0.0559 -0.1589 -0.2061
 8818TIP3   OH247868   0.702   3.547   6.185  0.7376 -0.1182 -0.0292
 8818TIP3    H147869   0.683   3.455   6.165  1.4090 -0.3518  0.3669
 8818TIP3    H247870   0.635   3.572   6.248  0.2426 -0.1805 -0.5253
 8819TIP3   OH247871   6.325   5.340   2.819 -0.3278  0.6157 -0.0039
 8819TIP3    H147872   6.238   5.315   2.850 -0.1133 -0.6758 -0.3640
 8819TIP3    H247873   6.325   5.435   2.819 -1.7626  0.6288 -0.0529
 8820TIP3   OH247874   0.652   6.397  17.175  0.0005  0.2327 -0.5698
 8820TIP3    H147875   0.659   6.447  17.094  0.5331  2.7247  0.9016
 8820TIP3    H247876   0.734   6.413  17.221  0.1093 -1.9114  0.0881
 8821TIP3   OH247877   5.521   4.327   1.214 -0.0089  0.1120 -0.0489
 8821TIP3    H147878   5.466   4.249   1.215 -0.7256  0.6099 -0.0160
 8821TIP3    H247879   5.610   4.294   1.202 -0.4987 -0.5880 -2.0768
 8822TIP3   OH247880   4.756   1.234   2.892  0.4755 -0.2010 -0.1010
 8822TIP3    H147881   4.756   1.152   2.940  0.3638  0.0198  0.2833
 8822TIP3    H247882   4.833   1.281   2.925  1.7439 -1.0040 -1.8099
 8823TIP3   OH247883   1.258   0.229   6.169 -0.6311 -0.4305  0.0776
 8823TIP3    H147884   1.178   0.183   6.193 -0.2580 -1.5776 -0.7745
 8823TIP3    H247885   1.285   0.188   6.086  0.7633  0.0199  0.2856
 8824TIP3   OH247886   1.546   2.940  13.231  0.1485 -0.2573  0.3067
 8824TIP3    H147887   1.476   3.001  13.258  0.1866 -1.0040  2.2056
 8824TIP3    H247888   1.604   2.994  13.177 -0.8169  0.8949  0.3567
 8825TIP3   OH247889   3.331   0.432   1.728 -0.2316  0.0783 -0.1470
 8825TIP3    H147890   3.383   0.509   1.707  0.0199 -0.4138 -1.3627
 8825TIP3    H247891   3.262   0.430   1.662 -1.6147  0.5185  1.2252
 8826TIP3   OH247892   1.261   3.155  12.236  0.5632  0.0214  0.6481
 8826TIP3    H147893   1.174   3.124  12.212  0.2408  0.6642  0.9643
 8826TIP3    H247894   1.257   3.250  12.225  1.3768  0.0106  0.1894
 8827TIP3   OH247895   3.939   6.292   0.815  0.0713  0.3165 -0.2648
 8827TIP3    H147896   4.004   6.325   0.752  1.0061  1.1505  1.0845
 8827TIP3    H247897   3.966   6.201   0.830  0.9566  0.6531  0.2810
 8828TIP3   OH247898   3.856   3.851  11.074  0.2074  0.2995  0.4816
 8828TIP3    H147899   3.795   3.787  11.111 -0.6097  0.8578  0.1194
 8828TIP3    H247900   3.808   3.890  11.000  0.9599  0.8276  0.2604
 8829TIP3   OH247901   0.964   5.910   2.333  0.3783 -0.5894  0.1728
 8829TIP3    H147902   0.989   5.822   2.305  0.7841 -0.4911  0.2098
 8829TIP3    H247903   0.905   5.897   2.406  0.6229 -0.8294  0.3282
 8830TIP3   OH247904   4.590   4.113   4.259 -0.3295  0.5073  0.5249
 8830TIP3    H147905   4.585   4.116   4.355  0.9027  2.2257  0.5935
 8830TIP3    H247906   4.668   4.165   4.238  1.5432 -2.7420 -1.2742
 8831TIP3   OH247907   5.166   6.130   2.173 -0.3858  0.4901  0.1035
 8831TIP3    H147908   5.214   6.082   2.105 -1.0208  1.9444 -1.4424
 8831TIP3    H247909   5.189   6.221   2.160 -0.9218  0.8617  1.5543
 8832TIP3   OH247910   0.464   5.522  13.801  0.1632 -0.7106 -0.2037
 8832TIP3    H147911   0.420   5.470  13.868 -0.1777 -1.3724 -0.9312
 8832TIP3    H247912   0.399   5.532  13.731  0.0619  1.0752  0.0931
 8833TIP3   OH247913   1.679   2.681   2.430 -0.2264  0.5519 -0.0028
 8833TIP3    H147914   1.624   2.702   2.505 -0.0912 -0.5903  0.4458
 8833TIP3    H247915   1.632   2.612   2.384 -1.2075  2.4760 -2.0555
 8834TIP3   OH247916   4.221   0.142  11.756 -0.1319 -0.4217 -0.2970
 8834TIP3    H147917   4.134   0.103  11.749 -0.7382  0.5212  1.4937
 8834TIP3    H247918   4.204   0.234  11.774  1.1965 -0.5943  2.1083
 8835TIP3   OH247919   6.136   3.742   0.799  0.5722 -0.3701  0.0028
 8835TIP3    H147920   6.058   3.745   0.744  2.1039  2.0528 -2.3383
 8835TIP3    H247921   6.152   3.834   0.822  1.8285 -0.9888  1.8001
 8836TIP3   OH247922   4.741   6.024   0.173  0.3846 -0.0820 -0.1152
 8836TIP3    H147923   4.769   6.057   0.259  0.3108 -1.5177  0.4871
 8836TIP3    H247924   4.822   5.993   0.132  0.3667  0.2549 -0.4041
 8837TIP3   OH247925   5.878   2.741   2.264  0.0102 -0.6148  0.1838
 8837TIP3    H147926   5.884   2.796   2.342 -1.8698  0.2003 -0.1724
 8837TIP3    H247927   5.963   2.751   2.221 -0.0984  1.6979  0.3591
 8838TIP3   OH247928   6.737   6.611  12.735 -0.9716  0.2903 -0.0618
 8838TIP3    H147929   6.771   6.699  12.750 -0.1710  0.0090 -0.2087
 8838TIP3    H247930   6.649   6.613  12.773 -0.4329  0.7348  1.2105
 8839TIP3   OH247931   0.660   0.278  16.144 -0.2728  0.2700 -0.3118
 8839TIP3    H147932   0.734   0.337  16.159 -0.3075  0.2682 -0.1313
 8839TIP3    H247933   0.584   0.327  16.176 -0.1623 -0.3151  0.8895
 8840TIP3   OH247934   3.097   4.118  15.147  0.2267  0.8495  0.2620
 8840TIP3    H147935   3.097   4.049  15.080 -1.8917  1.0856 -0.0605
 8840TIP3    H247936   3.136   4.076  15.224  1.5385  0.1798 -0.7268
 8841TIP3   OH247937   1.055   3.304   4.788 -0.2449  0.0651 -0.0974
 8841TIP3    H147938   1.116   3.266   4.725  0.5103 -0.7050  1.0656
 8841TIP3    H247939   1.109   3.365   4.839 -0.2433 -1.1147  1.3841
 8842TIP3   OH247940   5.340   5.053  11.532  0.0385 -0.7542  0.0978
 8842TIP3    H147941   5.434   5.072  11.528  0.3661 -2.3909 -0.9294
 8842TIP3    H247942   5.308   5.075  11.444 -0.6126  0.0769  0.5314
 8843TIP3   OH247943   1.908   5.918   6.341 -0.1044  0.6727 -0.3223
 8843TIP3    H147944   1.961   5.853   6.387 -0.7891  0.1189 -0.2980
 8843TIP3    H247945   1.927   6.001   6.385  0.1083  0.3356  0.2258
 8844TIP3   OH247946   3.294   6.369   3.425  0.5784  0.6929 -0.1511
 8844TIP3    H147947   3.279   6.375   3.331 -0.4254  0.2717 -0.0295
 8844TIP3    H247948   3.374   6.420   3.440 -0.0667  2.0048 -1.0106
 8845TIP3   OH247949   6.666   5.285  13.823  0.3286  0.0161 -0.2177
 8845TIP3    H147950   6.575   5.304  13.800 -0.8922 -2.4112  2.0542
 8845TIP3    H247951   6.715   5.364  13.797 -2.3869  1.4017 -1.5036
 8846TIP3   OH247952   0.026   3.181  13.815 -0.1412  0.4368 -0.2102
 8846TIP3    H147953   0.016   3.234  13.894  0.3897  0.7129 -0.3219
 8846TIP3    H247954   0.067   3.100  13.846  1.7116  1.2505 -0.4392
 8847TIP3   OH247955   0.874   0.420  13.175 -0.5504 -0.0978  0.2787
 8847TIP3    H147956   0.816   0.473  13.120 -0.7265 -0.4478  0.1278
 8847TIP3    H247957   0.917   0.360  13.114 -1.0303 -0.7452  0.5729
 8848TIP3   OH247958   3.261   2.992  16.292  0.4275  0.3994 -0.7009
 8848TIP3    H147959   3.219   2.912  16.261 -1.7522  0.5629  1.5335
 8848TIP3    H247960   3.289   2.970  16.381 -1.6459  2.5281  0.5630
 8849TIP3   OH247961   2.644   1.336   4.133 -0.5650  0.1590  0.1483
 8849TIP3    H147962   2.728   1.317   4.093 -0.7854  2.3949 -1.5149
 8849TIP3    H247963   2.579   1.315   4.066 -1.3300 -0.8710  1.1585
 8850TIP3   OH247964   0.203   4.474   1.476  0.4409  0.3629  0.7715
 8850TIP3    H147965   0.135   4.465   1.543 -0.7466  0.0216 -0.4329
 8850TIP3    H247966   0.197   4.393   1.425  1.8556  0.2691  0.7149
 8851TIP3   OH247967   4.273   0.301   1.861  0.4654 -0.5004  0.7552
 8851TIP3    H147968   4.279   0.250   1.942  0.6332  0.3095  1.2648
 8851TIP3    H247969   4.236   0.385   1.888  0.6002 -0.1919  0.0038
 8852TIP3   OH247970   4.887   3.982  12.453 -0.4028  0.1349  0.0232
 8852TIP3    H147971   4.905   4.022  12.368  3.3894  0.1604  0.7024
 8852TIP3    H247972   4.807   4.026  12.483 -1.2542  0.8900 -3.0045
 8853TIP3   OH247973   4.956   6.489   0.024 -0.1094 -0.1550 -0.1634
 8853TIP3    H147974   4.982   6.399   0.005 -0.4200 -0.5672  1.2163
 8853TIP3    H247975   4.861   6.485   0.036  0.1430 -0.2350  2.5615
 8854TIP3   OH247976   1.692   0.116   5.660  0.4859  0.0873  0.1830
 8854TIP3    H147977   1.722   0.033   5.622  0.6434  0.1851  0.0952
 8854TIP3    H247978   1.724   0.114   5.750  1.0037  0.3217  0.0041
 8855TIP3   OH247979   3.569   6.170  16.519 -0.3188  0.1610  0.0051
 8855TIP3    H147980   3.643   6.113  16.498  0.9943  1.3634  1.1192
 8855TIP3    H247981   3.542   6.207  16.435  2.6751  2.3866 -0.1325
 8856TIP3   OH247982   6.242   2.090   3.068 -0.2016 -0.4451  0.1791
 8856TIP3    H147983   6.269   1.998   3.067 -1.2857 -0.7783  0.4922
 8856TIP3    H247984   6.313   2.135   3.116 -0.1529 -1.2790  0.9266
 8857TIP3   OH247985   3.609   5.697  15.012  0.1126 -0.4566  0.8585
 8857TIP3    H147986   3.531   5.652  14.980 -0.7751  2.3623 -1.3499
 8857TIP3    H247987   3.674   5.685  14.943  0.9815 -0.9928  1.7305
 8858TIP3   OH247988   0.711   3.482   4.611  0.5447  0.1629  0.4737
 8858TIP3    H147989   0.797   3.440   4.607  0.9997  1.1689 -0.6081
 8858TIP3    H247990   0.728   3.568   4.649  0.0038  0.3574  0.2792
 8859TIP3   OH247991   4.644   5.345   3.067 -0.2042  0.2534 -0.2503
 8859TIP3    H147992   4.627   5.254   3.092 -0.4580  0.4742  0.4031
 8859TIP3    H247993   4.620   5.349   2.975 -1.2788 -0.0797 -0.0047
 8860TIP3   OH247994   6.677   1.900   5.049  0.7958 -0.1554 -0.0885
 8860TIP3    H147995   6.591   1.887   5.087 -0.0281 -0.6955 -2.0272
 8860TIP3    H247996   6.735   1.842   5.099 -0.3022 -1.1567  0.0623
 8861TIP3   OH247997   4.775   1.593  13.341  0.0806 -0.5113  0.2841
 8861TIP3    H147998   4.712   1.532  13.303 -0.1865 -0.5151  0.7301
 8861TIP3    H247999   4.798   1.555  13.425 -1.6709  1.0218  1.5193
 8862TIP3   OH248000   5.002   2.480  14.773 -0.1625  0.2339 -0.6099
 8862TIP3    H148001   5.005   2.437  14.859 -1.2431  1.1174 -0.1026
 8862TIP3    H248002   4.912   2.466  14.744 -0.1775  1.0992 -0.9877
 8863TIP3   OH248003   5.214   3.298  15.615 -0.3374  0.0625  0.3385
 8863TIP3    H148004   5.230   3.237  15.687  1.0954  1.0678  0.9333
 8863TIP3    H248005   5.274   3.271  15.546  1.1201  1.3729  1.0150
 8864TIP3   OH248006   0.365   5.773   4.700 -0.5593  0.1355 -0.7608
 8864TIP3    H148007   0.414   5.855   4.707  1.4724 -1.1065  0.4295
 8864TIP3    H248008   0.422   5.714   4.652 -0.4911 -1.5836  1.2824
 8865TIP3   OH248009   5.131   6.265  13.160 -0.6106  0.0693  0.1452
 8865TIP3    H148010   5.173   6.312  13.232 -0.2314  1.3498 -0.8609
 8865TIP3    H248011   5.203   6.237  13.104 -0.9979  1.6330 -1.2153
 8866TIP3   OH248012   6.288   3.350  11.817 -0.7258  0.0340  0.7690
 8866TIP3    H148013   6.311   3.393  11.735 -1.3959  1.1606  1.1544
 8866TIP3    H248014   6.211   3.297  11.796 -0.9037  0.3316  0.6662
 8867TIP3   OH248015   3.236   4.299   3.672 -0.1449 -0.3100  0.4553
 8867TIP3    H148016   3.253   4.220   3.621 -0.4981  1.0895 -1.9959
 8867TIP3    H248017   3.323   4.330   3.697  0.0837 -0.6975  0.1636
 8868TIP3   OH248018   6.306   6.107  11.236  0.1643 -0.4812 -0.2376
 8868TIP3    H148019   6.238   6.062  11.287 -0.2642 -0.1900 -0.5460
 8868TIP3    H248020   6.308   6.060  11.152  2.2709 -2.2733  0.6989
 8869TIP3   OH248021   3.588   3.617   4.310  0.0153 -0.7353  1.3680
 8869TIP3    H148022   3.605   3.531   4.349  3.9758 -0.0737  1.5089
 8869TIP3    H248023   3.630   3.679   4.370  1.6066  0.7799 -1.1362
 8870TIP3   OH248024   3.331   1.956  15.404 -0.2529  0.0930 -0.3503
 8870TIP3    H148025   3.314   1.862  15.402 -1.5297  0.1699  2.2278
 8870TIP3    H248026   3.299   1.984  15.490  0.7703  2.7665 -0.7471
 8871TIP3   OH248027   3.739   2.434  16.345  0.3938  0.6477 -0.1328
 8871TIP3    H148028   3.708   2.403  16.259 -0.6493  0.0143  0.4523
 8871TIP3    H248029   3.711   2.366  16.406  1.5502  0.8565  0.6667
 8872TIP3   OH248030   1.169   4.191  11.553  0.2213 -0.1795 -0.2353
 8872TIP3    H148031   1.156   4.125  11.621  1.2204  0.6047  0.7626
 8872TIP3    H248032   1.253   4.231  11.574 -0.4599  1.5807 -0.6574
 8873TIP3   OH248033   6.151   6.021  13.880 -0.4490 -0.0288 -0.1083
 8873TIP3    H148034   6.244   6.002  13.870 -0.6060 -1.6237  1.2197
 8873TIP3    H248035   6.148   6.111  13.913  0.5876  0.0882 -0.3080
 8874TIP3   OH248036   2.490   2.882  16.374 -0.3750  0.1169  0.7113
 8874TIP3    H148037   2.432   2.942  16.328  0.1482 -0.4913 -0.8080
 8874TIP3    H248038   2.563   2.867  16.313  1.1356  0.4338  2.3307
 8875TIP3   OH248039   2.525   2.473  11.770 -0.3104 -0.2683 -0.2490
 8875TIP3    H148040   2.466   2.501  11.701 -0.2018  0.1390 -0.1836
 8875TIP3    H248041   2.607   2.452  11.725 -0.3498 -0.3473 -0.2835
 8876TIP3   OH248042   6.681   4.858   3.046 -0.5059  0.4433  0.1069
 8876TIP3    H148043   6.675   4.953   3.055  0.8755  0.5788 -0.2058
 8876TIP3    H248044   6.747   4.832   3.110 -1.3807 -0.4044  0.6863
 8877TIP3   OH248045   4.123   6.729   4.404 -0.6495  0.1691 -0.5030
 8877TIP3    H148046   4.141   6.683   4.486 -2.1117 -1.7967 -1.2179
 8877TIP3    H248047   4.039   6.772   4.419 -1.0287 -0.3774 -1.0224
 8878TIP3   OH248048   3.917   1.085   1.823  0.8316  0.8922 -0.2917
 8878TIP3    H148049   3.946   0.993   1.826  0.0944  0.5850 -1.7205
 8878TIP3    H248050   3.934   1.118   1.911  3.6723  0.1966 -0.4668
 8879TIP3   OH248051   3.217   3.756   2.288 -0.7401 -0.4821  0.0170
 8879TIP3    H148052   3.252   3.670   2.263  0.0375 -0.6371  1.5243
 8879TIP3    H248053   3.203   3.801   2.205  0.8050 -1.3131 -0.7390
 8880TIP3   OH248054   2.928   0.582   0.905  0.1470  0.4548 -0.4393
 8880TIP3    H148055   2.943   0.655   0.844 -0.7133 -0.2414 -1.5348
 8880TIP3    H248056   2.890   0.622   0.983  0.8958  1.3247 -0.5085
 8881TIP3   OH248057   2.631   2.404   0.619 -0.5473  0.4264 -0.5403
 8881TIP3    H148058   2.663   2.326   0.573 -1.2801 -0.3883  0.2774
 8881TIP3    H248059   2.627   2.472   0.552 -2.6484 -1.0005 -2.0143
 8882TIP3   OH248060   4.959   2.165   1.372  0.1040 -0.0578 -0.3686
 8882TIP3    H148061   5.033   2.110   1.347  0.5916 -0.5345  1.8886
 8882TIP3    H248062   4.992   2.255   1.362 -0.0042 -0.1796 -2.0748
 8883TIP3   OH248063   6.367   5.260   0.848 -0.0350 -0.3862  0.3051
 8883TIP3    H148064   6.374   5.169   0.875  0.7639 -0.1280  1.0039
 8883TIP3    H248065   6.410   5.263   0.762  1.8810 -0.2921  1.2089
 8884TIP3   OH248066   3.844   2.530  11.623  0.4315  0.2810 -0.1234
 8884TIP3    H148067   3.839   2.435  11.620 -0.1123  0.3241 -1.4124
 8884TIP3    H248068   3.857   2.551  11.715  0.6506 -1.0391  0.1624
 8885TIP3   OH248069   1.906   4.962   6.396 -0.0395  0.0568  0.3947
 8885TIP3    H148070   1.967   5.007   6.454  0.1709 -0.3703  0.5048
 8885TIP3    H248071   1.924   4.869   6.409 -1.8216 -0.1551  1.6724
 8886TIP3   OH248072   2.249   4.462   0.343 -0.5078  0.1453 -0.0482
 8886TIP3    H148073   2.161   4.424   0.338  0.4585 -2.1660 -4.0016
 8886TIP3    H248074   2.305   4.390   0.371  0.4218  0.9377  0.1692
 8887TIP3   OH248075   2.221   0.307  15.981  0.0930  0.1899  0.1049
 8887TIP3    H148076   2.297   0.362  15.961 -0.3814  0.0042 -2.6574
 8887TIP3    H248077   2.259   0.226  16.017  1.2106  0.3069 -0.7326
 8888TIP3   OH248078   0.338   1.736   0.479  0.5240 -0.4175  0.4919
 8888TIP3    H148079   0.408   1.700   0.423 -1.2703 -0.8421 -1.6152
 8888TIP3    H248080   0.378   1.813   0.520  1.6312  0.7552 -2.4649
 8889TIP3   OH248081   5.396   2.242  12.535  0.0560 -0.6400 -0.7824
 8889TIP3    H148082   5.453   2.279  12.467  1.4642  1.1766  1.2333
 8889TIP3    H248083   5.319   2.300  12.535  1.3033  1.1491  0.9278
 8890TIP3   OH248084   6.751   2.157  12.346  0.3901 -0.0715  0.7998
 8890TIP3    H148085   6.670   2.194  12.313  0.6164  0.4041  0.7741
 8890TIP3    H248086   6.724   2.103  12.421  0.1443  0.7731  1.3270
 8891TIP3   OH248087   5.382   2.059  13.181 -0.2686  0.5204  0.6901
 8891TIP3    H148088   5.332   2.115  13.240  2.4182  2.8156  0.9971
 8891TIP3    H248089   5.464   2.043  13.226 -0.2247 -2.3564 -0.1671
 8892TIP3   OH248090   1.369   0.170   2.321 -0.0480 -0.6624  0.3429
 8892TIP3    H148091   1.418   0.250   2.339 -0.8991 -0.3717  1.4793
 8892TIP3    H248092   1.418   0.102   2.368  0.0554 -0.6204  0.2970
 8893TIP3   OH248093   0.651   0.886   4.973  0.3691  0.0109 -0.1341
 8893TIP3    H148094   0.617   0.902   5.061  1.8453  1.1484  0.2682
 8893TIP3    H248095   0.689   0.969   4.946  2.4971 -1.0632 -0.6649
 8894TIP3   OH248096   2.271   4.637   2.441  0.1744  0.0756  0.0246
 8894TIP3    H148097   2.176   4.626   2.453  0.2617 -0.3729  0.3313
 8894TIP3    H248098   2.291   4.719   2.487 -0.0781  0.2160 -0.1146
 8895TIP3   OH248099   1.341   1.605  12.505  0.2167 -0.1296 -0.3442
 8895TIP3    H148100   1.283   1.680  12.513  2.4299  1.8015 -1.1349
 8895TIP3    H248101   1.366   1.603  12.413 -1.3481 -3.1817 -0.8186
 8896TIP3   OH248102   6.654   3.280  11.467 -0.5321 -0.4874 -0.1454
 8896TIP3    H148103   6.660   3.213  11.536  2.2228  0.0171  0.2297
 8896TIP3    H248104   6.666   3.231  11.386  0.2256 -0.6275  0.0398
 8897TIP3   OH248105   4.477   4.045  12.213 -0.2198 -0.1642  0.6377
 8897TIP3    H148106   4.508   3.987  12.143 -1.4494 -1.8562  1.4107
 8897TIP3    H248107   4.382   4.035  12.211 -0.4890  1.9695  0.7304
 8898TIP3   OH248108   0.731   4.393  13.013  0.3564  0.1764 -0.0784
 8898TIP3    H148109   0.738   4.442  12.931 -1.7688  0.1475 -0.3364
 8898TIP3    H248110   0.794   4.322  13.004  2.5935  2.0531 -0.2327
 8899TIP3   OH248111   6.206   1.742   0.339 -0.0740 -0.0229  0.5287
 8899TIP3    H148112   6.252   1.787   0.410  0.3320  0.9991 -0.3465
 8899TIP3    H248113   6.113   1.759   0.355  0.0691  1.1065  0.2530
 8900TIP3   OH248114   5.375   4.934  15.158  0.2543 -0.7427  0.0102
 8900TIP3    H148115   5.373   4.861  15.096  3.3191 -2.2001  1.3674
 8900TIP3    H248116   5.444   4.992  15.124 -0.7605  0.5013  0.0153
 8901TIP3   OH248117   3.530   2.217   1.757 -0.2639 -0.6624 -0.1490
 8901TIP3    H148118   3.471   2.290   1.739  1.5651  0.8937 -0.1979
 8901TIP3    H248119   3.529   2.208   1.852  0.5797  0.4451 -0.0066
 8902TIP3   OH248120   6.682   4.152   5.259  0.5487  0.0411  0.1516
 8902TIP3    H148121   6.649   4.148   5.170  0.6299  0.7002  0.0865
 8902TIP3    H248122   6.754   4.214   5.255  0.7188 -0.1210  0.6269
 8903TIP3   OH248123   0.257   6.147   4.409  0.0199  0.0226 -0.0866
 8903TIP3    H148124   0.188   6.186   4.355 -0.0400  0.5574  0.3582
 8903TIP3    H248125   0.209   6.101   4.479  0.0997 -0.4365 -0.3317
 8904TIP3   OH248126   6.071   2.251  16.552  0.5175  0.3145  0.5455
 8904TIP3    H148127   5.980   2.264  16.578  0.7341  2.2228  0.5463
 8904TIP3    H248128   6.121   2.260  16.633  0.9179  2.6660  0.1147
 8905TIP3   OH248129   2.236   4.647  13.022 -0.1267 -0.0399  0.5415
 8905TIP3    H148130   2.291   4.699  12.963  1.2221 -3.2359 -1.2490
 8905TIP3    H248131   2.298   4.597  13.075 -1.1216 -3.1584 -0.9835
 8906TIP3   OH248132   1.323   4.890   1.802 -0.4798  0.0558  0.2722
 8906TIP3    H148133   1.405   4.933   1.780 -1.4162  1.7380 -0.0774
 8906TIP3    H248134   1.256   4.956   1.785 -1.9866 -1.5345 -0.2426
 8907TIP3   OH248135   2.607   5.253  11.699  0.1323 -0.1254 -0.3438
 8907TIP3    H148136   2.657   5.173  11.686  0.6703 -0.4836  2.9285
 8907TIP3    H248137   2.662   5.307  11.756 -1.8396  0.8323  0.7723
 8908TIP3   OH248138   3.201   1.217   4.627  0.0815 -0.0190  0.1403
 8908TIP3    H148139   3.182   1.304   4.664  1.4649  0.2194  0.3392
 8908TIP3    H248140   3.295   1.218   4.610  0.1092 -1.4632  0.0823
 8909TIP3   OH248141   5.480   6.619  12.382 -0.3325 -0.0760 -0.0124
 8909TIP3    H148142   5.422   6.570  12.323 -1.1967  0.7387  0.1384
 8909TIP3    H248143   5.454   6.710  12.371 -0.4056  0.1160  1.4937
 8910TIP3   OH248144   4.152   0.055  14.983 -0.0004  1.0130  0.4421
 8910TIP3    H148145   4.149   0.119  14.912  1.0127 -0.2478 -0.8056
 8910TIP3    H248146   4.115  -0.025  14.944 -1.6248  0.9192  2.0742
 8911TIP3   OH248147   3.304   4.031   1.106  0.2573 -0.5129 -0.3352
 8911TIP3    H148148   3.267   3.991   1.027  2.7646 -2.1170 -0.8211
 8911TIP3    H248149   3.284   3.970   1.176  0.7967 -0.7125 -0.3513
 8912TIP3   OH248150   5.754   0.415  16.512  0.5957  0.0951 -0.0411
 8912TIP3    H148151   5.662   0.389  16.513  0.8222 -0.7490 -0.4649
 8912TIP3    H248152   5.801   0.338  16.545  1.3540 -0.3451 -2.0047
 8913TIP3   OH248153   2.896   4.250  12.541  0.4669 -0.3124 -0.0883
 8913TIP3    H148154   2.811   4.232  12.502  0.3448  1.6995 -0.8436
 8913TIP3    H248155   2.935   4.163  12.555 -0.6634 -1.1932 -2.0496
 8914TIP3   OH248156   1.852   4.982   2.976  0.1243 -0.0975 -0.6057
 8914TIP3    H148157   1.767   4.977   2.931  0.4954 -1.2264 -1.2294
 8914TIP3    H248158   1.845   4.917   3.046  0.0105  0.7499  0.1843
 8915TIP3   OH248159   3.728   4.214   3.799 -0.3730  0.4745  0.4018
 8915TIP3    H148160   3.715   4.123   3.822  1.2156 -0.3140 -1.5259
 8915TIP3    H248161   3.820   4.219   3.771 -0.6656  2.4504 -0.3780
 8916TIP3   OH248162   4.988   1.695  14.840  0.0609  0.1236  0.0660
 8916TIP3    H148163   5.002   1.631  14.769  0.8145 -0.2106  0.5088
 8916TIP3    H248164   5.068   1.747  14.841 -1.1233  2.1184 -1.3006
 8917TIP3   OH248165   5.611   1.206   0.809  0.0761 -0.3993 -0.4814
 8917TIP3    H148166   5.676   1.270   0.840 -1.7543  1.2277  0.2373
 8917TIP3    H248167   5.554   1.256   0.751 -1.4359 -1.3586  0.1077
 8918TIP3   OH248168   5.292   4.426   5.448  0.2069 -0.1260 -0.3796
 8918TIP3    H148169   5.350   4.367   5.496  0.8296 -1.2109 -2.3830
 8918TIP3    H248170   5.229   4.369   5.405 -0.1764  0.7809 -1.0711
 8919TIP3   OH248171   5.274   5.262  13.184  0.3157  0.0422 -0.3541
 8919TIP3    H148172   5.215   5.258  13.109  0.3236  1.5219 -0.4800
 8919TIP3    H248173   5.359   5.285  13.147  1.4039 -3.4817 -0.3420
 8920TIP3   OH248174   5.555   3.932  15.083  0.3095  0.4377 -0.4303
 8920TIP3    H148175   5.563   3.922  15.178 -0.2611  0.0020 -0.4204
 8920TIP3    H248176   5.554   4.027  15.069 -0.4887  0.5199  0.0883
 8921TIP3   OH248177   6.009   5.881   3.574  0.3417  0.2066 -0.0730
 8921TIP3    H148178   5.971   5.809   3.626 -1.2291  2.3329  1.9048
 8921TIP3    H248179   6.103   5.875   3.591  0.3087 -1.5920 -0.2751
 8922TIP3   OH248180   5.495   0.474  15.873 -0.0973  0.5119  0.7130
 8922TIP3    H148181   5.539   0.416  15.934 -0.9287  0.3377  1.1702
 8922TIP3    H248182   5.518   0.441  15.787 -2.2759 -1.9102  0.9344
 8923TIP3   OH248183   1.786   2.868  15.656  0.0262  0.2327 -0.5949
 8923TIP3    H148184   1.778   2.818  15.737 -0.4498 -1.0248 -1.3925
 8923TIP3    H248185   1.843   2.941  15.679 -2.4082  1.6224  1.6522
 8924TIP3   OH248186   4.871   2.652  12.871 -0.3037  0.4775 -0.0323
 8924TIP3    H148187   4.937   2.690  12.813  0.8740  0.0714  0.9939
 8924TIP3    H248188   4.894   2.559  12.875 -0.2832  0.5203  1.1640
 8925TIP3   OH248189   5.630   4.312  13.415  0.0160  0.5323 -0.0963
 8925TIP3    H148190   5.549   4.344  13.456 -0.4847 -0.0346 -0.6167
 8925TIP3    H248191   5.610   4.315  13.321  0.6432  0.4798 -0.2308
 8926TIP3   OH248192   1.040   1.559   5.599  0.1944  0.0026 -0.2434
 8926TIP3    H148193   0.989   1.637   5.621 -0.2593 -0.1370 -0.7723
 8926TIP3    H248194   0.975   1.497   5.563  0.4864 -0.7560  0.4983
 8927TIP3   OH248195   4.451   5.127  11.594  0.3051  0.3602 -0.0635
 8927TIP3    H148196   4.491   5.150  11.510  1.6416  1.1820  0.7753
 8927TIP3    H248197   4.486   5.040  11.614  1.8144  1.1371  0.7360
 8928TIP3   OH248198   1.636   3.483   2.726 -0.2485  0.0986  0.0178
 8928TIP3    H148199   1.719   3.452   2.691 -0.6467  0.8069 -1.6788
 8928TIP3    H248200   1.653   3.573   2.754 -1.0068  1.2658 -2.9231
 8929TIP3   OH248201   4.362   0.667  13.406 -0.3779  0.4234  0.1997
 8929TIP3    H148202   4.406   0.750  13.390 -1.6148  1.0436 -0.1337
 8929TIP3    H248203   4.283   0.691  13.455 -1.7195 -0.3161 -1.5168
 8930TIP3   OH248204   5.879   5.595  15.965 -0.2454  0.6834  0.4900
 8930TIP3    H148205   5.830   5.584  16.046  0.5417 -0.5033  0.8237
 8930TIP3    H248206   5.917   5.683  15.972  0.3991  0.3247  1.7364
 8931TIP3   OH248207   4.421   2.226   5.249 -0.4752 -0.4022 -0.0183
 8931TIP3    H148208   4.499   2.173   5.266 -1.1728 -1.5291 -0.2079
 8931TIP3    H248209   4.379   2.234   5.335 -0.3434 -0.1044  0.0195
 8932TIP3   OH248210   3.054   0.215  11.081 -0.3451 -0.0185 -0.0411
 8932TIP3    H148211   2.969   0.173  11.084  0.1742 -1.0544  0.5913
 8932TIP3    H248212   3.056   0.272  11.158 -0.0367 -0.8618  0.5826
 8933TIP3   OH248213   4.947   3.331  13.060  0.1667 -0.2213  0.0049
 8933TIP3    H148214   4.918   3.393  13.127 -1.2006 -1.0230  0.2003
 8933TIP3    H248215   4.926   3.374  12.977  0.6433  0.2166  0.1082
 8934TIP3   OH248216   4.864   1.640  11.504  0.1060  0.0888  1.1545
 8934TIP3    H148217   4.772   1.643  11.532  0.8249  0.2227  3.8212
 8934TIP3    H248218   4.879   1.725  11.462 -1.2112 -0.3299 -0.2452
 8935TIP3   OH248219   2.134   2.439   1.044 -0.2499  0.1742 -0.2347
 8935TIP3    H148220   2.168   2.385   0.972 -0.8134 -0.2710 -0.1738
 8935TIP3    H248221   2.101   2.518   1.001  1.7622  1.0910 -0.2007
 8936TIP3   OH248222   1.064   3.368  14.263  0.1433 -0.1359 -0.0505
 8936TIP3    H148223   0.998   3.385  14.330 -2.1623  0.7099 -2.3517
 8936TIP3    H248224   1.101   3.455  14.243  0.1578 -0.2426 -0.4976
 8937TIP3   OH248225   2.671   4.259  12.821 -0.0661  0.6746 -0.4210
 8937TIP3    H148226   2.725   4.253  12.742 -1.2388  1.2393 -1.2902
 8937TIP3    H248227   2.607   4.188  12.812  0.4799  0.0206  0.5942
 8938TIP3   OH248228   1.568   2.749  16.429 -0.5940  0.2146 -0.4302
 8938TIP3    H148229   1.499   2.689  16.398  0.2295 -0.4513 -1.0233
 8938TIP3    H248230   1.649   2.711  16.396  0.1470  0.5626  0.9105
 8939TIP3   OH248231   0.172   2.348  15.035 -0.1680  0.5217 -0.0218
 8939TIP3    H148232   0.116   2.298  14.977 -2.6027  1.3822  1.4567
 8939TIP3    H248233   0.193   2.428  14.987 -3.3942  1.9266  0.6489
 8940TIP3   OH248234   2.672   6.542   5.276  0.4212 -0.1552 -0.1835
 8940TIP3    H148235   2.651   6.519   5.366 -0.4055 -1.7913 -0.7579
 8940TIP3    H248236   2.768   6.540   5.273  0.5070  1.2020  0.9486
 8941TIP3   OH248237   4.333   2.990   1.891  0.5093  0.0916 -0.1633
 8941TIP3    H148238   4.307   2.981   1.800 -2.8808 -0.4512  0.7191
 8941TIP3    H248239   4.289   3.069   1.922 -0.6548 -1.1681  1.6152
 8942TIP3   OH248240   3.608   5.786   1.580  0.4542  0.3914  0.5201
 8942TIP3    H148241   3.681   5.847   1.577 -0.0200  0.9421 -0.4009
 8942TIP3    H248242   3.551   5.819   1.649  0.7015  0.3894  0.7270
 8943TIP3   OH248243   0.397   0.553  14.567 -0.4618 -0.1678 -0.4207
 8943TIP3    H148244   0.487   0.548  14.537 -0.5079  2.9846 -1.4296
 8943TIP3    H248245   0.344   0.529  14.490 -0.4800  1.5779 -0.9917
 8944TIP3   OH248246   1.336   5.674   2.301  0.1836 -0.5829 -1.0220
 8944TIP3    H148247   1.292   5.712   2.377  0.7530 -0.8702 -0.5425
 8944TIP3    H248248   1.277   5.605   2.271  0.5499 -1.3650 -0.0234
 8945TIP3   OH248249   1.728   4.004   2.137 -0.3299  0.7592  0.2925
 8945TIP3    H148250   1.724   3.909   2.124 -0.0468  0.6219  1.1511
 8945TIP3    H248251   1.808   4.031   2.092  0.0480  0.4572  0.7636
 8946TIP3   OH248252   2.744   2.824   3.650 -0.4778  0.4969  0.1853
 8946TIP3    H148253   2.655   2.857   3.636  0.0106  1.6186 -0.4852
 8946TIP3    H248254   2.778   2.809   3.562 -0.1948 -0.4940  0.4531
 8947TIP3   OH248255   0.897   2.344   4.668  0.2260  0.1951 -0.4941
 8947TIP3    H148256   0.835   2.278   4.637  0.4711 -0.7481  0.9587
 8947TIP3    H248257   0.887   2.344   4.763  1.7543  0.7358 -0.3090
 8948TIP3   OH248258   3.117   2.364  16.203 -0.5289  0.2022  0.4119
 8948TIP3    H148259   3.167   2.320  16.272 -0.6768 -2.2798 -0.9518
 8948TIP3    H248260   3.074   2.293  16.155 -0.7585  1.8454 -2.0063
 8949TIP3   OH248261   4.460   0.287  13.188  0.5500  0.1216 -0.1846
 8949TIP3    H148262   4.554   0.278  13.207  0.7138 -1.5802 -1.4943
 8949TIP3    H248263   4.417   0.255  13.267  1.0902  0.2642  0.1746
 8950TIP3   OH248264   3.726   6.396   1.567  0.3272  0.5605 -0.2156
 8950TIP3    H148265   3.635   6.368   1.558  0.1449  1.4404 -1.4553
 8950TIP3    H248266   3.721   6.483   1.606  0.4542  1.5418 -2.2463
 8951TIP3   OH248267   2.228   0.896  14.466  0.1406  0.5636  0.0283
 8951TIP3    H148268   2.194   0.878  14.379  1.1518  1.5458 -0.5987
 8951TIP3    H248269   2.317   0.930  14.450  1.0882 -1.0460  1.5219
 8952TIP3   OH248270   0.062   1.730   0.131  0.1058 -0.1198  0.4311
 8952TIP3    H148271   0.080   1.810   0.081  1.1164 -0.4131  0.3012
 8952TIP3    H248272   0.062   1.759   0.222  1.4829 -0.1266  0.4530
 8953TIP3   OH248273   6.284   0.896  12.782  0.2815 -0.2099 -0.1444
 8953TIP3    H148274   6.228   0.820  12.768 -0.7400  0.2520  1.2398
 8953TIP3    H248275   6.229   0.971  12.758 -0.8468  0.4765  3.9539
 8954TIP3   OH248276   0.491   6.601   4.807  0.3943  0.6145  0.0518
 8954TIP3    H148277   0.517   6.684   4.847 -0.0714  0.0649  1.5652
 8954TIP3    H248278   0.559   6.539   4.834  0.6202  0.4472 -0.8814
 8955TIP3   OH248279   3.036   4.145  13.561 -0.5094 -0.2483  0.2011
 8955TIP3    H148280   3.086   4.222  13.587 -0.0097 -1.4014  3.0417
 8955TIP3    H248281   3.101   4.075  13.553 -1.3446 -1.2376  1.6178
 8956TIP3   OH248282   0.428   3.092   4.737  0.0466 -0.1534  0.1736
 8956TIP3    H148283   0.505   3.052   4.697  0.8208 -1.0989  2.4405
 8956TIP3    H248284   0.426   3.180   4.701  0.3899 -1.0531 -2.2343
 8957TIP3   OH248285   2.915   4.590  14.369 -0.6113  0.1990 -0.1678
 8957TIP3    H148286   2.959   4.512  14.337  4.1946  2.5929 -0.4156
 8957TIP3    H248287   2.923   4.653  14.297 -1.9849  1.6568  0.8898
 8958TIP3   OH248288   6.654   1.899   4.523  0.0230  1.3659 -0.8630
 8958TIP3    H148289   6.642   1.871   4.614  0.4886 -0.3333 -1.2865
 8958TIP3    H248290   6.705   1.979   4.529  0.7113  0.8583  0.3560
 8959TIP3   OH248291   0.560   3.452   5.218  0.0379 -0.1311 -0.4239
 8959TIP3    H148292   0.480   3.440   5.269 -0.3150  1.4629 -0.5464
 8959TIP3    H248293   0.577   3.366   5.180 -0.2746 -1.0948  1.4962
 8960TIP3   OH248294   1.776   0.470   5.333  0.1731 -0.4943  0.1464
 8960TIP3    H148295   1.864   0.501   5.312  0.2609 -1.2032 -0.5587
 8960TIP3    H248296   1.720   0.510   5.266  0.1945 -1.3007 -0.3673
 8961TIP3   OH248297   1.160   3.397   3.516 -0.3579  0.9204  0.1018
 8961TIP3    H148298   1.198   3.453   3.584  0.5780 -1.6661  1.8563
 8961TIP3    H248299   1.231   3.337   3.492 -2.1077 -1.4687  0.5406
 8962TIP3   OH248300   4.342   3.299  16.638 -0.2839 -0.2424  0.1515
 8962TIP3    H148301   4.312   3.386  16.665 -2.7770 -1.5517  1.9396
 8962TIP3    H248302   4.288   3.277  16.562  1.0775  0.1249 -0.9703
 8963TIP3   OH248303   6.222   4.677  12.179 -0.1625 -0.7174 -0.0260
 8963TIP3    H148304   6.206   4.771  12.178  1.7295 -0.3185  1.1995
 8963TIP3    H248305   6.317   4.669  12.189 -0.1116 -2.7771 -1.3636
 8964TIP3   OH248306   3.907   3.511  13.068  0.2799 -0.1352 -0.0000
 8964TIP3    H148307   3.838   3.447  13.083  0.8305 -0.6578  0.3515
 8964TIP3    H248308   3.865   3.582  13.019 -0.2584 -0.9233 -0.6960
 8965TIP3   OH248309   1.810   1.194   4.062  0.0155  0.1284  0.7885
 8965TIP3    H148310   1.740   1.253   4.089  2.1658  1.6416  3.5810
 8965TIP3    H248311   1.829   1.143   4.141  1.4072 -0.9431 -0.1897
 8966TIP3   OH248312   3.660   2.494   3.321 -0.2981  0.2615  0.3227
 8966TIP3    H148313   3.612   2.577   3.315  0.4894  0.7297  0.3847
 8966TIP3    H248314   3.749   2.520   3.345 -0.0998 -0.6222  0.5567
 8967TIP3   OH248315   2.053   5.259  15.916  0.0118  0.2615 -0.0821
 8967TIP3    H148316   2.091   5.292  15.997  0.1344  0.6975 -0.3129
 8967TIP3    H248317   1.986   5.197  15.944  1.0202 -0.6730  0.3302
 8968TIP3   OH248318   6.147   5.003  13.117  0.1794  0.0251 -0.0873
 8968TIP3    H148319   6.107   4.917  13.110  1.3258 -0.5692  0.3041
 8968TIP3    H248320   6.205   5.009  13.041 -0.0163  0.5313 -0.2044
 8969TIP3   OH248321   0.676   0.542  11.656  0.3876  0.2106 -0.5651
 8969TIP3    H148322   0.627   0.579  11.583  1.0245  1.7080 -0.2960
 8969TIP3    H248323   0.669   0.608  11.725  1.4714 -0.2387  0.0100
 8970TIP3   OH248324   0.757   5.341   4.792  0.3722  0.0926  0.6308
 8970TIP3    H148325   0.676   5.391   4.803 -0.4857 -1.3656  1.1734
 8970TIP3    H248326   0.735   5.272   4.729  1.5670  0.4222 -0.1947
 8971TIP3   OH248327   1.921   4.999  14.322  0.1174 -0.2437 -0.0841
 8971TIP3    H148328   1.942   5.066  14.387  0.8087 -0.3180 -0.2283
 8971TIP3    H248329   1.968   5.027  14.243  3.1588 -2.5782  0.7190
 8972TIP3   OH248330   4.515   4.690  13.310 -0.8850 -0.0154  0.6271
 8972TIP3    H148331   4.453   4.645  13.253 -0.1301  1.4608 -1.4744
 8972TIP3    H248332   4.464   4.714  13.387 -2.1480 -1.3703  0.2542
 8973TIP3   OH248333   0.490   3.501   4.327  0.6016 -0.5556  0.2499
 8973TIP3    H148334   0.514   3.551   4.405 -0.9273 -0.9019  0.9975
 8973TIP3    H248335   0.570   3.495   4.276  1.5466  0.0309  1.6075
 8974TIP3   OH248336   3.535   5.277  11.161 -0.0354  0.1243 -0.0232
 8974TIP3    H148337   3.477   5.246  11.092 -0.1329  0.1832  0.0315
 8974TIP3    H248338   3.572   5.358  11.126 -3.7398  2.9179  1.7756
 8975TIP3   OH248339   0.563   5.402  11.814 -0.0763 -0.3358  0.1522
 8975TIP3    H148340   0.577   5.313  11.845 -1.9576 -0.0456  2.0798
 8975TIP3    H248341   0.622   5.455  11.867 -1.5485 -0.1033  1.6369
 8976TIP3   OH248342   1.330   2.521   6.317  0.4842  0.8843  0.7101
 8976TIP3    H148343   1.416   2.505   6.354  1.0304  2.1092  0.0343
 8976TIP3    H248344   1.304   2.437   6.279  1.4587  0.5476  0.7711
 8977TIP3   OH248345   6.462   1.390  13.484  0.1813  0.1308 -0.3755
 8977TIP3    H148346   6.473   1.427  13.572 -0.3600  0.8136 -0.5978
 8977TIP3    H248347   6.519   1.443  13.428  0.6125 -0.3754 -0.4276
 8978TIP3   OH248348   0.110   4.815   6.450  0.4529 -0.2967  0.8120
 8978TIP3    H148349   0.111   4.874   6.525 -1.3689  0.7507  0.0758
 8978TIP3    H248350   0.188   4.761   6.461  0.1130 -0.3573  3.5871
 8979TIP3   OH248351   1.243   1.253   6.237 -0.0015  0.5930 -0.3799
 8979TIP3    H148352   1.296   1.329   6.263  1.2642 -0.3290 -0.1783
 8979TIP3    H248353   1.162   1.262   6.287  0.1983  1.7163 -0.2319
 8980TIP3   OH248354   5.127   4.359  10.323  0.4692  0.1493 -0.3168
 8980TIP3    H148355   5.106   4.444  10.361  0.3295 -0.5281  1.2055
 8980TIP3    H248356   5.213   4.338  10.358  1.0019  0.1434 -1.5798
 8981TIP3   OH248357   5.410   5.546  15.267  0.1838 -0.7177  0.0500
 8981TIP3    H148358   5.344   5.479  15.282 -0.2056 -0.3390  0.0537
 8981TIP3    H248359   5.454   5.519  15.186 -0.4270 -0.6182 -0.3186
 8982TIP3   OH248360   3.752   3.327  17.101  0.1714  0.0152  0.3484
 8982TIP3    H148361   3.779   3.417  17.080  0.3071 -0.1661 -0.2656
 8982TIP3    H248362   3.707   3.296  17.023  0.7791 -0.7099  0.2750
 8983TIP3   OH248363   1.041   2.785  16.777  0.2000 -0.0223  0.4084
 8983TIP3    H148364   1.097   2.799  16.700  0.5933  0.0775  0.7100
 8983TIP3    H248365   1.011   2.695  16.768 -1.0875  0.4748 -0.7250
 8984TIP3   OH248366   3.961   2.882   5.404  0.4741  0.1036  0.4691
 8984TIP3    H148367   4.037   2.915   5.453  0.5923  0.5742 -0.0210
 8984TIP3    H248368   3.924   2.814   5.460  0.6800  0.5524  1.1559
 8985TIP3   OH248369   3.774   3.506   5.144 -0.2114 -0.8874  0.0740
 8985TIP3    H148370   3.749   3.466   5.228  0.9838 -0.4004  0.6990
 8985TIP3    H248371   3.764   3.436   5.080  1.5896 -2.1963  1.0988
 8986TIP3   OH248372   6.683   6.564  15.247 -0.6982 -0.2470 -0.8382
 8986TIP3    H148373   6.717   6.497  15.188  1.9441  1.0033 -0.8544
 8986TIP3    H248374   6.595   6.583  15.213  0.0661 -0.7939 -3.3138
 8987TIP3   OH248375   2.711   2.504  13.305 -0.5829  0.0475  0.2136
 8987TIP3    H148376   2.670   2.424  13.338 -1.2710  0.1771 -0.3004
 8987TIP3    H248377   2.646   2.573  13.321  0.3479  0.6739  1.4348
 8988TIP3   OH248378   5.506   4.418  11.492 -0.0093  0.6050  0.2811
 8988TIP3    H148379   5.419   4.421  11.530 -0.4577  2.5354 -0.7767
 8988TIP3    H248380   5.555   4.357  11.547 -1.2139  1.6435  2.6014
 8989TIP3   OH248381   0.834   2.112  14.763  0.3877  0.0698 -0.5605
 8989TIP3    H148382   0.799   2.087  14.677 -0.6602  1.0177 -0.4439
 8989TIP3    H248383   0.927   2.090  14.759 -0.0324 -1.7302 -1.2209
 8990TIP3   OH248384   1.615   2.451  12.523 -0.2498  0.2734 -0.4899
 8990TIP3    H148385   1.534   2.461  12.573 -0.0096 -0.1662 -0.0090
 8990TIP3    H248386   1.631   2.357  12.520  2.0051  0.4052  2.3523
 8991TIP3   OH248387   4.367   3.595   4.921  0.0082  0.3545  0.3067
 8991TIP3    H148388   4.388   3.502   4.927  1.8729  0.7870  1.3362
 8991TIP3    H248389   4.272   3.598   4.911 -0.0339 -1.6605 -0.2655
 8992TIP3   OH248390   3.316   0.645  11.845  0.4390 -0.8066  0.4869
 8992TIP3    H148391   3.353   0.601  11.769  0.4841 -1.0654  0.6550
 8992TIP3    H248392   3.249   0.704  11.810  0.1368 -1.2656  0.2864
 8993TIP3   OH248393   1.907   4.735  14.815  0.1556 -0.1215 -0.5936
 8993TIP3    H148394   1.966   4.725  14.890  1.4605 -0.4939 -1.6334
 8993TIP3    H248395   1.935   4.816  14.772 -0.2369 -0.1877 -0.9865
 8994TIP3   OH248396   3.435   4.073  13.595 -0.0697  0.9169 -0.7568
 8994TIP3    H148397   3.473   3.994  13.634 -0.1931  0.9716 -0.5225
 8994TIP3    H248398   3.470   4.145  13.647 -0.9643  0.9286 -0.1360
 8995TIP3   OH248399   1.787   5.304  14.616 -0.1286 -0.4362 -0.0481
 8995TIP3    H148400   1.751   5.219  14.642  1.2845 -1.4146 -1.1010
 8995TIP3    H248401   1.735   5.329  14.539 -0.0114 -0.7404 -0.2257
 8996TIP3   OH248402   1.254   3.107   0.178  0.4431  0.1650 -0.3970
 8996TIP3    H148403   1.161   3.106   0.201  0.1326 -0.5111 -1.6317
 8996TIP3    H248404   1.284   3.019   0.197  0.4873 -0.0291 -1.3282
 8997TIP3   OH248405   0.870   0.720   5.139 -0.0257  0.3717  0.6665
 8997TIP3    H148406   0.783   0.728   5.178  0.1278  0.7678  0.9309
 8997TIP3    H248407   0.913   0.804   5.156 -0.2585  0.8986 -1.1399
 8998TIP3   OH248408   0.691   6.602  15.361 -0.1201  0.1921 -0.0485
 8998TIP3    H148409   0.766   6.662  15.362 -0.2530  0.3542  0.3596
 8998TIP3    H248410   0.712   6.538  15.293  1.2220 -0.8173  1.2548
 8999TIP3   OH248411   4.431   4.877  16.201  0.4728 -0.5012  0.0215
 8999TIP3    H148412   4.406   4.915  16.117  0.6933 -1.2453 -0.3905
 8999TIP3    H248413   4.363   4.905  16.262 -0.0933 -0.5787 -0.5699
 9000TIP3   OH248414   1.073   6.174  14.897 -0.0389  0.6687  0.1125
 9000TIP3    H148415   1.060   6.079  14.893 -0.1734  0.7208 -1.5735
 9000TIP3    H248416   1.115   6.189  14.981  1.3278 -1.0596 -0.2026
 9001TIP3   OH248417   4.103   0.383  11.919 -0.1343 -0.0155 -0.2355
 9001TIP3    H148418   4.071   0.472  11.936  1.2111  0.5385 -0.5212
 9001TIP3    H248419   4.061   0.330  11.986 -2.0425  0.5787 -0.8958
 9002TIP3   OH248420   5.038   0.391   0.965 -0.0579  0.3618 -0.4335
 9002TIP3    H148421   5.124   0.360   0.936  0.1757  1.1474 -0.6104
 9002TIP3    H248422   4.977   0.356   0.900  0.1565 -0.0117 -0.4338
 9003TIP3   OH248423   4.531   5.694  13.156  0.2371 -0.5304  0.5529
 9003TIP3    H148424   4.578   5.777  13.165 -2.0298  0.7428  1.5990
 9003TIP3    H248425   4.597   5.627  13.174  2.5595  0.8802 -1.9267
 9004TIP3   OH248426   0.756   6.530  11.824  0.1237  0.0019 -0.9048
 9004TIP3    H148427   0.791   6.494  11.906  2.0469  1.9089 -0.8357
 9004TIP3    H248428   0.743   6.453  11.768  0.9949 -1.1119  0.3689
 9005TIP3   OH248429   5.777   1.972   6.540 -0.3111 -0.0964  0.1783
 9005TIP3    H148430   5.708   1.938   6.597  2.2256 -0.9053  3.0328
 9005TIP3    H248431   5.811   1.894   6.496 -0.2433  0.0741 -0.0728
 9006TIP3   OH248432   0.540   0.919  16.821 -0.4203 -0.5027  0.5011
 9006TIP3    H148433   0.487   0.976  16.765  0.4457 -0.1204  0.0447
 9006TIP3    H248434   0.576   0.853  16.761 -1.0648 -1.2747  0.9546
 9007TIP3   OH248435   2.798   1.666  16.539 -0.1818 -0.3448  0.1579
 9007TIP3    H148436   2.714   1.653  16.496  0.2784  0.6226 -1.0696
 9007TIP3    H248437   2.793   1.611  16.618 -0.7492 -2.7951 -1.4765
 9008TIP3   OH248438   2.646   4.571   3.238  0.0464 -0.6093  0.2364
 9008TIP3    H148439   2.679   4.611   3.318 -1.0337 -0.6901  0.7371
 9008TIP3    H248440   2.566   4.619   3.218 -0.5364 -1.6077  0.0870
 9009TIP3   OH248441   4.199   5.370  11.380  0.4801 -0.6051 -0.2125
 9009TIP3    H148442   4.118   5.408  11.346  0.5283 -0.0267  0.3061
 9009TIP3    H248443   4.176   5.338  11.467  1.4842  2.2492  1.2189
 9010TIP3   OH248444   0.056   5.784  11.111  0.7701  0.4447 -0.1792
 9010TIP3    H148445   0.127   5.803  11.049  3.1741 -1.1560  1.8497
 9010TIP3    H248446   0.094   5.801  11.197 -1.3901 -0.3487  1.0155
 9011TIP3   OH248447   2.535   3.094   5.937  0.2676 -0.3142  0.2998
 9011TIP3    H148448   2.562   3.064   6.024 -0.2955 -0.4784  0.4172
 9011TIP3    H248449   2.605   3.063   5.879  0.0458 -1.2759  0.5188
 9012TIP3   OH248450   0.140   4.288  11.191 -0.2391  0.5358 -0.5359
 9012TIP3    H148451   0.185   4.308  11.109 -1.5693  0.9085 -1.2031
 9012TIP3    H248452   0.191   4.334  11.258  1.2995 -0.3676 -1.0231
 9013TIP3   OH248453   5.072   4.744  12.039 -0.4248 -0.1143  0.3689
 9013TIP3    H148454   5.066   4.835  12.070  1.4447 -0.1731  1.0386
 9013TIP3    H248455   5.012   4.696  12.096  0.9669  0.2227  2.2054
 9014TIP3   OH248456   3.616   1.227  12.981 -0.0077 -0.0227 -0.1590
 9014TIP3    H148457   3.597   1.192  13.068 -1.3630  1.8881  0.3763
 9014TIP3    H248458   3.696   1.279  12.993 -0.0301  0.0029 -0.1202
 9015TIP3   OH248459   4.165   3.961   0.890 -0.4101 -0.4441 -0.2898
 9015TIP3    H148460   4.183   3.867   0.892  1.6622 -0.0918 -0.0179
 9015TIP3    H248461   4.242   3.998   0.846 -0.5652  1.2464  0.8185
 9016TIP3   OH248462   5.811   6.369   4.802  0.4508  0.4135  0.2134
 9016TIP3    H148463   5.791   6.426   4.876  1.2640  2.0903 -0.8057
 9016TIP3    H248464   5.903   6.385   4.783  1.3604 -2.8445  1.1774
 9017TIP3   OH248465   1.738   5.228  14.148 -0.6246  0.5955 -0.6212
 9017TIP3    H148466   1.644   5.211  14.141 -0.5902 -1.0394  1.7994
 9017TIP3    H248467   1.756   5.232  14.242  1.8020  0.5223 -0.9983
 9018TIP3   OH248468   1.261   2.500   1.966 -0.1828 -0.1918 -0.0168
 9018TIP3    H148469   1.305   2.555   1.902 -0.5983  1.1626  0.8270
 9018TIP3    H248470   1.168   2.516   1.953 -0.2691  0.4456  1.1727
 9019TIP3   OH248471   4.908   2.536   3.668  0.8988 -0.3684 -0.1339
 9019TIP3    H148472   4.860   2.458   3.697  0.9487 -0.3721 -0.0601
 9019TIP3    H248473   4.885   2.546   3.576 -1.1420  1.0071  0.4560
 9020TIP3   OH248474   2.139   2.705  13.372  0.5186  0.0294  0.2270
 9020TIP3    H148475   2.117   2.733  13.284 -2.1541 -0.8912  0.5251
 9020TIP3    H248476   2.192   2.777  13.407 -0.3611  1.5074 -1.3178
 9021TIP3   OH248477   3.406   4.699   1.245 -0.4351  0.8818  0.2588
 9021TIP3    H148478   3.360   4.668   1.323 -2.0922  3.5816  0.4710
 9021TIP3    H248479   3.498   4.703   1.272 -0.3524 -1.9393  0.7318
 9022TIP3   OH248480   1.900   6.036  11.414 -0.0746 -0.3292  0.5929
 9022TIP3    H148481   1.948   5.953  11.419  1.9623  0.7519  0.0854
 9022TIP3    H248482   1.889   6.051  11.320  0.0731  0.2361  0.6621
 9023TIP3   OH248483   5.927   4.455   5.289  0.2751 -0.1400 -0.0604
 9023TIP3    H148484   5.849   4.470   5.342 -0.6144  1.4314 -1.6869
 9023TIP3    H248485   5.907   4.375   5.239  0.4937 -0.7618  0.8208
 9024TIP3   OH248486   0.782   4.670  15.473 -0.1242  0.2432 -0.1773
 9024TIP3    H148487   0.820   4.584  15.492 -1.1586 -0.0017  0.9524
 9024TIP3    H248488   0.857   4.728  15.463  0.6457 -0.9821 -2.1123
 9025TIP3   OH248489   1.214   5.724  14.111  0.2460  0.8519 -0.7680
 9025TIP3    H148490   1.166   5.724  14.029 -1.9744  1.4732  0.4614
 9025TIP3    H248491   1.195   5.639  14.151 -1.4961  1.8161  0.5867
 9026TIP3   OH248492   3.371   5.566  11.776 -0.2148 -0.0059  0.0755
 9026TIP3    H148493   3.431   5.636  11.799 -0.9601  0.8783 -0.5979
 9026TIP3    H248494   3.427   5.494  11.748  0.5272  0.6992 -0.2724
 9027TIP3   OH248495   5.064   2.150   4.736  0.5533  0.3780  0.3724
 9027TIP3    H148496   5.091   2.140   4.645  0.3883 -1.2456  0.4765
 9027TIP3    H248497   5.101   2.234   4.763  0.6803  0.8408 -1.1545
 9028TIP3   OH248498   0.132   0.022  11.946  0.5497 -0.4055  0.2194
 9028TIP3    H148499   0.220  -0.014  11.933  0.5472 -0.0739 -0.8829
 9028TIP3    H248500   0.098  -0.023  12.023  1.2515 -1.3880 -0.0266
 9029TIP3   OH248501   4.947   5.435   1.865 -0.3151 -0.1880  0.2693
 9029TIP3    H148502   4.868   5.381   1.860  0.7800 -2.0362  1.4443
 9029TIP3    H248503   4.988   5.409   1.948  0.7158  1.9071  0.4816
 9030TIP3   OH248504   4.034   3.882   4.708  0.2601 -0.4170 -0.4585
 9030TIP3    H148505   4.075   3.963   4.678  2.0717 -1.3931 -0.7391
 9030TIP3    H248506   4.091   3.812   4.675 -1.5765 -1.8476 -0.7244
 9031TIP3   OH248507   2.189   4.471   2.038 -0.3670  0.0205 -0.3406
 9031TIP3    H148508   2.275   4.459   1.996 -0.2354 -1.2442  0.2632
 9031TIP3    H248509   2.181   4.566   2.049 -0.2869  0.4095 -2.9609
 9032TIP3   OH248510   1.907   3.534   3.916 -0.3527 -0.6268  0.6233
 9032TIP3    H148511   1.972   3.590   3.958 -1.2470 -0.0814  1.3090
 9032TIP3    H248512   1.923   3.447   3.952  1.4128 -0.9819 -0.8690
 9033TIP3   OH248513   1.421   2.681  16.726 -0.3724  0.1238  0.8636
 9033TIP3    H148514   1.496   2.652  16.675 -0.1781  0.6578  0.8440
 9033TIP3    H248515   1.349   2.625  16.697 -0.3585  0.6841 -0.2975
 9034TIP3   OH248516   0.677   0.433  15.471  0.1874  0.0659  0.1671
 9034TIP3    H148517   0.728   0.360  15.506  1.1249 -0.1720 -1.5814
 9034TIP3    H248518   0.733   0.472  15.405 -0.9542  1.3729 -0.0821
 9035TIP3   OH248519   3.496   3.756   4.953 -0.3126 -0.0041  0.1322
 9035TIP3    H148520   3.563   3.708   4.905  1.6628  3.3290 -0.7253
 9035TIP3    H248521   3.486   3.707   5.035  2.9844 -0.8175  0.1834
 9036TIP3   OH248522   5.497   1.698  16.066 -0.0520  0.4390  0.0810
 9036TIP3    H148523   5.424   1.644  16.096  0.1777  0.3203  0.4288
 9036TIP3    H248524   5.467   1.788  16.077 -0.4690  0.3845 -0.5809
 9037TIP3   OH248525   3.962   5.376  13.597  0.1484 -0.4593  0.3992
 9037TIP3    H148526   4.014   5.383  13.517  1.2227 -0.2491  1.0998
 9037TIP3    H248527   4.021   5.404  13.667  0.5686 -4.2131  1.7954
 9038TIP3   OH248528   6.197   1.529  11.874  0.4912 -0.1249  0.2147
 9038TIP3    H148529   6.254   1.605  11.884  2.0957 -1.2192 -0.1989
 9038TIP3    H248530   6.108   1.566  11.870  1.1771  1.6608  0.5189
 9039TIP3   OH248531   5.507   6.042   3.182 -0.3840  0.1564 -0.2903
 9039TIP3    H148532   5.562   5.978   3.137  0.0881  0.8046 -0.6548
 9039TIP3    H248533   5.559   6.069   3.257 -1.0858 -0.7714  0.5629
 9040TIP3   OH248534   5.851   1.030   0.558 -0.4244 -0.5349  0.2257
 9040TIP3    H148535   5.842   1.124   0.571 -2.1040 -0.4490 -1.1747
 9040TIP3    H248536   5.791   0.991   0.621  0.3488 -0.6883  0.8781
 9041TIP3   OH248537   4.437   2.099   4.405 -0.4532  0.4745  0.2141
 9041TIP3    H148538   4.395   2.175   4.364 -0.2971  0.6245  0.3305
 9041TIP3    H248539   4.511   2.079   4.348 -0.7330  0.1530 -0.0414
 9042TIP3   OH248540   4.945   1.362  11.980  0.2426  0.4052  0.4558
 9042TIP3    H148541   4.992   1.281  11.958  0.5667  0.2198  1.7789
 9042TIP3    H248542   4.933   1.406  11.896  1.3822 -0.3092 -0.1056
 9043TIP3   OH248543   0.184   3.235   3.153  0.4761  0.1922  0.1631
 9043TIP3    H148544   0.146   3.263   3.070  0.2025  1.3627  0.6611
 9043TIP3    H248545   0.240   3.161   3.130 -0.2067  0.0028 -0.9392
 9044TIP3   OH248546   5.877   3.409   3.441  0.2664  0.4387  0.0233
 9044TIP3    H148547   5.922   3.330   3.473 -1.4870 -0.7305 -0.2574
 9044TIP3    H248548   5.908   3.419   3.351 -1.5422 -1.6678 -0.9520
 9045TIP3   OH248549   1.499   3.162   4.679 -0.0696 -0.0310 -0.2763
 9045TIP3    H148550   1.504   3.131   4.769 -1.1189 -0.4776 -0.3546
 9045TIP3    H248551   1.405   3.161   4.659  0.1367  0.2782 -1.2996
 9046TIP3   OH248552   3.556   2.274   2.824 -0.2318 -0.2952  0.6890
 9046TIP3    H148553   3.597   2.352   2.859  0.5444 -0.6118  0.4951
 9046TIP3    H248554   3.574   2.205   2.888  1.0665 -0.8426 -0.2270
 9047TIP3   OH248555   2.532   5.853   4.377 -0.8651  0.6818 -0.0187
 9047TIP3    H148556   2.612   5.836   4.327 -1.1621  0.2137 -0.3445
 9047TIP3    H248557   2.491   5.767   4.385 -0.6737  0.6881  1.2939
 9048TIP3   OH248558   3.335   2.204   3.574  0.0359 -0.7530 -0.1670
 9048TIP3    H148559   3.395   2.201   3.500  0.0900  1.5671 -0.2992
 9048TIP3    H248560   3.251   2.230   3.536  0.1692  0.9026  0.5867
 9049TIP3   OH248561   6.099   1.654   1.589  0.3278  0.3593 -0.1662
 9049TIP3    H148562   6.077   1.723   1.526 -0.1130  0.2336 -0.1565
 9049TIP3    H248563   6.190   1.632   1.571  0.4769  0.9613 -0.1570
 9050TIP3   OH248564   5.997   5.034  10.969 -0.0354  1.0357 -0.3983
 9050TIP3    H148565   6.059   5.104  10.949  1.0281  0.0025 -0.8328
 9050TIP3    H248566   5.954   5.015  10.885 -0.7201  1.5213 -0.1684
 9051TIP3   OH248567   4.352   4.086  15.617 -0.0864  0.4345 -0.1213
 9051TIP3    H148568   4.263   4.055  15.633  0.5238 -2.4368 -1.6347
 9051TIP3    H248569   4.340   4.159  15.555 -1.4059  0.4736  0.1352
 9052TIP3   OH248570   0.655   1.935   5.616  0.5533 -0.2993 -0.0105
 9052TIP3    H148571   0.575   1.939   5.668  0.4464 -1.6816 -0.0225
 9052TIP3    H248572   0.637   1.991   5.540  0.6572  1.6173  1.3113
 9053TIP3   OH248573   5.277   4.697  11.442  0.2909  0.1690 -0.1037
 9053TIP3    H148574   5.231   4.777  11.420 -0.7007 -0.8392 -1.9749
 9053TIP3    H248575   5.335   4.721  11.515 -1.4531  2.0397  0.7560
 9054TIP3   OH248576   2.796   0.405   2.074 -0.3117 -0.7147  0.3882
 9054TIP3    H148577   2.710   0.427   2.108 -0.6857  0.4986 -1.2060
 9054TIP3    H248578   2.826   0.485   2.031  1.3224 -1.3158  0.3316
 9055TIP3   OH248579   4.530   3.660   5.158 -0.0994  0.0476 -0.2389
 9055TIP3    H148580   4.455   3.669   5.100 -0.6934 -1.9125  0.1513
 9055TIP3    H248581   4.570   3.747   5.159 -1.5724  0.7919 -1.5050
 9056TIP3   OH248582   5.450   3.671  16.614 -0.5364  0.2462 -0.2058
 9056TIP3    H148583   5.494   3.731  16.674 -0.9860  0.8287 -0.4506
 9056TIP3    H248584   5.520   3.613  16.583  0.1935  1.5018 -1.0143
 9057TIP3   OH248585   3.349   5.716   1.894  0.6306 -0.2285 -0.9214
 9057TIP3    H148586   3.407   5.649   1.930  0.1708 -0.0282  0.2304
 9057TIP3    H248587   3.289   5.668   1.838  0.0641 -0.8584  0.1872
 9058TIP3   OH248588   6.209   5.093   6.498  0.7502 -0.2263  0.8172
 9058TIP3    H148589   6.191   5.158   6.431  1.0487 -0.4777  0.4871
 9058TIP3    H248590   6.124   5.074   6.538  0.7545  0.8062  1.3280
 9059TIP3   OH248591   3.098   0.832  12.343  0.6913 -0.0143  0.3809
 9059TIP3    H148592   3.106   0.924  12.367 -0.2978 -0.1632  1.3096
 9059TIP3    H248593   3.161   0.787  12.398  0.9489  0.0611  0.1518
 9060TIP3   OH248594   3.481   5.829   0.209  0.0983  0.1191  0.1669
 9060TIP3    H148595   3.484   5.740   0.173  1.5045 -0.6123  1.9275
 9060TIP3    H248596   3.543   5.879   0.156 -2.0280  0.6215 -2.0294
 9061TIP3   OH248597   4.957   4.464   5.946 -0.7324 -0.4105 -0.2880
 9061TIP3    H148598   4.868   4.460   5.979 -1.3037 -2.3038 -1.8806
 9061TIP3    H248599   5.001   4.387   5.982  1.8732  2.7094  4.3107
 9062TIP3   OH248600   3.099   2.094  13.738 -0.4494 -0.2905 -0.2080
 9062TIP3    H148601   3.104   2.029  13.668 -0.3262  0.1328 -0.5966
 9062TIP3    H248602   3.079   2.176  13.694  0.1666  0.0885  0.1877
 9063TIP3   OH248603   2.195   5.344  13.881 -0.3440  0.3470  0.5008
 9063TIP3    H148604   2.117   5.311  13.924  0.4904 -1.3431  0.8087
 9063TIP3    H248605   2.178   5.438  13.868 -2.1301  0.1420  1.1183
 9064TIP3   OH248606   0.271   6.511   0.969  0.0364  0.3538 -0.0419
 9064TIP3    H148607   0.191   6.542   0.928 -0.0480 -0.0123 -0.1511
 9064TIP3    H248608   0.334   6.506   0.897  0.0860  0.3851 -0.0012
 9065TIP3   OH248609   3.871   4.601   5.688  0.0622 -0.0990 -0.2066
 9065TIP3    H148610   3.926   4.665   5.732 -0.9871  0.3254  0.5433
 9065TIP3    H248611   3.890   4.612   5.595 -0.8178  2.0329 -0.1849
 9066TIP3   OH248612   5.660   2.679   3.208 -0.3608  0.4845  0.1746
 9066TIP3    H148613   5.649   2.654   3.300 -2.1955  2.1831  0.4924
 9066TIP3    H248614   5.626   2.604   3.160  0.1785 -0.2344  0.8821
 9067TIP3   OH248615   0.359   5.266   1.801  0.1046 -0.8617  0.4193
 9067TIP3    H148616   0.411   5.344   1.822 -1.0656  0.2570 -0.6051
 9067TIP3    H248617   0.388   5.242   1.713 -2.4688  1.0908 -1.1099
 9068TIP3   OH248618   4.850   0.002   4.747 -0.0853 -0.4836 -0.1461
 9068TIP3    H148619   4.916   0.009   4.678 -0.2338 -1.3166 -0.3759
 9068TIP3    H248620   4.886  -0.062   4.808 -0.0170  0.1463  0.4899
 9069TIP3   OH248621   4.327   2.509  11.067 -0.3792 -0.0700 -0.5737
 9069TIP3    H148622   4.272   2.492  10.991 -1.5091  0.3484  0.1084
 9069TIP3    H248623   4.271   2.489  11.142 -0.3564  2.3406  0.1916
 9070TIP3   OH248624   4.084   5.757   1.082  0.3371 -0.8416 -0.4491
 9070TIP3    H148625   4.154   5.744   1.146  0.1786  0.6238  0.0459
 9070TIP3    H248626   4.128   5.747   0.997  1.2141  0.2313 -0.1509
 9071TIP3   OH248627   1.256   1.630  16.187  0.3795 -0.0620  0.3370
 9071TIP3    H148628   1.177   1.654  16.236 -0.1747 -1.6737  0.3169
 9071TIP3    H248629   1.284   1.711  16.145 -1.9891  0.3205 -0.6526
 9072TIP3   OH248630   5.063   3.295  13.443 -0.1155 -0.0620 -0.2079
 9072TIP3    H148631   5.005   3.317  13.516  1.5930  0.9923  0.9072
 9072TIP3    H248632   5.085   3.379  13.403  3.0964  0.0585  1.4198
 9073TIP3   OH248633   5.385   3.277  17.258 -0.3442  0.5000  0.5262
 9073TIP3    H148634   5.456   3.341  17.257 -0.7095  0.9095 -1.1415
 9073TIP3    H248635   5.429   3.193  17.274  0.2748  0.9815  1.4553
 9074TIP3   OH248636   3.672   4.583  17.128 -0.4005 -0.2069  0.1362
 9074TIP3    H148637   3.660   4.659  17.071  0.7292 -0.4203 -0.4167
 9074TIP3    H248638   3.588   4.572  17.172 -0.8880  0.7472 -0.5265
 9075TIP3   OH248639   6.586   0.877   0.388  0.2243 -0.2741  0.2053
 9075TIP3    H148640   6.588   0.900   0.295  0.8429 -0.5874  0.1367
 9075TIP3    H248641   6.535   0.796   0.391  1.8886 -1.3621 -0.1183
 9076TIP3   OH248642   2.378   3.798   0.559  0.1904 -0.3234  0.1321
 9076TIP3    H148643   2.400   3.864   0.493  0.4278 -0.2429  0.2913
 9076TIP3    H248644   2.338   3.727   0.509  0.2032 -0.1846 -0.0766
 9077TIP3   OH248645   0.671   2.862   3.859  0.1065 -0.9475 -0.0904
 9077TIP3    H148646   0.688   2.951   3.827 -0.6688 -0.1881  1.5204
 9077TIP3    H248647   0.662   2.810   3.779 -0.4262  0.6154 -1.1071
 9078TIP3   OH248648   5.448   0.555   4.829  1.2226 -0.1682  0.5634
 9078TIP3    H148649   5.443   0.621   4.897  2.2349 -0.7047  1.1892
 9078TIP3    H248650   5.366   0.506   4.836 -0.3151  2.0142 -1.0139
 9079TIP3   OH248651   1.745   0.862  11.548  0.1264 -0.2559  0.3647
 9079TIP3    H148652   1.753   0.853  11.453 -1.1339 -1.4365  0.3446
 9079TIP3    H248653   1.819   0.917  11.573  0.2443  0.4291 -1.3457
 9080TIP3   OH248654   0.949   1.227  14.165  0.0179 -0.5272 -1.0397
 9080TIP3    H148655   0.891   1.259  14.235 -1.1724 -1.3367 -1.6108
 9080TIP3    H248656   1.037   1.243  14.197 -0.4792  2.2907 -0.8129
 9081TIP3   OH248657   4.452   4.611  16.243  0.0370 -0.8987 -0.4008
 9081TIP3    H148658   4.455   4.580  16.152  1.1553  1.5328 -1.2883
 9081TIP3    H248659   4.459   4.706  16.236  0.9549 -0.6792  2.2805
 9082TIP3   OH248660   4.014   0.627  13.850  0.0952 -0.2862 -0.0287
 9082TIP3    H148661   4.016   0.709  13.900  0.8305 -0.7358  0.6968
 9082TIP3    H248662   4.092   0.580  13.877 -0.4198 -1.3298 -0.2906
 9083TIP3   OH248663   1.284   4.075   5.287 -0.0289 -0.5777 -0.3463
 9083TIP3    H148664   1.299   4.026   5.206 -0.6265 -0.2661 -0.6614
 9083TIP3    H248665   1.194   4.053   5.312  0.6287 -1.8279  1.0675
 9084TIP3   OH248666   1.811   1.455   0.380 -0.0523  0.0661  0.1526
 9084TIP3    H148667   1.872   1.387   0.350  0.6758 -0.1352  1.9636
 9084TIP3    H248668   1.833   1.468   0.472 -0.3663  2.5781 -0.0511
 9085TIP3   OH248669   5.093   3.431  16.397  0.0657  0.2512 -0.3908
 9085TIP3    H148670   5.166   3.456  16.341 -0.0882  1.0007 -0.2692
 9085TIP3    H248671   5.023   3.406  16.336 -0.0656  0.9631 -0.5441
 9086TIP3   OH248672   5.155   2.706  12.200 -0.0112  0.5806  0.3393
 9086TIP3    H148673   5.092   2.653  12.151  0.5286  1.6847 -1.6575
 9086TIP3    H248674   5.222   2.729  12.136  1.4122  1.0491  1.9377
 9087TIP3   OH248675   3.958   6.681  13.432  0.1471  0.5042 -0.2576
 9087TIP3    H148676   3.982   6.618  13.363  3.0608  0.3703  0.7328
 9087TIP3    H248677   3.914   6.628  13.498 -1.9781  0.4954 -1.5742
 9088TIP3   OH248678   0.358   3.459  12.718 -0.0819 -0.2003  0.1148
 9088TIP3    H148679   0.355   3.543  12.673 -0.8641 -1.0193 -1.4452
 9088TIP3    H248680   0.451   3.443  12.734  0.1139  0.6635 -0.1209
 9089TIP3   OH248681   3.996   0.363  13.707 -0.3586 -0.2938 -0.0547
 9089TIP3    H148682   4.016   0.344  13.615 -0.0675 -0.7065  0.0924
 9089TIP3    H248683   4.079   0.349  13.753  0.2668  2.6637 -0.1149
 9090TIP3   OH248684   5.223   1.199   5.293 -0.3435 -0.7789 -0.2786
 9090TIP3    H148685   5.199   1.250   5.370  0.9428 -1.9030  0.9322
 9090TIP3    H248686   5.248   1.265   5.228  0.6114  0.1891  0.9994
 9091TIP3   OH248687   2.131   2.128  15.857 -0.9734 -0.3737 -0.4292
 9091TIP3    H148688   2.143   2.080  15.938 -1.4775  1.1762  0.6190
 9091TIP3    H248689   2.218   2.166  15.839 -1.1438  0.2905  0.0892
 9092TIP3   OH248690   3.641   6.048  11.207 -0.0506  0.1241  0.2204
 9092TIP3    H148691   3.732   6.069  11.186 -0.2452 -0.2993 -1.1791
 9092TIP3    H248692   3.645   6.009  11.294  1.4447 -1.9888 -0.7011
 9093TIP3   OH248693   1.631   3.912  15.677 -0.6625 -0.2373  0.2176
 9093TIP3    H148694   1.549   3.953  15.702 -0.3625 -0.6182  1.9012
 9093TIP3    H248695   1.624   3.822  15.707  0.4779 -0.2024  0.6490
 9094TIP3   OH248696   6.195   5.881  12.473 -0.0834  0.0876 -0.0398
 9094TIP3    H148697   6.231   5.794  12.454  0.9879  0.8371 -1.6474
 9094TIP3    H248698   6.258   5.942  12.435 -0.7659  1.5958  1.1358
 9095TIP3   OH248699   0.830   2.070   4.818  0.5691 -0.7471  0.2014
 9095TIP3    H148700   0.866   1.995   4.867 -0.5628 -1.9283 -0.7132
 9095TIP3    H248701   0.830   2.041   4.727 -0.7930 -0.0178 -0.0539
 9096TIP3   OH248702   5.945   5.191  15.868  0.1336  0.0996  0.1539
 9096TIP3    H148703   5.960   5.116  15.811  1.3869 -0.0962  0.6957
 9096TIP3    H248704   5.866   5.232  15.834 -0.2300 -1.1138 -0.5235
 9097TIP3   OH248705   4.076   2.623   3.760 -0.2786  0.4852 -0.2490
 9097TIP3    H148706   4.102   2.534   3.737 -0.3445  0.3812  0.0742
 9097TIP3    H248707   4.094   2.630   3.853 -0.8599  0.6028 -0.1406
 9098TIP3   OH248708   6.104   5.984  11.945  0.3800  0.0033 -0.3262
 9098TIP3    H148709   6.019   5.945  11.965  1.0124 -0.5543  1.4659
 9098TIP3    H248710   6.125   5.952  11.857 -1.0753 -0.1565 -0.6397
 9099TIP3   OH248711   5.269   2.417  16.216  0.3741 -0.2501  0.4295
 9099TIP3    H148712   5.278   2.480  16.287  2.5201  0.0860 -0.0659
 9099TIP3    H248713   5.347   2.361  16.223 -0.9446 -2.2076  0.2124
 9100TIP3   OH248714   5.102   4.062   3.863  0.1426 -0.3224  0.4034
 9100TIP3    H148715   5.186   4.031   3.829 -1.1051 -1.3678 -1.9228
 9100TIP3    H248716   5.042   3.989   3.850 -1.4877  0.9228  0.5751
 9101TIP3   OH248717   0.753   0.447   3.023 -0.1398  0.3716  0.0234
 9101TIP3    H148718   0.756   0.543   3.017  0.2764  0.3685  0.1321
 9101TIP3    H248719   0.832   0.418   2.978 -1.5559 -0.0487 -2.3374
 9102TIP3   OH248720   4.789   0.769   3.993 -0.1848 -0.5469  0.4295
 9102TIP3    H148721   4.761   0.853   4.030  1.0846  0.5974 -1.0661
 9102TIP3    H248722   4.708   0.720   3.982 -1.2857  1.4556 -0.9301
 9103TIP3   OH248723   4.398   0.601  15.902  0.3589  0.2442 -0.1152
 9103TIP3    H148724   4.312   0.586  15.863 -0.7170  0.9922  1.8411
 9103TIP3    H248725   4.409   0.529  15.964 -0.1355  1.6163  1.6379
 9104TIP3   OH248726   6.594   2.417   4.186  0.4444 -0.0845 -0.0437
 9104TIP3    H148727   6.668   2.404   4.127 -0.2324  0.7557 -1.1069
 9104TIP3    H248728   6.545   2.335   4.182  0.8502 -0.3330  0.0101
 9105TIP3   OH248729   4.926   3.254  17.124  0.6509 -0.0526 -0.3124
 9105TIP3    H148730   4.876   3.283  17.048  1.1745 -0.1748 -0.7033
 9105TIP3    H248731   4.988   3.326  17.141  0.4148  0.0574  0.1115
 9106TIP3   OH248732   0.194   6.662   5.293 -0.2452  0.0726  0.1801
 9106TIP3    H148733   0.239   6.687   5.211 -0.0275 -0.1271  0.2369
 9106TIP3    H248734   0.260   6.614   5.342 -0.2434  0.5517  0.6581
 9107TIP3   OH248735   1.495   6.279  12.769 -0.2260 -0.1987  0.2627
 9107TIP3    H148736   1.580   6.257  12.731 -0.2001 -0.3878  0.4304
 9107TIP3    H248737   1.443   6.199  12.761 -0.2589 -0.2041  0.5201
 9108TIP3   OH248738   1.497   5.927  14.394 -0.5417  0.0355  0.5030
 9108TIP3    H148739   1.559   5.980  14.445 -2.3744  2.1025  0.7253
 9108TIP3    H248740   1.454   5.872  14.459 -0.7235  0.4673  0.7568
 9109TIP3   OH248741   4.608   0.568  13.570  0.0377 -0.1651 -0.3938
 9109TIP3    H148742   4.533   0.562  13.510 -0.8297 -2.9037  0.7769
 9109TIP3    H248743   4.659   0.489  13.551 -0.2933 -1.1558  2.3784
 9110TIP3   OH248744   0.763   4.565   2.236  0.0909  0.3594 -0.3553
 9110TIP3    H148745   0.806   4.566   2.321  0.8159  0.5785 -0.7178
 9110TIP3    H248746   0.677   4.525   2.253  0.1965  0.4727  0.4835
 9111TIP3   OH248747   4.251   6.455  12.534  0.2508 -0.4954 -0.0895
 9111TIP3    H148748   4.186   6.389  12.555 -0.1641 -0.1121 -0.1497
 9111TIP3    H248749   4.333   6.421  12.568 -0.2411 -0.3004  1.3272
 9112TIP3   OH248750   1.812   4.542   5.194 -0.1930  0.2354 -0.0191
 9112TIP3    H148751   1.730   4.553   5.145 -0.1474 -0.0109 -0.1523
 9112TIP3    H248752   1.821   4.448   5.206 -0.3177  0.3086  0.6712
 9113TIP3   OH248753   1.953   5.470  15.781  0.3375 -0.5889 -0.2040
 9113TIP3    H148754   1.915   5.524  15.851  0.2794 -0.1330 -0.5793
 9113TIP3    H248755   2.020   5.419  15.824 -0.7695 -1.4951  0.5018
 9114TIP3   OH248756   3.103   4.397  13.324 -0.1195  0.6542 -0.4525
 9114TIP3    H148757   3.083   4.315  13.279 -0.1797 -0.0966  0.9008
 9114TIP3    H248758   3.018   4.430  13.353  0.1451 -0.9795  2.6248
 9115TIP3   OH248759   5.140   5.385  11.100  0.6504  0.0327 -0.4301
 9115TIP3    H148760   5.174   5.397  11.011  1.1784  1.4666 -0.0527
 9115TIP3    H248761   5.217   5.389  11.156  0.0668  1.8742  0.3146
 9116TIP3   OH248762   6.045   5.634   2.467  0.2011 -0.6853  0.4290
 9116TIP3    H148763   6.012   5.549   2.495 -0.6843 -0.6429 -0.4339
 9116TIP3    H248764   6.001   5.697   2.524 -0.1667 -0.7237  0.1917
 9117TIP3   OH248765   0.964   0.454   3.903  0.5726 -0.2593 -0.4115
 9117TIP3    H148766   0.888   0.512   3.914  0.8546  0.0149  0.1275
 9117TIP3    H248767   0.945   0.405   3.822 -0.5778 -0.8254  0.1772
 9118TIP3   OH248768   1.780   0.979   3.621  0.1285 -0.2347 -0.6282
 9118TIP3    H148769   1.716   0.913   3.594 -1.3322 -0.0259  1.9374
 9118TIP3    H248770   1.794   0.962   3.714  1.8234  1.3873 -0.5306
 9119TIP3   OH248771   1.897   6.006   1.600 -0.4693 -0.2222 -0.2353
 9119TIP3    H148772   1.859   5.920   1.617 -3.1927  0.8208 -0.4501
 9119TIP3    H248773   1.860   6.062   1.668  0.9832  0.8674 -0.2983
 9120TIP3   OH248774   3.831   4.282   1.958  0.0328  0.0658  0.2299
 9120TIP3    H148775   3.752   4.330   1.983  0.5943  1.4206 -0.4899
 9120TIP3    H248776   3.800   4.195   1.933 -1.3579  0.8964 -1.0232
 9121TIP3   OH248777   4.062   2.716  10.903 -0.0565 -0.0005 -0.2723
 9121TIP3    H148778   4.004   2.643  10.922  2.7032 -2.6464 -1.3007
 9121TIP3    H248779   4.101   2.738  10.987  1.3078 -1.8188 -0.3783
 9122TIP3   OH248780   1.011   5.008   4.179  0.3569  0.2956 -0.7455
 9122TIP3    H148781   0.954   4.931   4.184  1.4818 -0.5201  0.0905
 9122TIP3    H248782   0.951   5.082   4.184 -0.5897 -0.5308  1.2551
 9123TIP3   OH248783   3.078   0.198   1.759 -0.4190  0.3718 -0.0077
 9123TIP3    H148784   3.135   0.121   1.768  1.0571  1.4914  0.6139
 9123TIP3    H248785   2.994   0.169   1.793  0.2272 -0.8338  0.6429
 9124TIP3   OH248786   4.777   0.903   2.712 -0.6309  0.1774  0.5999
 9124TIP3    H148787   4.844   0.913   2.645 -0.4125  0.5357  0.8689
 9124TIP3    H248788   4.812   0.949   2.788 -0.0486 -1.7163  1.5403
 9125TIP3   OH248789   3.474   2.636   2.880  0.5202 -0.7772  0.2758
 9125TIP3    H148790   3.405   2.580   2.916  0.9919 -0.4346  1.7808
 9125TIP3    H248791   3.452   2.724   2.911 -1.0537  0.2519 -3.2738
 9126TIP3   OH248792   6.119   5.693   0.755 -0.0810 -0.0298 -0.2523
 9126TIP3    H148793   6.095   5.651   0.672  2.8770 -0.3516 -1.0654
 9126TIP3    H248794   6.146   5.620   0.811  1.4237  0.4142 -0.3418
 9127TIP3   OH248795   4.389   2.257  12.519 -0.0424  0.2842 -0.5176
 9127TIP3    H148796   4.339   2.290  12.594  0.1972  2.8692 -1.4234
 9127TIP3    H248797   4.354   2.168  12.505 -3.2815  1.3364 -0.0859
 9128TIP3   OH248798   1.809   2.595   2.147 -0.1295 -0.2411 -0.8830
 9128TIP3    H148799   1.834   2.669   2.203  3.2827 -1.4692 -0.5855
 9128TIP3    H248800   1.713   2.602   2.140 -0.1930  2.7123  1.1568
 9129TIP3   OH248801   6.232   5.102  11.942  0.1046  0.5854 -0.3226
 9129TIP3    H148802   6.166   5.112  11.874  1.0063  0.2408 -1.2679
 9129TIP3    H248803   6.264   5.012  11.932  0.5559  0.6714  0.2725
 9130TIP3   OH248804   2.610   5.446  14.135 -0.0041 -0.0901 -0.2284
 9130TIP3    H148805   2.580   5.371  14.083 -0.6861 -0.5827  0.8341
 9130TIP3    H248806   2.705   5.442  14.130 -0.0551 -0.4151 -1.0425
 9131TIP3   OH248807   5.026   3.467  15.188 -0.4489 -0.1373  0.6539
 9131TIP3    H148808   5.005   3.473  15.281 -0.1608  0.3621  0.6932
 9131TIP3    H248809   5.118   3.441  15.186 -0.2695  0.4894  0.5206
 9132TIP3   OH248810   1.141   4.423   5.350  0.3316  0.1012  0.0694
 9132TIP3    H148811   1.194   4.375   5.414 -0.8618 -0.5129  0.6292
 9132TIP3    H248812   1.131   4.510   5.388 -0.1393 -0.1764  0.6092
 9133TIP3   OH248813   3.498   1.423  14.146 -0.2035  0.3564 -0.1758
 9133TIP3    H148814   3.515   1.517  14.149 -1.5214  0.5921  1.2532
 9133TIP3    H248815   3.543   1.393  14.067 -0.5773  2.3525 -1.2131
 9134TIP3   OH248816   1.948   3.607   0.069 -0.2752 -0.4273 -0.0227
 9134TIP3    H148817   2.000   3.568   0.139  1.0971  2.4620  0.7442
 9134TIP3    H248818   1.861   3.621   0.108  0.3351  0.7074  1.0220
 9135TIP3   OH248819   3.770   3.721  12.925  0.5192  0.0198  0.1545
 9135TIP3    H148820   3.699   3.686  12.872  1.1779 -1.6953  0.3373
 9135TIP3    H248821   3.837   3.747  12.862  0.0099  1.0511  0.0158
 9136TIP3   OH248822   6.666   3.853  16.505 -0.7232 -0.1793  0.5273
 9136TIP3    H148823   6.577   3.847  16.472 -0.6947  0.6522  0.2570
 9136TIP3    H248824   6.698   3.937  16.472  1.2603 -1.7921 -2.1338
 9137TIP3   OH248825   3.946   0.614   3.046 -0.5164 -0.5053  0.3360
 9137TIP3    H148826   3.859   0.590   3.016 -0.2182 -1.4596  0.2080
 9137TIP3    H248827   3.938   0.618   3.141 -1.0616  0.9311  0.2582
 9138TIP3   OH248828   2.080   4.748   1.846 -0.1164  0.5661  0.1334
 9138TIP3    H148829   2.159   4.701   1.821 -1.0930  0.3425 -2.9540
 9138TIP3    H248830   2.111   4.818   1.904  2.0557 -0.6076  0.4994
 9139TIP3   OH248831   0.397   0.820  12.685  0.3979  0.9010  0.1598
 9139TIP3    H148832   0.323   0.844  12.741  0.7048 -0.5369  1.2318
 9139TIP3    H248833   0.474   0.855  12.729  0.4379  1.9753 -0.7091
 9140TIP3   OH248834   5.893   3.731   1.172 -0.5243 -0.6867 -0.4124
 9140TIP3    H148835   5.910   3.638   1.162 -0.1270 -0.4966 -1.6743
 9140TIP3    H248836   5.849   3.757   1.091 -0.7858  0.1853 -0.0063
 9141TIP3   OH248837   4.899   1.224  15.041  0.1521  0.4035  0.4932
 9141TIP3    H148838   4.953   1.303  15.043 -1.2279  1.4139 -0.2876
 9141TIP3    H248839   4.832   1.242  14.975 -0.4302 -1.2827  0.5594
 9142TIP3   OH248840   0.537   0.151  12.110  0.5551  0.5750 -0.3662
 9142TIP3    H148841   0.495   0.136  12.195  0.5572 -1.6626 -0.7018
 9142TIP3    H248842   0.493   0.090  12.050  3.8518 -1.5486 -0.8593
 9143TIP3   OH248843   0.737   4.812   0.372  0.0400  0.4742 -0.3628
 9143TIP3    H148844   0.793   4.734   0.368 -0.4721  0.1012 -0.3368
 9143TIP3    H248845   0.735   4.844   0.282  0.8595  0.8974 -0.2393
 9144TIP3   OH248846   6.118   6.168   3.156  0.3322 -0.2644  0.3139
 9144TIP3    H148847   6.181   6.238   3.176  0.4272 -0.2932  0.1221
 9144TIP3    H248848   6.079   6.146   3.240  2.7618 -2.3720  0.9997
 9145TIP3   OH248849   2.382   2.202   1.485 -0.0220  0.2744  0.2885
 9145TIP3    H148850   2.385   2.129   1.547  1.4703 -0.0846 -0.1636
 9145TIP3    H248851   2.473   2.232   1.479 -0.4569  1.5634 -0.2639
 9146TIP3   OH248852   1.935   1.829  14.578  0.4745 -0.3778 -0.6032
 9146TIP3    H148853   1.868   1.766  14.552  0.4275 -0.0527 -1.2852
 9146TIP3    H248854   1.952   1.881  14.500 -1.1053  1.9828  0.4967
 9147TIP3   OH248855   3.555   1.923  15.616 -0.0978 -0.0142 -0.3028
 9147TIP3    H148856   3.614   1.889  15.683  2.7516  0.2601 -2.4758
 9147TIP3    H248857   3.525   1.845  15.568  0.2264 -0.0108 -0.5133
 9148TIP3   OH248858   1.900   2.456  10.343 -0.4249  0.1843 -0.7146
 9148TIP3    H148859   1.953   2.478  10.419 -0.0230  0.4468 -1.0628
 9148TIP3    H248860   1.855   2.375  10.367  1.4629 -1.0256 -1.0236
 9149TIP3   OH248861   1.826   2.394   4.851 -0.6707  0.4283 -0.1807
 9149TIP3    H148862   1.893   2.379   4.784 -1.6336  0.6666 -1.2199
 9149TIP3    H248863   1.789   2.307   4.867 -0.2302  0.3234  0.2681
 9150TIP3   OH248864   2.426   2.192  15.272 -0.7544  0.0805 -0.3770
 9150TIP3    H148865   2.443   2.160  15.361 -1.8414 -0.3980 -0.3231
 9150TIP3    H248866   2.471   2.276  15.267 -1.9935  0.8851  1.1788
 9151TIP3   OH248867   1.898   4.331   2.065 -0.1631 -0.0744  0.4788
 9151TIP3    H148868   1.825   4.393   2.066 -0.4075 -0.3197 -0.6054
 9151TIP3    H248869   1.969   4.377   2.111 -0.8567  0.3324  1.1743
 9152TIP3   OH248870   3.152   1.385   1.786  0.2690  0.1204  0.0320
 9152TIP3    H148871   3.189   1.443   1.720  0.4058  0.3870  0.3402
 9152TIP3    H248872   3.205   1.400   1.864 -1.7008  1.9838  1.1021
 9153TIP3   OH248873   3.699   1.361  13.968  0.2351 -0.4427  0.3962
 9153TIP3    H148874   3.736   1.276  13.989 -1.3731 -1.4958 -0.7919
 9153TIP3    H248875   3.771   1.423  13.981  1.8772 -2.1605 -0.1703
 9154TIP3   OH248876   1.552   5.288   4.655 -0.3823 -0.1977 -0.2930
 9154TIP3    H148877   1.463   5.313   4.678  0.0944  0.0070  1.4691
 9154TIP3    H248878   1.553   5.193   4.663 -0.2069 -0.1239  0.6420
 9155TIP3   OH248879   6.107   3.384  16.358 -0.0493  0.4027 -0.0987
 9155TIP3    H148880   6.153   3.463  16.389  1.7691 -0.3854 -0.6428
 9155TIP3    H248881   6.055   3.356  16.433  1.4116  0.5958  1.0467
 9156TIP3   OH248882   0.269   4.080   5.385  0.5118 -0.3582  1.0987
 9156TIP3    H148883   0.201   4.123   5.437  0.6838 -0.2817  1.2598
 9156TIP3    H248884   0.224   4.054   5.304 -0.0314 -1.4657  1.7312
 9157TIP3   OH248885   2.387   5.259  11.337 -0.4177  0.0650  0.2137
 9157TIP3    H148886   2.444   5.229  11.408 -0.8582  0.6192  0.8248
 9157TIP3    H248887   2.300   5.226  11.361 -0.3367 -0.9724 -0.8254
 9158TIP3   OH248888   6.484   5.491  15.830  0.3575  0.0436 -0.2874
 9158TIP3    H148889   6.428   5.556  15.873  0.1850  0.6690 -1.3982
 9158TIP3    H248890   6.552   5.470  15.894  1.1179  2.2341 -0.3089
 9159TIP3   OH248891   1.046   1.533  15.489  0.1367 -0.1231  0.0794
 9159TIP3    H148892   1.100   1.556  15.413  0.1212 -0.9338 -0.1931
 9159TIP3    H248893   1.038   1.614  15.539  0.7796  0.2394 -0.3930
 9160TIP3   OH248894   2.616   6.667  12.543 -0.0963  0.4074  0.2431
 9160TIP3    H148895   2.638   6.716  12.623 -1.0118  2.1294 -0.5210
 9160TIP3    H248896   2.524   6.646  12.554 -0.0601  0.0872 -0.0839
 9161TIP3   OH248897   3.488   4.427   4.439  0.0206 -0.4413  0.1522
 9161TIP3    H148898   3.566   4.443   4.385  0.2701 -0.6019  0.4625
 9161TIP3    H248899   3.464   4.514   4.472  1.5865 -0.6954  2.1224
 9162TIP3   OH248900   5.171   5.998   2.751 -0.2356  0.0561 -0.3425
 9162TIP3    H148901   5.212   6.076   2.787  0.1447  0.2730 -1.2013
 9162TIP3    H248902   5.109   5.969   2.818  0.5778  0.3223  0.5387
 9163TIP3   OH248903   5.963   1.855   3.619  0.6827  0.4731  0.0076
 9163TIP3    H148904   6.026   1.785   3.631  0.4026 -0.1780 -2.0559
 9163TIP3    H248905   5.988   1.897   3.536 -1.5563  0.1757 -0.8824
 9164TIP3   OH248906   2.291   6.588   2.890 -0.3261 -0.3373  0.2809
 9164TIP3    H148907   2.257   6.499   2.899 -0.8747 -0.0212  1.5384
 9164TIP3    H248908   2.289   6.624   2.979 -0.2143  0.9691 -0.2204
 9165TIP3   OH248909   6.486   4.976   2.309  0.1974 -0.1854  0.3779
 9165TIP3    H148910   6.494   4.897   2.256  0.4541 -0.4230  0.7683
 9165TIP3    H248911   6.433   5.035   2.255 -0.1701 -0.6941  0.1687
 9166TIP3   OH248912   2.870   2.212  13.399  0.4460  0.3530 -0.0417
 9166TIP3    H148913   2.872   2.156  13.321  0.6663  1.7536 -1.0865
 9166TIP3    H248914   2.779   2.207  13.429 -0.2867  1.6179 -1.8300
 9167TIP3   OH248915   0.193   0.391   6.041  0.2263 -0.0796 -0.4451
 9167TIP3    H148916   0.189   0.378   5.946 -1.8715 -0.2660 -0.3743
 9167TIP3    H248917   0.273   0.441   6.055  1.5897 -1.6673 -2.0957
 9168TIP3   OH248918   5.067   1.504  13.154  0.8092  0.6021  0.1088
 9168TIP3    H148919   5.033   1.467  13.073 -0.4942 -0.2798  1.0115
 9168TIP3    H248920   5.026   1.590  13.161 -0.4485 -0.0238  0.6612
 9169TIP3   OH248921   6.510   4.727  16.060 -0.2696 -0.1806 -0.0906
 9169TIP3    H148922   6.547   4.816  16.058  0.1691 -0.3505  0.2623
 9169TIP3    H248923   6.552   4.681  15.988 -1.1336  0.1413 -0.8076
 9170TIP3   OH248924   6.304   0.368   2.137  0.6230 -0.0358  0.0167
 9170TIP3    H148925   6.375   0.424   2.168 -0.0472 -0.5630  2.7510
 9170TIP3    H248926   6.224   0.408   2.173  0.0115 -1.9521  0.9400
 9171TIP3   OH248927   6.427   2.961   5.138  0.2659 -0.1836  0.2387
 9171TIP3    H148928   6.337   2.929   5.144  0.2501 -0.0102  0.9148
 9171TIP3    H248929   6.480   2.882   5.129 -0.0623 -0.2384 -1.7429
 9172TIP3   OH248930   0.854   3.810  14.042  0.0842 -0.3206  0.2952
 9172TIP3    H148931   0.762   3.784  14.048 -0.2484  0.6460 -0.3744
 9172TIP3    H248932   0.852   3.906  14.040  1.2051 -0.2429  1.6265
 9173TIP3   OH248933   6.172   2.248   2.097  0.1251  0.1028  0.3367
 9173TIP3    H148934   6.249   2.226   2.044 -0.2233  0.6189 -0.3891
 9173TIP3    H248935   6.194   2.214   2.185 -0.9748 -4.6314 -0.9451
 9174TIP3   OH248936   3.451   4.839   2.634 -0.7566  0.5365 -0.1577
 9174TIP3    H148937   3.518   4.906   2.650  0.2800 -0.6292  0.5445
 9174TIP3    H248938   3.381   4.860   2.696 -0.8043  1.4421 -0.5065
 9175TIP3   OH248939   1.069   2.430   0.113  0.1603 -0.1450 -0.2552
 9175TIP3    H148940   1.154   2.449   0.073 -0.8403  2.1295 -1.4856
 9175TIP3    H248941   1.009   2.495   0.076 -1.7092 -0.3586  2.0890
 9176TIP3   OH248942   1.720   1.081  11.892  0.2182 -0.1329  0.5429
 9176TIP3    H148943   1.702   0.991  11.865  0.5997 -0.3065  0.8557
 9176TIP3    H248944   1.664   1.095  11.968 -1.0025  0.4211 -0.4195
 9177TIP3   OH248945   1.689   1.714   0.361 -0.1691 -0.3696  0.2248
 9177TIP3    H148946   1.710   1.626   0.331 -1.4785 -1.2019  1.6568
 9177TIP3    H248947   1.625   1.702   0.431  1.6409  1.5572  2.3701
 9178TIP3   OH248948   5.714   4.346   0.102  0.3178 -0.5356  0.3465
 9178TIP3    H148949   5.767   4.365   0.025  2.8011 -3.8600  1.0045
 9178TIP3    H248950   5.637   4.299   0.068 -1.1101  2.1401 -0.3849
 9179TIP3   OH248951   4.732   3.344  14.432  0.4993  0.0844 -0.1933
 9179TIP3    H148952   4.781   3.424  14.454 -1.4008  0.9133  1.3480
 9179TIP3    H248953   4.644   3.375  14.410 -0.0855 -1.5360 -0.2477
 9180TIP3   OH248954   3.144   0.415  12.518  0.0671 -0.1573 -0.7995
 9180TIP3    H148955   3.072   0.354  12.502 -0.8700 -0.5502  3.5122
 9180TIP3    H248956   3.219   0.359  12.539  0.0420  0.1509  0.1685
 9181TIP3   OH248957   6.091   1.563   6.276  0.2242  0.8103  0.3508
 9181TIP3    H148958   6.094   1.468   6.293  0.8583  0.7306 -0.1535
 9181TIP3    H248959   6.007   1.577   6.233  0.3697  0.3816 -0.0865
 9182TIP3   OH248960   3.995   6.673  14.747  0.5650  0.2609 -0.0091
 9182TIP3    H148961   3.936   6.747  14.734  0.6773  0.6592  1.4914
 9182TIP3    H248962   3.955   6.601  14.699  0.4869  1.2904 -1.5527
 9183TIP3   OH248963   0.312   2.261   2.392 -0.0295  0.1346 -0.3252
 9183TIP3    H148964   0.288   2.337   2.445 -0.6138 -0.0528 -0.3150
 9183TIP3    H248965   0.359   2.204   2.453 -1.6673 -0.5859  0.3180
 9184TIP3   OH248966   1.368   3.664  11.608 -0.0350  0.3764 -0.3177
 9184TIP3    H148967   1.334   3.615  11.682  0.2444 -1.1806 -1.1892
 9184TIP3    H248968   1.304   3.650  11.538  0.6167  0.3336 -0.9158
 9185TIP3   OH248969   0.692   6.533   0.694 -0.4802 -0.3211  0.0009
 9185TIP3    H148970   0.718   6.603   0.634 -3.7072  0.4302 -0.7070
 9185TIP3    H248971   0.740   6.456   0.664 -0.2755  0.5762 -2.1043
 9186TIP3   OH248972   1.806   1.968   0.804 -0.3526  0.1707  0.0145
 9186TIP3    H148973   1.720   1.931   0.824 -0.1457 -0.2164  0.2008
 9186TIP3    H248974   1.839   1.999   0.888 -0.9613  1.7645 -0.2848
 9187TIP3   OH248975   6.426   6.189  15.957  0.0140 -0.4808 -0.1579
 9187TIP3    H148976   6.501   6.229  16.001 -0.5177 -1.1296  1.3986
 9187TIP3    H248977   6.431   6.096  15.981 -0.5812 -0.7635 -1.0761
 9188TIP3   OH248978   3.870   1.489  16.979 -0.3090  0.2993  0.8321
 9188TIP3    H148979   3.903   1.439  16.904  0.9057  1.1825  0.7426
 9188TIP3    H248980   3.936   1.478  17.047  1.5247  3.9062 -0.0885
 9189TIP3   OH248981   5.242   4.174   0.121 -0.0341  0.0902 -0.6535
 9189TIP3    H148982   5.217   4.101   0.064 -0.4470 -0.1236 -0.2086
 9189TIP3    H248983   5.159   4.216   0.143  0.2313  0.8982 -1.1725
 9190TIP3   OH248984   3.137   4.817  13.435 -0.6765 -0.6683  0.4735
 9190TIP3    H148985   3.177   4.797  13.520  0.9945  0.8145  0.0894
 9190TIP3    H248986   3.043   4.824  13.453 -0.6238 -2.5846  1.7417
 9191TIP3   OH248987   0.944   1.099   3.030 -0.3053 -0.5448  0.4918
 9191TIP3    H148988   0.956   1.148   3.112 -0.2875 -0.8547  0.6775
 9191TIP3    H248989   1.004   1.025   3.038 -0.2726 -0.5538  0.1762
 9192TIP3   OH248990   6.692   3.337   3.424  0.4393 -0.6264 -0.4813
 9192TIP3    H148991   6.651   3.358   3.507  1.7316 -0.5961  0.1700
 9192TIP3    H248992   6.705   3.242   3.426  0.4485 -0.6312 -0.6659
 9193TIP3   OH248993   0.255   6.319  16.666 -0.0468 -0.4302 -0.4122
 9193TIP3    H148994   0.205   6.390  16.706  1.2549  1.1039 -1.3584
 9193TIP3    H248995   0.249   6.247  16.728 -2.1694  0.1724  0.1689
 9194TIP3   OH248996   3.056   3.135   1.276 -0.4185 -0.9721 -0.0840
 9194TIP3    H148997   3.084   3.047   1.249 -3.2230 -1.5771 -1.3349
 9194TIP3    H248998   3.005   3.120   1.355 -0.1414 -0.3343  0.2216
 9195TIP3   OH248999   3.415   4.388   3.995  0.0326 -0.5212 -0.0398
 9195TIP3    H149000   3.392   4.365   3.905  1.5759 -0.3897 -0.5001
 9195TIP3    H249001   3.430   4.483   3.993 -0.6450 -0.3944  0.5341
 9196TIP3   OH249002   2.194   2.456  15.273 -0.1545 -0.3459 -0.3024
 9196TIP3    H149003   2.186   2.535  15.327  0.5375  0.8138 -1.7962
 9196TIP3    H249004   2.271   2.411  15.308 -0.0034  0.1308 -0.0028
 9197TIP3   OH249005   0.552   6.317  11.226  0.2977  0.3014  0.0014
 9197TIP3    H149006   0.478   6.365  11.262 -1.2775 -0.6295 -1.7821
 9197TIP3    H249007   0.534   6.312  11.132  2.4389 -0.3166 -0.4447
 9198TIP3   OH249008   4.683   1.872  11.495  0.3001 -0.2409  0.1263
 9198TIP3    H149009   4.769   1.877  11.453  0.2970 -1.5403 -0.0672
 9198TIP3    H249010   4.644   1.792  11.461 -0.7251 -0.0111  0.7215
 9199TIP3   OH249011   5.211   0.066  11.024  0.1727  0.1214 -0.4117
 9199TIP3    H149012   5.236   0.146  11.069  2.2457 -0.9506  0.4483
 9199TIP3    H249013   5.134   0.091  10.973 -0.0247  2.3102  0.8278
 9200TIP3   OH249014   6.064   1.345  13.601  0.2057 -0.5893 -0.4800
 9200TIP3    H149015   5.968   1.348  13.594  0.1225 -1.4808  0.0706
 9200TIP3    H249016   6.080   1.279  13.668  1.1630  0.8143  0.7317
 9201TIP3   OH249017   1.050   2.603  12.438  1.1415  0.4100  0.5638
 9201TIP3    H149018   1.007   2.688  12.438 -0.1856 -0.2420  1.4475
 9201TIP3    H249019   1.044   2.573  12.347 -0.4381  0.2658  0.6978
 9202TIP3   OH249020   5.535   6.492  13.606  0.0188  0.1281 -0.1977
 9202TIP3    H149021   5.530   6.436  13.528  0.7208 -1.0639  0.5851
 9202TIP3    H249022   5.445   6.499  13.637  0.1825 -3.1302  1.4131
 9203TIP3   OH249023   1.468   5.560  13.524 -0.0049 -0.5584  0.3399
 9203TIP3    H149024   1.531   5.500  13.563 -1.0259 -1.7284  0.2589
 9203TIP3    H249025   1.385   5.538  13.566 -0.7338 -0.4159 -0.9558
 9204TIP3   OH249026   1.745   2.539  10.787 -0.1942 -0.5053  0.0404
 9204TIP3    H149027   1.799   2.607  10.746  0.3755  0.0647  1.6452
 9204TIP3    H249028   1.659   2.578  10.795 -0.4855 -0.8676 -1.1839
 9205TIP3   OH249029   0.202   3.209   3.630  0.0739 -0.5811 -0.1861
 9205TIP3    H149030   0.120   3.181   3.591 -0.6608  1.1719 -0.0162
 9205TIP3    H249031   0.187   3.205   3.725  0.6213 -1.4035 -0.1199
 9206TIP3   OH249032   3.712   4.221  10.678 -0.0202 -0.1166  0.3640
 9206TIP3    H149033   3.773   4.189  10.611  0.1940  0.7570  0.1330
 9206TIP3    H249034   3.767   4.269  10.739 -0.3122 -0.3566  0.8249
 9207TIP3   OH249035   1.686   0.520   3.980 -0.2349  0.1778 -0.0131
 9207TIP3    H149036   1.639   0.448   4.021 -0.5900 -0.3025 -1.2153
 9207TIP3    H249037   1.776   0.511   4.012 -0.7139  0.5109  1.5230
 9208TIP3   OH249038   0.610   3.668  16.759 -0.1768 -0.7602 -0.1941
 9208TIP3    H149039   0.564   3.667  16.675  0.9309 -2.1107 -0.8337
 9208TIP3    H249040   0.650   3.582  16.765  1.0548 -0.1446  0.9974
 9209TIP3   OH249041   1.702   4.601  15.424  0.0455 -0.1037  0.9103
 9209TIP3    H149042   1.689   4.611  15.329  1.3754  0.9400  0.8114
 9209TIP3    H249043   1.697   4.506  15.439  0.9556 -0.3904 -0.3983
 9210TIP3   OH249044   4.977   4.527  14.120  0.6529  0.1426  0.4006
 9210TIP3    H149045   5.046   4.489  14.066  1.7519  2.1028  0.3252
 9210TIP3    H249046   4.941   4.598  14.067  0.3847  0.8179  1.4531
 9211TIP3   OH249047   2.847   5.260  12.485 -0.0419  0.3009  0.1546
 9211TIP3    H149048   2.800   5.330  12.532  0.4175 -0.3792  1.7000
 9211TIP3    H249049   2.797   5.181  12.504  0.2506 -0.0179 -0.3839
 9212TIP3   OH249050   6.499   3.689  14.007  0.6481 -0.6774 -0.3824
 9212TIP3    H149051   6.407   3.709  13.991  0.0800 -2.6161  0.1745
 9212TIP3    H249052   6.539   3.774  14.024 -1.1022  0.1905 -0.3156
 9213TIP3   OH249053   3.273   2.955  13.015 -0.7418  0.5037  0.3851
 9213TIP3    H149054   3.354   2.910  12.994 -0.5710  0.0435  1.9667
 9213TIP3    H249055   3.216   2.939  12.939 -0.4262 -1.7496  0.5776
 9214TIP3   OH249056   5.137   5.044  15.460 -0.2355  0.0129 -0.0038
 9214TIP3    H149057   5.116   5.035  15.553  2.0744 -1.8130  0.4310
 9214TIP3    H249058   5.062   5.007  15.415 -1.7089  1.5648  1.0435
 9215TIP3   OH249059   2.537   0.916  13.161 -0.3467  0.3906  0.0084
 9215TIP3    H149060   2.456   0.866  13.150 -0.1174  0.4760 -2.8881
 9215TIP3    H249061   2.604   0.850  13.179 -0.7278  0.1438  0.5706
 9216TIP3   OH249062   5.337   2.106  15.610 -0.2845  0.0786  0.0819
 9216TIP3    H149063   5.410   2.127  15.552  0.6641 -0.1655  1.1418
 9216TIP3    H249064   5.331   2.182  15.669 -0.3644 -0.2380  0.4872
 9217TIP3   OH249065   6.244   4.404   4.184 -0.4658 -0.3324 -0.0301
 9217TIP3    H149066   6.184   4.389   4.111  0.2026 -1.6746 -0.3281
 9217TIP3    H249067   6.319   4.448   4.145  0.1862 -1.6400 -0.3240
 9218TIP3   OH249068   0.200   2.532  16.420  0.4699  0.1970 -0.1689
 9218TIP3    H149069   0.135   2.519  16.351 -1.0233  0.0172  1.2208
 9218TIP3    H249070   0.184   2.621  16.452  0.0124 -0.3081  1.0585
 9219TIP3   OH249071   2.596   4.500  10.942  0.3601 -0.2546  0.1388
 9219TIP3    H149072   2.604   4.591  10.972  2.1162 -0.5910  0.8302
 9219TIP3    H249073   2.503   4.479  10.953 -0.1169  1.5074 -0.2448
 9220TIP3   OH249074   4.288   0.790   6.198  0.0129 -0.9326 -0.6658
 9220TIP3    H149075   4.196   0.771   6.216  0.4453 -2.2476  0.2700
 9220TIP3    H249076   4.336   0.736   6.260  1.4181  1.6337  0.6240
 9221TIP3   OH249077   6.288   1.735   1.219  0.1398 -0.2929 -0.0444
 9221TIP3    H149078   6.374   1.774   1.233 -0.1068 -0.1851  1.3164
 9221TIP3    H249079   6.302   1.641   1.228  0.3022 -0.3539 -0.9010
 9222TIP3   OH249080   4.373   0.868   5.146 -0.4271 -0.3014 -0.7492
 9222TIP3    H149081   4.419   0.905   5.071 -2.3347  0.6301 -1.5188
 9222TIP3    H249082   4.303   0.930   5.165 -2.1436 -2.1952 -0.4406
 9223TIP3   OH249083   4.136   3.412   3.190 -0.0959 -0.1390 -0.4055
 9223TIP3    H149084   4.154   3.408   3.284 -0.6110 -1.2426 -0.3342
 9223TIP3    H249085   4.074   3.484   3.180  0.6878  0.6071 -0.0409
 9224TIP3   OH249086   4.810   5.374  16.251 -0.1765 -0.5192  0.0372
 9224TIP3    H149087   4.842   5.438  16.187 -0.8160  1.4087  1.5343
 9224TIP3    H249088   4.865   5.389  16.328 -0.9503 -1.1592  0.7275
 9225TIP3   OH249089   2.981   3.586   0.510  0.4347  0.2895 -0.8172
 9225TIP3    H149090   2.913   3.529   0.475 -0.3011  0.8099 -0.2758
 9225TIP3    H249091   2.947   3.675   0.496  1.2674  0.5821 -1.0652
 9226TIP3   OH249092   5.533   5.454  10.416 -0.0966  0.5595 -0.2317
 9226TIP3    H149093   5.490   5.392  10.356  0.3429  1.4283 -1.4825
 9226TIP3    H249094   5.464   5.516  10.439 -0.2392  0.2845  0.0980
 9227TIP3   OH249095   1.954   3.796  13.427  0.3152 -0.1830  0.5088
 9227TIP3    H149096   1.971   3.813  13.334 -0.6141 -0.9468  0.1792
 9227TIP3    H249097   1.906   3.872  13.457 -1.3023 -0.8724 -0.2169
 9228TIP3   OH249098   0.210   4.790   4.696 -0.3973 -0.0243 -0.1324
 9228TIP3    H149099   0.239   4.868   4.650 -1.9190  0.5457 -0.2056
 9228TIP3    H249100   0.206   4.817   4.788  3.0922 -1.2931  0.5289
 9229TIP3   OH249101   5.862   2.834  13.793 -0.0513  0.3393  0.0686
 9229TIP3    H149102   5.904   2.887  13.726 -0.5345  0.2860 -0.2818
 9229TIP3    H249103   5.866   2.745  13.759  0.0260  0.2624  0.2774
 9230TIP3   OH249104   2.173   6.403   2.621  0.1602  0.0625 -0.3793
 9230TIP3    H149105   2.089   6.450   2.618 -0.0796 -0.1936  1.2723
 9230TIP3    H249106   2.236   6.465   2.584 -0.5115  0.8538 -0.2286
 9231TIP3   OH249107   1.297   2.836   0.496 -0.2790  0.1951 -0.5659
 9231TIP3    H149108   1.387   2.840   0.464  0.6481  0.7801  1.8768
 9231TIP3    H249109   1.258   2.918   0.466 -0.0940 -0.1606 -1.8368
 9232TIP3   OH249110   6.483   2.979  16.324  0.0982  0.0940  0.0278
 9232TIP3    H149111   6.543   3.054  16.324 -1.3250  1.3016  1.5867
 9232TIP3    H249112   6.503   2.932  16.404 -0.7473  0.2883  0.3651
 9233TIP3   OH249113   0.377   3.401  16.379 -0.1775  1.1660 -0.2210
 9233TIP3    H149114   0.321   3.343  16.431 -0.3603 -1.0559 -2.6850
 9233TIP3    H249115   0.317   3.449  16.322  0.1515  2.1249  0.2158
 9234TIP3   OH249116   4.701   5.984  14.665 -0.2849 -0.1131 -0.5351
 9234TIP3    H149117   4.750   6.031  14.731 -2.0434  2.8227 -1.1455
 9234TIP3    H249118   4.730   5.893  14.673  1.6490  0.6411  2.2540
 9235TIP3   OH249119   1.853   0.913  15.876 -0.2039  0.4486  0.0913
 9235TIP3    H149120   1.914   0.845  15.905 -1.4418 -0.6215  0.2889
 9235TIP3    H249121   1.887   0.994  15.914  1.5796  0.0466 -0.5515
 9236TIP3   OH249122   0.030   0.280   1.439  0.1855 -0.0379 -0.4905
 9236TIP3    H149123  -0.004   0.231   1.364 -0.6233  1.4220 -1.1120
 9236TIP3    H249124  -0.021   0.361   1.441  1.9187  1.1064  0.0916
 9237TIP3   OH249125   6.237   5.613  12.452  0.0445 -0.6329  0.8154
 9237TIP3    H149126   6.203   5.544  12.394  0.8546  0.1962 -0.6931
 9237TIP3    H249127   6.328   5.587  12.469 -0.7048 -1.9091  3.3975
 9238TIP3   OH249128   1.278   5.997  13.207  0.0056 -0.0951  0.8296
 9238TIP3    H149129   1.187   5.972  13.222 -0.6882  1.0324 -1.0587
 9238TIP3    H249130   1.295   6.068  13.268 -0.0651 -0.8944  1.8040
 9239TIP3   OH249131   0.138   3.191   4.264 -0.3676  0.1243  0.1093
 9239TIP3    H149132   0.161   3.184   4.171  0.5982  0.8556  0.2813
 9239TIP3    H249133   0.201   3.134   4.308 -0.1512  0.5961  0.4096
 9240TIP3   OH249134   5.940   6.505  12.853  0.6326  0.0659 -0.0658
 9240TIP3    H149135   5.966   6.475  12.940  1.5495  0.8653 -0.0537
 9240TIP3    H249136   6.014   6.557  12.823 -0.3358  1.1115 -0.6799
 9241TIP3   OH249137   0.776   6.700   5.638  0.2244 -0.2138 -0.5700
 9241TIP3    H149138   0.763   6.657   5.722 -1.3746  2.0603  0.4501
 9241TIP3    H249139   0.798   6.791   5.660  1.7531 -0.0049 -2.6074
 9242TIP3   OH249140   5.195   2.047  12.701 -0.2653 -0.2416 -0.4130
 9242TIP3    H149141   5.185   2.052  12.606 -0.1377 -0.7743 -0.4593
 9242TIP3    H249142   5.172   1.957  12.722  1.8664 -0.7920 -0.2253
 9243TIP3   OH249143   1.372   3.789   5.841  0.0062  1.3207  0.5747
 9243TIP3    H149144   1.284   3.755   5.828  1.6044 -2.6758 -1.4797
 9243TIP3    H249145   1.398   3.757   5.928 -0.2104  1.6513  0.7627
 9244TIP3   OH249146   6.415   1.817  13.151  0.0396 -0.2618  0.1399
 9244TIP3    H149147   6.336   1.783  13.107 -0.2890  1.5388 -0.7671
 9244TIP3    H249148   6.409   1.783  13.240 -1.6629 -0.3765  0.0248
 9245TIP3   OH249149   0.474   1.216   1.833  0.9797  0.4152  0.2656
 9245TIP3    H149150   0.441   1.172   1.755 -1.5192 -1.2121  2.0584
 9245TIP3    H249151   0.450   1.308   1.821 -0.1086  0.0427 -0.5591
 9246TIP3   OH249152   1.407   2.553  15.066 -0.1646 -0.2455 -0.1254
 9246TIP3    H149153   1.458   2.606  15.128 -1.7151  0.3015  0.7414
 9246TIP3    H249154   1.357   2.617  15.015  0.0198 -0.7673 -0.9769
 9247TIP3   OH249155   1.598   4.378  13.293  0.3875  0.2931 -1.2010
 9247TIP3    H149156   1.513   4.400  13.331  0.2504  0.4414 -1.5876
 9247TIP3    H249157   1.651   4.456  13.308  0.5608  0.0724 -0.6569
 9248TIP3   OH249158   0.590   2.513   1.973 -0.3077 -0.6788 -0.2838
 9248TIP3    H149159   0.570   2.511   2.066 -1.2735 -0.6572 -0.4750
 9248TIP3    H249160   0.677   2.475   1.966  0.6903  1.2490  0.8314
 9249TIP3   OH249161   2.409   5.470  13.253  0.1566  0.1470  0.1197
 9249TIP3    H149162   2.378   5.479  13.343  0.1866 -1.8225  0.3624
 9249TIP3    H249163   2.482   5.532  13.246  0.0358  0.4452  1.3931
 9250TIP3   OH249164   5.559   6.535  14.719  0.1983  0.3958 -0.4707
 9250TIP3    H149165   5.558   6.442  14.696  1.3032  0.5615 -1.2762
 9250TIP3    H249166   5.469   6.564  14.703 -0.7760 -0.9875  1.9392
 9251TIP3   OH249167   0.856   3.739   4.197 -0.7176 -0.1663  0.0088
 9251TIP3    H149168   0.795   3.670   4.223  2.2933 -2.1155  2.7990
 9251TIP3    H249169   0.908   3.701   4.126 -0.2262 -0.0940  0.3201
 9252TIP3   OH249170   2.360   2.827   1.576 -0.1530 -0.0329 -0.0882
 9252TIP3    H149171   2.403   2.868   1.651  1.5186 -0.0750 -0.9563
 9252TIP3    H249172   2.270   2.860   1.578 -0.5719 -1.1025  2.6625
 9253TIP3   OH249173   3.008   3.420   3.832  0.3531 -0.5355  0.4413
 9253TIP3    H149174   3.000   3.402   3.926  1.1305  2.6791  1.2252
 9253TIP3    H249175   2.921   3.398   3.796  0.1908 -2.2740  1.7673
 9254TIP3   OH249176   3.795   0.233   2.701  0.1817  0.2250  0.2596
 9254TIP3    H149177   3.736   0.169   2.660 -0.4643  0.4259  0.8598
 9254TIP3    H249178   3.824   0.191   2.782 -1.1946  1.1368  1.2675
 9255TIP3   OH249179   3.671   0.986   4.693  0.2350 -0.5163 -0.0904
 9255TIP3    H149180   3.643   1.063   4.743  1.0580  0.0913 -0.5324
 9255TIP3    H249181   3.756   0.963   4.730  0.1121 -1.0631 -0.1350
 9256TIP3   OH249182   3.297   5.597   0.441 -0.6018 -0.1569 -0.5322
 9256TIP3    H149183   3.384   5.634   0.458 -0.5970 -0.0561 -0.7851
 9256TIP3    H249184   3.296   5.517   0.494 -0.0860 -0.5328 -1.0813
 9257TIP3   OH249185   6.752   2.071   1.497  0.1006 -0.0216  0.2731
 9257TIP3    H149186   6.657   2.076   1.488  0.0086 -1.2543  0.3700
 9257TIP3    H249187   6.777   2.157   1.531 -0.8139  0.8023 -1.0284
 9258TIP3   OH249188   0.287   5.325  16.872 -0.3504  0.1959  0.6248
 9258TIP3    H149189   0.300   5.284  16.957  0.0563  1.8559  1.4081
 9258TIP3    H249190   0.204   5.372  16.881 -1.7306 -1.8181 -0.8465
 9259TIP3   OH249191   2.627   5.139   5.844 -0.1203  0.0240  0.5994
 9259TIP3    H149192   2.636   5.232   5.867  0.6887  0.2928 -0.6817
 9259TIP3    H249193   2.649   5.136   5.751 -2.5692 -1.0819 -0.0292
 9260TIP3   OH249194   1.906   2.428   5.699 -0.4522  0.3071  0.2554
 9260TIP3    H149195   1.973   2.486   5.664  1.4241 -1.1584  1.2688
 9260TIP3    H249196   1.823   2.474   5.682  0.8998  3.1563  0.8137
 9261TIP3   OH249197   1.418   5.129  14.804 -0.2185  0.4405  0.3339
 9261TIP3    H149198   1.368   5.070  14.749 -0.1338  0.5317  0.1574
 9261TIP3    H249199   1.411   5.092  14.892 -1.1547  0.8191  0.4311
 9262TIP3   OH249200   4.543   2.260   2.145 -0.0640  0.5006  0.2849
 9262TIP3    H149201   4.563   2.167   2.159 -1.4339  0.1439  0.0189
 9262TIP3    H249202   4.617   2.306   2.185  2.2777 -0.7127 -2.3082
 9263TIP3   OH249203   3.422   5.766  12.217  0.4640 -0.0814 -0.4406
 9263TIP3    H149204   3.425   5.674  12.241  1.4824 -0.1279 -0.6952
 9263TIP3    H249205   3.499   5.805  12.258  0.3593  0.5331 -0.7998
 9264TIP3   OH249206   5.462   0.526   2.833 -0.8420 -0.0409  0.0279
 9264TIP3    H149207   5.380   0.564   2.865 -0.4106  0.8041  0.1509
 9264TIP3    H249208   5.492   0.586   2.765  0.6313  0.7027  1.2729
 9265TIP3   OH249209   4.104   5.405  14.155 -0.8839  0.0680 -0.5892
 9265TIP3    H149210   4.128   5.331  14.100  2.5723 -0.5370  1.4801
 9265TIP3    H249211   4.068   5.365  14.234 -0.1635  0.6161  0.0312
 9266TIP3   OH249212   4.159   5.930   2.793  0.0761 -0.6290  0.2347
 9266TIP3    H149213   4.254   5.943   2.792  0.1570 -1.2068 -0.4577
 9266TIP3    H249214   4.146   5.847   2.748 -0.6953 -1.0361  1.1647
 9267TIP3   OH249215   5.551   5.074   0.706 -0.0235 -0.1200 -0.1604
 9267TIP3    H149216   5.643   5.096   0.716 -0.2410  1.1572 -0.7223
 9267TIP3    H249217   5.551   4.990   0.660  0.8636  0.2003 -0.7714
 9268TIP3   OH249218   3.630   3.545  16.705  0.0313  0.5771  0.3578
 9268TIP3    H149219   3.583   3.523  16.786 -0.3951 -0.1661 -0.0787
 9268TIP3    H249220   3.590   3.627  16.676 -0.2976  0.4859  0.5378
 9269TIP3   OH249221   5.383   3.626  14.183 -0.2715  0.3017  0.2387
 9269TIP3    H149222   5.320   3.651  14.115  0.4604 -1.6506 -1.2524
 9269TIP3    H249223   5.338   3.558  14.233 -0.3776  0.9315  1.0235
 9270TIP3   OH249224   3.834   1.700   0.543  0.0955  0.2715 -0.2025
 9270TIP3    H149225   3.885   1.776   0.513 -0.0337  1.1778  1.7282
 9270TIP3    H249226   3.892   1.625   0.528  2.1163  1.2711  1.9841
 9271TIP3   OH249227   2.550   6.054  13.810  0.5168  0.2554 -0.3645
 9271TIP3    H149228   2.640   6.083  13.796  0.8832 -0.4320  0.4785
 9271TIP3    H249229   2.559   5.963  13.840 -0.5706 -0.8501 -3.0318
 9272TIP3   OH249230   3.662   3.539  10.849 -0.5001 -0.0048  0.0995
 9272TIP3    H149231   3.723   3.587  10.793 -1.2304 -0.1942 -0.8796
 9272TIP3    H249232   3.605   3.492  10.788 -1.4288 -0.0757  1.0020
 9273TIP3   OH249233   4.881   4.103  12.211  0.2968 -0.3072 -0.0989
 9273TIP3    H149234   4.899   4.065  12.125  0.1794  2.3689 -1.3909
 9273TIP3    H249235   4.798   4.149  12.201 -1.1461 -2.1047  2.2764
 9274TIP3   OH249236   2.646   0.707   3.934  0.1439 -0.0308 -0.2016
 9274TIP3    H149237   2.640   0.682   3.842 -1.1493 -3.3663  0.6535
 9274TIP3    H249238   2.736   0.739   3.944  0.4260  0.0456 -2.5135
 9275TIP3   OH249239   2.223   0.007   1.691  0.0310  0.7849 -0.3435
 9275TIP3    H149240   2.279   0.085   1.691  0.6806  0.3294 -0.7673
 9275TIP3    H249241   2.187   0.004   1.603  0.3439  0.3773 -0.4619
 9276TIP3   OH249242   3.883   3.308  12.641 -0.0775 -0.3139  0.1535
 9276TIP3    H149243   3.817   3.365  12.601 -1.3847 -1.4297  0.6640
 9276TIP3    H249244   3.966   3.356  12.629 -0.9131  0.9739 -0.7708
 9277TIP3   OH249245   3.669   0.734   4.159 -0.7409 -0.4414  0.0378
 9277TIP3    H149246   3.699   0.824   4.160 -0.6803 -0.4592  0.8670
 9277TIP3    H249247   3.736   0.686   4.208 -1.5148 -0.6722  0.9035
 9278TIP3   OH249248   1.736   3.264   5.486 -0.0714 -0.2610 -0.0499
 9278TIP3    H149249   1.768   3.219   5.564  1.7752 -1.3687 -1.3791
 9278TIP3    H249250   1.813   3.277   5.432 -1.2728  0.6259 -1.6382
 9279TIP3   OH249251   4.671   0.099  11.734 -0.1868  0.2856  0.6323
 9279TIP3    H149252   4.652   0.165  11.800  0.4171  0.3594  0.7349
 9279TIP3    H249253   4.586   0.082  11.692 -0.6372 -0.0071  1.6414
 9280TIP3   OH249254   3.625   5.060  12.806  0.1545  0.4049 -0.1351
 9280TIP3    H149255   3.550   5.119  12.816  1.1585  1.8821 -1.1145
 9280TIP3    H249256   3.604   5.009  12.728  0.0688  0.6360 -0.2632
 9281TIP3   OH249257   5.527   0.820   1.034 -0.2475  0.1629 -0.3907
 9281TIP3    H149258   5.533   0.885   1.105 -2.4790  1.4888 -1.3084
 9281TIP3    H249259   5.449   0.770   1.054  0.3166 -0.9037 -0.7975
 9282TIP3   OH249260   5.316   3.094  16.990 -0.0764 -0.0120  0.3347
 9282TIP3    H149261   5.308   3.015  16.936 -0.2883  1.0983 -1.3094
 9282TIP3    H249262   5.270   3.072  17.071 -1.0787 -1.1924 -0.5198
 9283TIP3   OH249263   1.761   1.451  15.917  0.2929 -0.7305  0.2963
 9283TIP3    H149264   1.711   1.467  15.997  1.2515 -1.7604  1.1309
 9283TIP3    H249265   1.713   1.498  15.849 -0.3368  0.4895  1.5365
 9284TIP3   OH249266   6.627   1.885  12.811 -0.6181 -0.4425  0.4076
 9284TIP3    H149267   6.654   1.864  12.901 -0.8364 -0.8977  0.3671
 9284TIP3    H249268   6.532   1.899  12.818 -0.6953 -0.8485  0.1793
 9285TIP3   OH249269   4.192   6.311   5.104  0.0342 -0.0095  0.5248
 9285TIP3    H149270   4.241   6.248   5.157 -0.0194 -1.8654 -1.4730
 9285TIP3    H249271   4.179   6.386   5.161  3.1748 -0.3663  1.9211
 9286TIP3   OH249272   5.651   4.682  15.652  0.3316  0.0641  0.7319
 9286TIP3    H149273   5.587   4.620  15.689 -1.2852  1.7291  0.8726
 9286TIP3    H249274   5.695   4.720  15.729 -0.4572  0.8770  0.7998
 9287TIP3   OH249275   5.403   6.299  12.549  0.0728 -0.3149 -0.1507
 9287TIP3    H149276   5.308   6.292  12.542  0.0668  0.3036 -0.8273
 9287TIP3    H249277   5.436   6.214  12.518 -0.2646 -0.7770  0.7104
 9288TIP3   OH249278   3.856   2.414  13.210  0.1089  0.0526  0.2473
 9288TIP3    H149279   3.916   2.471  13.257 -0.6009  1.3649 -0.3593
 9288TIP3    H249280   3.901   2.329  13.205  0.9441  0.3852  1.6842
 9289TIP3   OH249281   0.004   3.977   1.297 -0.2067  0.4287 -0.3297
 9289TIP3    H149282  -0.037   4.014   1.220 -0.5067  0.2520 -0.2543
 9289TIP3    H249283   0.082   3.932   1.263 -0.7023 -0.2254 -0.6132
 9290TIP3   OH249284   3.945   6.116  16.480 -0.3133 -0.7758  0.4333
 9290TIP3    H149285   3.891   6.092  16.404 -0.3693  2.8983 -0.8658
 9290TIP3    H249286   4.034   6.092  16.454  0.0519  2.4835 -2.0283
 9291TIP3   OH249287   6.306   1.885  16.595 -0.1874  0.6089  0.9340
 9291TIP3    H149288   6.215   1.912  16.579  0.2599  0.9181 -1.5533
 9291TIP3    H249289   6.340   1.951  16.656 -1.3267  1.1063  1.0665
 9292TIP3   OH249290   1.635   0.334  11.033  0.1371 -0.0851 -0.0860
 9292TIP3    H149291   1.684   0.274  10.977  1.4640  0.4837  0.4201
 9292TIP3    H249292   1.544   0.313  11.016  0.5477 -1.3649 -0.8705
 9293TIP3   OH249293   6.072   4.169  13.033  0.1327 -0.1664  0.5025
 9293TIP3    H149294   6.111   4.256  13.029 -0.1993 -0.0540 -0.8683
 9293TIP3    H249295   5.998   4.178  13.093  1.9337 -0.3077  2.9102
 9294TIP3   OH249296   0.812   5.571   2.334  0.1309 -0.2939  0.2457
 9294TIP3    H149297   0.747   5.641   2.321  0.1758 -0.2535  0.2385
 9294TIP3    H249298   0.883   5.613   2.382  1.3672  0.3685 -2.0202
 9295TIP3   OH249299   1.121   6.509  14.889 -0.3757  0.1010  0.4120
 9295TIP3    H149300   1.211   6.507  14.859 -0.5220  0.9844 -0.1062
 9295TIP3    H249301   1.126   6.549  14.976 -0.0032 -2.0816  1.4669
 9296TIP3   OH249302   5.670   4.516   4.295 -0.1888 -0.0129  0.2516
 9296TIP3    H149303   5.592   4.571   4.284 -0.1746 -0.1954 -0.8466
 9296TIP3    H249304   5.727   4.567   4.353  0.1375  1.5014 -1.3099
 9297TIP3   OH249305   5.960   5.505   5.431 -0.0595 -0.0183  0.3689
 9297TIP3    H149306   6.027   5.482   5.367  0.3494 -1.7217  1.3503
 9297TIP3    H249307   5.877   5.489   5.387  0.1812  0.6385 -0.3416
 9298TIP3   OH249308   2.728   4.703  16.666  0.2483 -0.2028  0.2479
 9298TIP3    H149309   2.768   4.652  16.596 -0.1360 -0.7028  0.3833
 9298TIP3    H249310   2.645   4.734  16.630  0.3218  0.0353  0.2826
 9299TIP3   OH249311   0.977   0.843   3.951 -0.6653  0.3396 -0.3706
 9299TIP3    H149312   0.885   0.825   3.934 -0.4029 -0.3476 -1.1444
 9299TIP3    H249313   0.984   0.849   4.046 -1.4053 -0.1634 -0.2814
 9300TIP3   OH249314   3.758   1.241  17.224  0.4488 -0.3469  0.0057
 9300TIP3    H149315   3.774   1.287  17.306 -0.0491  0.1315 -0.1608
 9300TIP3    H249316   3.843   1.206  17.199  0.6975 -0.0869  0.4799
 9301TIP3   OH249317   5.443   2.687   1.158  1.2031 -0.1574 -0.0951
 9301TIP3    H149318   5.370   2.747   1.172  1.7808  1.0096 -1.7424
 9301TIP3    H249319   5.414   2.631   1.086  1.3232 -0.7258  0.2972
 9302TIP3   OH249320   0.262   1.902  11.054 -0.4973 -0.3864  0.3047
 9302TIP3    H149321   0.240   1.810  11.038 -1.8082 -0.0645  0.1188
 9302TIP3    H249322   0.188   1.951  11.017 -0.8893  0.6420  2.2853
 9303TIP3   OH249323   0.579   4.632  15.307 -0.2693 -0.6657 -0.5653
 9303TIP3    H149324   0.620   4.607  15.224  0.6226 -0.9285 -0.0619
 9303TIP3    H249325   0.649   4.674  15.357  0.4897 -4.2606  1.7512
 9304TIP3   OH249326   0.126   5.672  10.812  0.4796 -0.2163 -0.3221
 9304TIP3    H149327   0.203   5.697  10.863  0.4733 -0.2572 -0.2924
 9304TIP3    H249328   0.108   5.748  10.756  0.1150  0.0668  0.1785
 9305TIP3   OH249329   2.964   4.762  17.021  0.4221  0.2295 -0.1331
 9305TIP3    H149330   3.027   4.755  17.093  0.3800  1.6667  0.0738
 9305TIP3    H249331   2.890   4.709  17.049  0.5059  0.5774  0.7944
 9306TIP3   OH249332   2.467   1.568   3.932 -0.4303 -0.3128 -0.3552
 9306TIP3    H149333   2.537   1.634   3.936  0.1503 -0.9751  1.2646
 9306TIP3    H249334   2.391   1.616   3.898 -0.3181  1.5027  1.7299
 9307TIP3   OH249335   3.842   2.520   5.824 -0.0302  1.3467  0.5955
 9307TIP3    H149336   3.794   2.591   5.866 -1.4135  0.4060  0.6367
 9307TIP3    H249337   3.877   2.468   5.896 -0.1498  1.2329  0.5713
 9308TIP3   OH249338   2.671   4.396  12.135  0.0591  0.0166  0.2352
 9308TIP3    H149339   2.700   4.311  12.169 -0.9242 -0.2513  0.4443
 9308TIP3    H249340   2.699   4.396  12.044 -0.2946 -0.7201  0.1201
 9309TIP3   OH249341   0.466   3.050  16.035 -0.2132  0.3915  0.1260
 9309TIP3    H149342   0.394   3.055  15.972  0.4406  1.4738 -0.5683
 9309TIP3    H249343   0.428   3.007  16.112 -1.5514  0.7928 -0.2804
 9310TIP3   OH249344   1.521   0.205  11.254  0.5592 -0.0598 -0.2182
 9310TIP3    H149345   1.606   0.233  11.222 -0.5543  2.0953 -1.5122
 9310TIP3    H249346   1.467   0.197  11.175 -0.5331 -1.0798  0.5968
 9311TIP3   OH249347   1.224   6.652   4.052  0.3021  0.0679  0.2160
 9311TIP3    H149348   1.294   6.628   4.112 -1.1545 -1.0949  1.5562
 9311TIP3    H249349   1.156   6.689   4.109 -0.2058  1.1588 -1.0322
 9312TIP3   OH249350   6.377   1.355   2.064 -0.5660 -0.1738  0.2370
 9312TIP3    H149351   6.358   1.279   2.120  0.7079 -0.2584  0.5949
 9312TIP3    H249352   6.472   1.351   2.050 -0.4926  1.2766  0.1471
 9313TIP3   OH249353   2.492   0.783   6.031 -0.0182  0.0815  0.7217
 9313TIP3    H149354   2.458   0.775   5.942  0.8232  0.5216  0.3428
 9313TIP3    H249355   2.414   0.785   6.086 -0.5785  0.3879 -0.0549
 9314TIP3   OH249356   6.685   4.632  15.838  0.0420 -0.0142  0.3000
 9314TIP3    H149357   6.664   4.711  15.788 -2.3606 -0.2185  0.8721
 9314TIP3    H249358   6.746   4.663  15.906  0.0550  1.1043 -0.1915
 9315TIP3   OH249359   3.130   5.027   1.679  0.1387  0.4663  0.1474
 9315TIP3    H149360   3.075   4.969   1.732  0.5087 -1.6585 -1.6923
 9315TIP3    H249361   3.169   5.087   1.743  0.3225 -1.7655  2.2633
 9316TIP3   OH249362   3.937   3.722  13.788 -0.0471 -0.1392 -0.3071
 9316TIP3    H149363   3.925   3.628  13.774 -1.2847  0.0656 -0.7885
 9316TIP3    H249364   3.993   3.728  13.865 -1.8601 -1.2717  1.1812
 9317TIP3   OH249365   2.870   1.428  11.826  0.1561  0.4391  0.4064
 9317TIP3    H149366   2.886   1.506  11.879 -0.1397  1.4775 -0.9832
 9317TIP3    H249367   2.957   1.403  11.794  0.4422 -0.5902  1.8206
 9318TIP3   OH249368   4.727   3.118   0.717  0.2221 -0.4132 -0.0861
 9318TIP3    H149369   4.756   3.174   0.789 -1.0229  2.8663 -1.9211
 9318TIP3    H249370   4.768   3.155   0.639 -1.6521 -1.2775 -1.5773
 9319TIP3   OH249371   2.979   5.665   1.339 -0.0228 -0.6166  0.0170
 9319TIP3    H149372   2.966   5.673   1.434 -0.6182  3.6004 -0.1929
 9319TIP3    H249373   3.073   5.672   1.327 -0.1052  2.8557  0.3147
 9320TIP3   OH249374   1.912   5.804   3.297  0.0248 -0.9466  0.3560
 9320TIP3    H149375   1.999   5.814   3.257 -0.2672 -1.3548 -0.4008
 9320TIP3    H249376   1.857   5.867   3.250 -0.0904 -0.6811  0.8423
 9321TIP3   OH249377   2.198   5.616   3.125  0.7108  0.1910 -0.9878
 9321TIP3    H149378   2.142   5.690   3.102  0.0699 -0.6882 -2.4140
 9321TIP3    H249379   2.277   5.656   3.161 -0.6753  1.4800  0.8562
 9322TIP3   OH249380   4.041   1.154   3.408  0.0570  0.4031  0.0859
 9322TIP3    H149381   4.050   1.107   3.326  0.8989  2.7576 -1.2810
 9322TIP3    H249382   4.104   1.227   3.401 -1.6651  2.1704  1.7005
 9323TIP3   OH249383   0.618   5.996   2.409 -0.3657  0.3786  0.3476
 9323TIP3    H149384   0.592   5.955   2.327  0.4588  0.6478 -0.0546
 9323TIP3    H249385   0.649   6.083   2.384  4.3690 -1.0634  0.2028
 9324TIP3   OH249386   1.376   0.009  10.740  0.1247 -0.3681 -0.1817
 9324TIP3    H149387   1.427  -0.005  10.820 -0.9602 -0.8437  0.4493
 9324TIP3    H249388   1.366   0.104  10.734  0.9712 -0.2683 -0.2685
 9325TIP3   OH249389   5.098   2.850  14.998  0.2213 -0.3644  0.0742
 9325TIP3    H149390   5.161   2.921  15.002  0.6076 -0.6704 -0.5441
 9325TIP3    H249391   5.014   2.891  15.018  0.5860  0.0740  0.7279
 9326TIP3   OH249392   6.407   3.016  15.541 -0.2936 -0.2549 -0.1749
 9326TIP3    H149393   6.425   2.922  15.551 -0.7981 -0.2016  1.6844
 9326TIP3    H249394   6.484   3.059  15.579  0.3406  0.1167 -1.8337
 9327TIP3   OH249395   0.010   4.326  16.351 -0.2681  0.4462  0.0091
 9327TIP3    H149396   0.007   4.411  16.308 -0.7844  0.5758  0.2904
 9327TIP3    H249397  -0.011   4.345  16.443  2.0551  0.3562  0.6167
 9328TIP3   OH249398   2.802   4.704   0.775 -0.2643 -0.2669  0.6376
 9328TIP3    H149399   2.884   4.696   0.825 -0.6005 -0.4619  1.1651
 9328TIP3    H249400   2.825   4.672   0.687  0.3705  0.2091  0.6199
 9329TIP3   OH249401   4.956   2.203  13.571 -0.0847 -0.2547  0.3759
 9329TIP3    H149402   4.869   2.212  13.610 -0.1549 -0.9638  0.4073
 9329TIP3    H249403   4.990   2.292  13.567 -1.1399  0.1325 -0.4101
 9330TIP3   OH249404   5.633   3.440  15.979 -0.2905  0.0687 -0.2942
 9330TIP3    H149405   5.595   3.497  16.047 -0.8466 -1.2071  0.4952
 9330TIP3    H249406   5.718   3.480  15.959 -1.1544  1.8688 -0.6624
 9331TIP3   OH249407   2.927   3.409   4.409 -0.1513 -0.5736 -0.4014
 9331TIP3    H149408   2.992   3.456   4.358 -0.3286 -1.2079 -1.2381
 9331TIP3    H249409   2.849   3.464   4.405 -0.5241 -1.1519 -1.8293
 9332TIP3   OH249410   4.092   2.869   1.455  0.0871 -0.1713 -0.0942
 9332TIP3    H149411   4.185   2.890   1.463 -0.1867  1.1956 -0.2955
 9332TIP3    H249412   4.073   2.811   1.529  1.4226 -1.7263 -0.9023
 9333TIP3   OH249413   6.151   3.422   1.947  0.6004  0.0824  0.0851
 9333TIP3    H149414   6.142   3.362   1.873  1.5441 -0.7096  0.5871
 9333TIP3    H249415   6.158   3.509   1.907 -2.0384  0.0641 -0.6130
 9334TIP3   OH249416   2.835   1.561  14.650 -0.8910  0.1733  0.0750
 9334TIP3    H149417   2.770   1.504  14.691  0.4903 -1.0430  0.6695
 9334TIP3    H249418   2.800   1.649  14.662 -2.4758 -0.4457  0.2647
 9335TIP3   OH249419   4.096   6.159   2.678  0.2128  0.4256  0.0304
 9335TIP3    H149420   4.100   6.088   2.743 -0.2515  2.3554  2.3328
 9335TIP3    H249421   4.169   6.216   2.701 -0.0422  1.2345 -1.0898
 9336TIP3   OH249422   0.546   4.709   4.184  0.1681 -0.4883  0.9919
 9336TIP3    H149423   0.619   4.757   4.224  0.7616  1.6104 -2.2465
 9336TIP3    H249424   0.586   4.633   4.144  0.6335  0.5276 -0.5615
 9337TIP3   OH249425   6.067   4.679   0.363  0.2854 -0.4338 -0.0007
 9337TIP3    H149426   5.986   4.710   0.403 -0.2683 -0.3610 -1.1526
 9337TIP3    H249427   6.043   4.596   0.322  0.6072 -0.0484 -0.9861
 9338TIP3   OH249428   1.162   0.204   1.222 -0.5998 -0.1225  0.2801
 9338TIP3    H149429   1.237   0.235   1.273 -1.3986  0.7442  0.9604
 9338TIP3    H249430   1.180   0.111   1.207 -0.1650 -0.3159  1.8217
 9339TIP3   OH249431   5.763   5.006   1.223  0.3670 -0.4575  0.7345
 9339TIP3    H149432   5.668   4.997   1.216  0.3120  0.2473  0.5351
 9339TIP3    H249433   5.776   5.043   1.310  0.2939  1.6593 -0.1113
 9340TIP3   OH249434   4.535   2.806   0.097  0.7746  0.5795 -0.4153
 9340TIP3    H149435   4.585   2.725   0.085 -0.9355 -0.5380 -0.3092
 9340TIP3    H249436   4.542   2.824   0.191 -0.0288 -0.2735 -0.1803
 9341TIP3   OH249437   5.762   5.059   5.862  0.1568 -0.6287  0.0724
 9341TIP3    H149438   5.821   5.129   5.891 -1.0598  0.2339  0.5787
 9341TIP3    H249439   5.695   5.104   5.810 -0.7416 -1.3778  0.5519
 9342TIP3   OH249440   5.751   5.941   5.044 -0.2505 -0.1701  0.7762
 9342TIP3    H149441   5.806   5.863   5.035 -0.9562 -0.5607 -0.4303
 9342TIP3    H249442   5.705   5.928   5.127 -0.2255 -0.9636  0.6805
 9343TIP3   OH249443   6.692   2.424  16.637 -0.3133  0.0668  0.1108
 9343TIP3    H149444   6.724   2.420  16.728 -0.5720  0.6324  0.2267
 9343TIP3    H249445   6.700   2.516  16.613 -1.0939  0.0736 -0.1376
 9344TIP3   OH249446   1.105   3.233  16.653 -0.1478 -0.5576 -0.1349
 9344TIP3    H149447   1.166   3.299  16.618  2.1581 -2.4736 -0.0090
 9344TIP3    H249448   1.031   3.235  16.592  0.5466  1.0632 -1.0081
 9345TIP3   OH249449   3.897   5.419  13.144  0.2386  0.4868  0.1910
 9345TIP3    H149450   3.862   5.384  13.062  0.2108 -0.1722  0.4772
 9345TIP3    H249451   3.991   5.423  13.131  0.5667 -2.2417  1.0574
 9346TIP3   OH249452   4.302   4.378  15.172  0.3195  0.5108  0.4304
 9346TIP3    H149453   4.341   4.454  15.216  0.2878  0.1264  1.1411
 9346TIP3    H249454   4.243   4.415  15.107 -2.6469  1.2074  3.2683
 9347TIP3   OH249455   5.142   5.641  16.342 -0.2043 -0.1829 -0.6730
 9347TIP3    H149456   5.130   5.562  16.394  0.2811  0.6191  0.7181
 9347TIP3    H249457   5.074   5.701  16.374  2.2189  1.5691  1.6286
 9348TIP3   OH249458   0.736   4.473   6.411 -0.1137 -0.0380  0.1141
 9348TIP3    H149459   0.803   4.415   6.375  1.0546 -0.3792  2.5847
 9348TIP3    H249460   0.783   4.556   6.425 -1.4307  1.1882 -2.1958
 9349TIP3   OH249461   4.108   5.205  13.942 -0.1675  0.2559  0.0491
 9349TIP3    H149462   4.145   5.121  13.914  0.6617  0.5697  0.2035
 9349TIP3    H249463   4.149   5.270  13.886  0.4881  0.7454  1.0691
 9350TIP3   OH249464   4.117   3.908  10.585  0.4209 -0.0446 -0.6103
 9350TIP3    H149465   4.178   3.979  10.607 -0.6688  1.2274 -1.5291
 9350TIP3    H249466   4.165   3.855  10.520  0.7480  0.6360 -0.9339
 9351TIP3   OH249467   5.689   4.900  15.163 -0.7921 -0.3101 -0.2504
 9351TIP3    H149468   5.767   4.870  15.209 -0.3385  1.0866 -0.0343
 9351TIP3    H249469   5.702   4.995  15.155 -2.1838 -0.1432 -0.7610
 9352TIP3   OH249470   5.494   2.600   6.720 -0.2453  0.0265  0.3585
 9352TIP3    H149471   5.439   2.571   6.793 -0.7484 -0.2485 -0.1224
 9352TIP3    H249472   5.448   2.676   6.684  0.7246  1.0251  1.1963
 9353TIP3   OH249473   2.253   2.071   5.540 -0.7029  0.3005 -0.1417
 9353TIP3    H149474   2.262   2.055   5.446 -1.0362  1.6289 -0.4183
 9353TIP3    H249475   2.199   2.150   5.546  0.5108  1.0789  1.1267
 9354TIP3   OH249476   1.590   5.747   2.225 -0.4245  0.2365 -0.4107
 9354TIP3    H149477   1.507   5.716   2.258  0.0649 -0.7829 -0.1005
 9354TIP3    H249478   1.619   5.812   2.289 -0.6072  0.0237 -0.1129
 9355TIP3   OH249479   4.991   2.016   5.623 -0.6917 -0.2571 -0.3331
 9355TIP3    H149480   5.060   1.998   5.687 -0.9847  1.6902  0.6052
 9355TIP3    H249481   5.038   2.049   5.546 -0.4991  0.0237 -0.0989
 9356TIP3   OH249482   2.375   1.358  13.462  0.2748  0.3492  0.1750
 9356TIP3    H149483   2.459   1.372  13.506  0.7032 -1.0141 -0.1516
 9356TIP3    H249484   2.326   1.301  13.522 -0.4543  1.1777  0.3863
 9357TIP3   OH249485   1.342   0.061   5.947  0.8749 -0.7922  0.6885
 9357TIP3    H149486   1.398   0.066   5.869 -1.9092  1.5174 -1.3929
 9357TIP3    H249487   1.269   0.005   5.920 -0.6626  0.8827  1.1479
 9358TIP3   OH249488   4.527   1.297   2.265 -0.1036  0.1620 -0.2266
 9358TIP3    H149489   4.577   1.370   2.228 -2.4595  1.2664 -1.4944
 9358TIP3    H249490   4.542   1.225   2.203 -0.1338  0.5064 -0.6446
 9359TIP3   OH249491   0.800   0.616   1.823  0.0298  0.2094 -0.2662
 9359TIP3    H149492   0.805   0.532   1.869 -0.2314 -0.7368 -1.8823
 9359TIP3    H249493   0.889   0.651   1.826  0.0318  0.1264  0.8554
 9360TIP3   OH249494   0.086   3.922  12.910  0.1611  0.6461 -0.8139
 9360TIP3    H149495   0.044   3.862  12.849 -1.2498 -1.8953  2.3268
 9360TIP3    H249496   0.159   3.872  12.947  1.5616  2.4276 -0.9920
 9361TIP3   OH249497   2.938   6.210   1.876  0.7271  0.3063  0.4411
 9361TIP3    H149498   2.957   6.233   1.967 -1.5796 -1.3940  1.4545
 9361TIP3    H249499   2.928   6.295   1.832 -0.3629  1.2147  2.3139
 9362TIP3   OH249500   4.185   3.039   0.759 -0.1233 -0.0541 -0.6329
 9362TIP3    H149501   4.105   3.015   0.713  0.1942 -2.2096 -0.2058
 9362TIP3    H249502   4.211   2.958   0.804  0.6509  1.3839  1.6931
 9363TIP3   OH249503   0.567   1.187  16.488 -0.4999 -0.3962  0.2099
 9363TIP3    H149504   0.531   1.217  16.572  0.7909 -0.5984  0.8679
 9363TIP3    H249505   0.602   1.099  16.507 -0.0362 -0.3729 -0.4892
 9364TIP3   OH249506   4.609   4.939   3.668  0.2642 -0.6078 -0.4821
 9364TIP3    H149507   4.636   4.865   3.722 -1.8873  0.2104  1.9359
 9364TIP3    H249508   4.670   5.009   3.690  0.8535 -0.9640 -0.9648
 9365TIP3   OH249509   5.595   5.268  15.341  0.5843  0.2514  0.6856
 9365TIP3    H149510   5.586   5.350  15.390 -1.9484 -0.8584  2.2747
 9365TIP3    H249511   5.658   5.217  15.392  0.2783  0.2851  1.1081
 9366TIP3   OH249512   6.469   5.970   1.768  0.5672 -0.0979  0.5730
 9366TIP3    H149513   6.453   5.911   1.694 -1.3453 -0.5066  1.2503
 9366TIP3    H249514   6.390   5.963   1.822  1.1443  1.5672  1.7265
 9367TIP3   OH249515   0.198   0.547  11.423 -0.0410  0.0727  0.5364
 9367TIP3    H149516   0.149   0.616  11.378 -0.2500 -0.7320 -0.5042
 9367TIP3    H249517   0.180   0.561  11.516 -1.4288  0.4000  0.2299
 9368TIP3   OH249518   2.821   1.093  12.967  0.4838  0.0402 -0.4910
 9368TIP3    H149519   2.915   1.112  12.960  0.8439 -0.7876  1.3330
 9368TIP3    H249520   2.798   1.120  13.056 -0.8458 -0.4398 -0.6641
 9369TIP3   OH249521   0.223   2.879   4.129  0.1487  0.0899  0.5667
 9369TIP3    H149522   0.217   2.953   4.068  0.3189 -0.6899 -0.4188
 9369TIP3    H249523   0.262   2.916   4.208  1.5979  0.7615 -0.4306
 9370TIP3   OH249524   5.961   2.695   6.585 -0.5861  0.2515 -0.3031
 9370TIP3    H149525   6.026   2.659   6.645 -0.0939 -0.8810 -1.4770
 9370TIP3    H249526   5.990   2.785   6.571  0.4989 -0.1087 -0.4798
 9371TIP3   OH249527   0.154   5.641  13.106 -0.3734  0.1735 -0.1452
 9371TIP3    H149528   0.143   5.634  13.011 -1.2246 -0.9093  0.0198
 9371TIP3    H249529   0.225   5.581  13.127  1.2074  1.8771 -0.3035
 9372TIP3   OH249530   6.290   2.660   5.415 -0.0077  0.1837  0.1722
 9372TIP3    H149531   6.350   2.735   5.415 -0.8768  0.8926 -0.1339
 9372TIP3    H249532   6.270   2.646   5.508  0.4883  0.0469  0.2645
 9373TIP3   OH249533   0.054   3.772   1.575 -0.6502 -0.2250  0.0858
 9373TIP3    H149534   0.110   3.810   1.507  0.1224 -2.0442 -0.3554
 9373TIP3    H249535   0.114   3.756   1.649 -0.7268 -1.4548 -0.1008
 9374TIP3   OH249536   6.379   4.460  12.516  0.2007 -0.2708  0.4796
 9374TIP3    H149537   6.382   4.438  12.423 -2.2449  0.1103  0.2331
 9374TIP3    H249538   6.436   4.395  12.558  2.6658  0.5232 -1.3635
 9375TIP3   OH249539   3.935   3.395   1.909 -0.3075 -0.5500 -0.1606
 9375TIP3    H149540   4.022   3.419   1.875  0.6954 -0.1350  2.4908
 9375TIP3    H249541   3.892   3.354   1.834  1.0758  1.7638 -2.4422
 9376TIP3   OH249542   2.236   1.895  13.244  0.1587 -0.0809  0.0766
 9376TIP3    H149543   2.301   1.958  13.273  0.0666  0.5971 -1.1192
 9376TIP3    H249544   2.158   1.947  13.225  0.0427 -0.5451 -0.7987
 9377TIP3   OH249545   5.395   6.043  13.000  0.1827  0.1373 -0.2855
 9377TIP3    H149546   5.469   6.058  13.058  0.3371  0.3837 -0.5421
 9377TIP3    H249547   5.366   6.131  12.975 -0.6403  0.0720  0.3659
 9378TIP3   OH249548   1.190   5.821   3.674  0.0243  0.2614  0.1988
 9378TIP3    H149549   1.211   5.809   3.582  0.0903  1.0391  0.1057
 9378TIP3    H249550   1.170   5.914   3.682 -1.4415 -0.0699  0.6816
 9379TIP3   OH249551   2.401   1.654   3.620 -0.1729  0.7242 -0.0708
 9379TIP3    H149552   2.349   1.685   3.695 -0.6173  0.7142 -0.3714
 9379TIP3    H249553   2.403   1.729   3.560  0.1033  0.7006 -0.0924
 9380TIP3   OH249554   1.653   0.283   4.873  1.2434 -0.0833  0.5281
 9380TIP3    H149555   1.576   0.274   4.817  1.1020 -1.2517  0.8943
 9380TIP3    H249556   1.718   0.325   4.817 -0.0173  2.1122  0.5688
 9381TIP3   OH249557   6.456   4.126   0.270 -0.6486  0.2621  0.4441
 9381TIP3    H149558   6.362   4.147   0.266 -0.2053  2.2457 -1.3505
 9381TIP3    H249559   6.498   4.196   0.220  1.6556 -1.5472 -0.2918
 9382TIP3   OH249560   4.674   3.248   4.250  0.2416 -0.0360  0.4243
 9382TIP3    H149561   4.691   3.267   4.342  3.1775 -0.8624  0.1745
 9382TIP3    H249562   4.729   3.310   4.202  0.8969 -1.3856 -0.6454
 9383TIP3   OH249563   2.363   3.518   5.403 -0.4070  0.0768 -0.6121
 9383TIP3    H149564   2.293   3.464   5.438 -1.6785  0.5274 -2.3032
 9383TIP3    H249565   2.320   3.576   5.340  1.0316  2.4517  0.4378
 9384TIP3   OH249566   3.000   5.176  12.242 -0.3589  0.1473 -0.4285
 9384TIP3    H149567   3.000   5.270  12.225 -0.1577  0.0713 -0.8373
 9384TIP3    H249568   2.959   5.168  12.328  0.0253  0.6423 -0.1949
 9385TIP3   OH249569   5.036   4.838   3.094  0.1970 -1.1450 -0.0964
 9385TIP3    H149570   5.052   4.927   3.126  2.0084 -1.5365  0.1951
 9385TIP3    H249571   4.951   4.814   3.131  0.2407  0.0123  0.8189
 9386TIP3   OH249572   2.075   3.831   0.288 -0.5344  0.2520  0.0028
 9386TIP3    H149573   2.077   3.902   0.353 -2.6228  1.7815 -1.4457
 9386TIP3    H249574   2.004   3.774   0.317  1.2227 -1.4112  1.2288
 9387TIP3   OH249575   3.058   4.253   5.329 -0.1681 -0.3907  0.2326
 9387TIP3    H149576   3.118   4.314   5.371 -0.0826  0.1120 -0.6061
 9387TIP3    H249577   3.093   4.166   5.350  0.4282 -0.1196  0.3686
 9388TIP3   OH249578   4.227   2.252   5.471 -0.1041  0.0801 -0.0005
 9388TIP3    H149579   4.169   2.320   5.437 -1.0304 -0.8412 -0.3149
 9388TIP3    H249580   4.202   2.242   5.563  0.4620  0.5883  0.2157
 9389TIP3   OH249581   4.820   3.533   3.660 -0.3599 -0.2750 -0.0438
 9389TIP3    H149582   4.906   3.530   3.702  0.1203 -0.3513 -1.0023
 9389TIP3    H249583   4.838   3.516   3.568 -1.3267  0.3914 -0.3749
 9390TIP3   OH249584   5.905   4.323   1.854 -0.0695  0.4568 -0.6041
 9390TIP3    H149585   5.867   4.335   1.940  1.0392  1.2692 -0.1961
 9390TIP3    H249586   5.904   4.410   1.815  1.0125  0.4395 -0.7103
 9391TIP3   OH249587   3.266   4.545   2.273  0.8368  0.1992 -0.1326
 9391TIP3    H149588   3.229   4.620   2.227  2.0555  1.1654  0.4005
 9391TIP3    H249589   3.253   4.471   2.214 -0.7929  0.7283 -0.4732
 9392TIP3   OH249590   4.011   1.500  13.272  0.4352  0.5432  0.1952
 9392TIP3    H149591   4.075   1.445  13.318  2.1219  3.6458  1.9193
 9392TIP3    H249592   3.956   1.536  13.341  1.6718  3.6857 -0.2878
 9393TIP3   OH249593   3.828   6.778   0.779 -0.6639  0.5089  0.0795
 9393TIP3    H149594   3.803   6.870   0.778  0.6605  0.8902 -0.2522
 9393TIP3    H249595   3.809   6.747   0.690 -0.0429  0.7770 -0.1507
 9394TIP3   OH249596   0.898   4.493  12.650  0.2248 -0.5122  0.4642
 9394TIP3    H149597   0.963   4.464  12.714 -0.1193  0.8372  1.4823
 9394TIP3    H249598   0.926   4.581  12.625 -1.2469  0.1478  1.0248
 9395TIP3   OH249599   5.297   2.061   6.462  0.2648 -0.8917  0.3015
 9395TIP3    H149600   5.262   2.078   6.375  0.9720  1.2449  0.3804
 9395TIP3    H249601   5.246   2.117   6.520  1.8206  0.0692  0.8106
 9396TIP3   OH249602   4.669   5.723   4.104  0.6903  1.0160  0.1943
 9396TIP3    H149603   4.728   5.648   4.093  0.0986  0.0180  3.0093
 9396TIP3    H249604   4.599   5.709   4.041  0.5517 -0.8983  0.7178
 9397TIP3   OH249605   5.193   4.132   3.187  0.5109 -0.5616 -0.3916
 9397TIP3    H149606   5.121   4.144   3.126  0.2653 -0.1797 -0.0305
 9397TIP3    H249607   5.187   4.207   3.247  0.1154 -1.4828  0.7477
 9398TIP3   OH249608   0.102   2.672  15.801  0.3849 -0.3775  0.1594
 9398TIP3    H149609   0.021   2.644  15.845  0.2899  0.6544  0.6622
 9398TIP3    H249610   0.145   2.728  15.865  1.2666 -0.5242 -0.3029
 9399TIP3   OH249611   3.471   6.758  12.812 -0.9240 -0.2535 -0.2581
 9399TIP3    H149612   3.443   6.673  12.844 -2.2082  0.1934 -0.1488
 9399TIP3    H249613   3.398   6.817  12.832 -0.6225  0.6037 -1.5454
 9400TIP3   OH249614   5.160   2.563  11.416  0.2284  0.8265  0.2121
 9400TIP3    H149615   5.159   2.471  11.389 -2.4257  1.2068 -1.3668
 9400TIP3    H249616   5.161   2.612  11.334  0.2979  2.2027  1.0041
 9401TIP3   OH249617   5.326   5.647  10.441 -0.4829 -0.5425 -0.8289
 9401TIP3    H149618   5.338   5.741  10.456 -0.1053 -0.2941 -2.5387
 9401TIP3    H249619   5.243   5.626  10.486  0.2262  0.2313  0.9357
 9402TIP3   OH249620   2.180   1.427   4.988 -0.2126  0.0444 -0.0640
 9402TIP3    H149621   2.250   1.420   4.922 -0.0271  1.1634 -0.0006
 9402TIP3    H249622   2.100   1.430   4.936  0.0408  3.0380 -0.4174
 9403TIP3   OH249623   3.030   2.595  16.350 -0.4289 -0.2298  0.0836
 9403TIP3    H149624   3.065   2.587  16.439  0.8704 -0.3194 -0.4093
 9403TIP3    H249625   3.097   2.554  16.295 -0.6811  0.8220 -1.0476
 9404TIP3   OH249626   5.319   6.313  13.367  0.0946 -0.1249 -0.0358
 9404TIP3    H149627   5.303   6.219  13.371  1.3796 -0.3973 -0.9031
 9404TIP3    H249628   5.287   6.346  13.451 -1.0524 -1.2085 -0.0107
 9405TIP3   OH249629   6.120   1.521   3.425  1.2170  0.3115 -0.0445
 9405TIP3    H149630   6.167   1.440   3.442  2.1452  0.8305 -0.0698
 9405TIP3    H249631   6.089   1.549   3.511 -2.0318 -1.7549 -0.3965
 9406TIP3   OH249632   2.269   5.939  12.499 -0.1377  0.2902 -0.6810
 9406TIP3    H149633   2.202   6.005  12.484  1.2390  2.0190  0.4573
 9406TIP3    H249634   2.299   5.953  12.589  3.5609  1.3939 -1.8736
 9407TIP3   OH249635   4.506   0.933  14.023  0.4115 -0.0320  0.0767
 9407TIP3    H149636   4.552   0.849  14.016  0.7014 -0.0988  2.1296
 9407TIP3    H249637   4.414   0.912  14.004  0.5714 -0.6876  0.0171
 9408TIP3   OH249638   2.483   4.340  14.667 -0.0588 -0.0114 -0.0642
 9408TIP3    H149639   2.443   4.287  14.736  0.4590 -0.4217 -0.0690
 9408TIP3    H249640   2.564   4.294  14.646 -0.0136  0.3309 -0.6654
 9409TIP3   OH249641   2.635   4.561   3.564 -0.4719 -0.4383 -0.6003
 9409TIP3    H149642   2.656   4.540   3.655 -0.6261 -0.0338 -0.4690
 9409TIP3    H249643   2.718   4.553   3.517 -0.5754 -1.5939 -0.6028
 9410TIP3   OH249644   1.127   6.027   1.455 -0.5518 -0.0335 -0.4190
 9410TIP3    H149645   1.191   6.091   1.484 -1.7378  0.0749  2.3030
 9410TIP3    H249646   1.063   6.077   1.405 -1.1089  0.8268  1.1082
 9411TIP3   OH249647   1.132   2.746   5.083  0.3768 -0.1724 -0.0832
 9411TIP3    H149648   1.179   2.711   5.008  0.4554  0.5363 -0.3668
 9411TIP3    H249649   1.200   2.781   5.140  0.1914  1.4788 -0.8113
 9412TIP3   OH249650   0.309   2.199  11.961 -0.6621 -1.1190  0.1455
 9412TIP3    H149651   0.259   2.176  12.039  0.0642 -2.0770  0.3408
 9412TIP3    H249652   0.259   2.270  11.921 -0.4338  0.2416  2.1172
 9413TIP3   OH249653   6.353   0.974   0.524 -0.1650  0.6793  0.1624
 9413TIP3    H149654   6.289   0.956   0.592 -3.0630 -0.2108 -2.5745
 9413TIP3    H249655   6.417   0.903   0.531 -2.1115 -1.1671  0.0834
 9414TIP3   OH249656   0.671   0.922   4.390  0.2771 -0.6706  0.2795
 9414TIP3    H149657   0.694   1.007   4.427  0.3160 -0.4374 -0.2745
 9414TIP3    H249658   0.658   0.866   4.466 -1.7623  0.3313  0.7460
 9415TIP3   OH249659   1.249   6.227   1.588 -0.3562 -0.6813 -0.0073
 9415TIP3    H149660   1.338   6.241   1.620  0.0519 -0.1835 -1.2866
 9415TIP3    H249661   1.215   6.315   1.574  0.1587 -0.8129 -2.6312
 9416TIP3   OH249662   2.862   6.353  12.965  0.3362  0.4526  0.6375
 9416TIP3    H149663   2.850   6.417  12.895 -2.7429 -0.3721  0.2772
 9416TIP3    H249664   2.836   6.399  13.044 -0.8048  0.0029  0.5341
 9417TIP3   OH249665   4.764   0.571   4.322  0.9649  0.0296 -0.7106
 9417TIP3    H149666   4.730   0.496   4.370  2.0421 -0.6125 -0.9264
 9417TIP3    H249667   4.755   0.546   4.230  2.9515 -0.6033 -0.7661
 9418TIP3   OH249668   4.860   4.802  12.502  0.2617  0.0577 -1.0502
 9418TIP3    H149669   4.816   4.869  12.554  0.2330 -0.1079 -0.8623
 9418TIP3    H249670   4.898   4.742  12.566  0.8058  0.2287 -1.2100
 9419TIP3   OH249671   5.235   2.618  13.275  0.7287 -0.2346 -0.4771
 9419TIP3    H149672   5.163   2.571  13.232  1.0671  0.3136 -1.6787
 9419TIP3    H249673   5.284   2.658  13.204  1.7167  0.1465  0.3890
 9420TIP3   OH249674   0.456   3.242  11.957  0.0555  0.0731  0.1601
 9420TIP3    H149675   0.452   3.275  11.867  0.0985  0.9276  0.4634
 9420TIP3    H249676   0.483   3.151  11.948 -0.5839 -0.0398 -0.7287
 9421TIP3   OH249677   1.971   0.211   0.156  0.0210 -0.3172  0.0952
 9421TIP3    H149678   1.903   0.147   0.176 -1.0821  0.7634 -0.0144
 9421TIP3    H249679   2.022   0.217   0.236  1.9581 -3.3550 -0.7633
 9422TIP3   OH249680   1.344   6.401  15.840 -0.0780  0.3820  0.2673
 9422TIP3    H149681   1.325   6.422  15.932  0.3122  1.2180  0.1638
 9422TIP3    H249682   1.258   6.399  15.798 -0.1803  0.9576  0.4482
 9423TIP3   OH249683   3.001   5.247  14.349  0.1751  0.6566 -0.6349
 9423TIP3    H149684   3.059   5.281  14.418 -0.4704  0.3898  0.0586
 9423TIP3    H249685   3.059   5.228  14.276  0.6953  2.3900 -0.7232
 9424TIP3   OH249686   3.973   1.572  16.199 -0.3942 -0.3435  0.0659
 9424TIP3    H149687   3.944   1.637  16.262 -0.5056  0.6715 -0.9937
 9424TIP3    H249688   3.895   1.551  16.147 -0.5856 -2.0273  0.9532
 9425TIP3   OH249689   4.312   0.983  16.271  0.3583 -0.1209  0.0866
 9425TIP3    H149690   4.225   0.958  16.240  0.5009 -1.2173  0.5268
 9425TIP3    H249691   4.372   0.926  16.222  0.6396 -1.2416  1.6637
 9426TIP3   OH249692   3.739   5.671   3.001 -0.0032  0.0992  0.2401
 9426TIP3    H149693   3.833   5.654   2.995  0.5716  2.8855 -0.1330
 9426TIP3    H249694   3.721   5.673   3.095 -0.0357 -1.8389  0.3064
 9427TIP3   OH249695   1.587   2.759   2.031  0.3353  0.0384 -0.9587
 9427TIP3    H149696   1.542   2.736   1.949  1.5438 -1.1611 -1.3252
 9427TIP3    H249697   1.669   2.800   2.002  0.4449  0.2625 -0.3371
 9428TIP3   OH249698   2.116   3.767   6.739 -0.8280 -0.2349  0.4056
 9428TIP3    H149699   2.184   3.701   6.725 -0.6566 -0.3058  1.5470
 9428TIP3    H249700   2.162   3.842   6.777 -1.5033 -0.6266  2.0796
 9429TIP3   OH249701   5.024   4.231   6.473  0.8583  0.5700 -0.4674
 9429TIP3    H149702   5.080   4.264   6.543  0.1353  1.0646 -0.0995
 9429TIP3    H249703   5.060   4.146   6.451 -1.0642 -1.4148  3.1650
 9430TIP3   OH249704   6.518   2.788   6.545 -0.2106 -0.7594  0.3258
 9430TIP3    H149705   6.587   2.801   6.480 -0.8910 -0.4040 -0.3423
 9430TIP3    H249706   6.461   2.721   6.507 -1.2822  0.3041 -0.0405
 9431TIP3   OH249707   2.307   1.070  12.074 -0.2866  0.0262 -0.3972
 9431TIP3    H149708   2.352   1.028  12.147  0.4118 -0.2021 -0.9499
 9431TIP3    H249709   2.282   1.156  12.108 -2.1131 -0.9358  0.8953
 9432TIP3   OH249710   5.159   3.754  15.617  0.4853 -0.3176  0.4807
 9432TIP3    H149711   5.137   3.775  15.708  1.2001 -1.5003  0.9442
 9432TIP3    H249712   5.093   3.801  15.565 -0.2168 -0.0031  1.6255
 9433TIP3   OH249713   1.430   0.545   6.579  0.0955  0.0520 -0.2649
 9433TIP3    H149714   1.461   0.635   6.575 -3.4905  1.3675 -1.2980
 9433TIP3    H249715   1.505   0.493   6.548  1.6302  2.8063 -1.5232
 9434TIP3   OH249716   1.184   2.804  13.185 -0.4776  0.1524  0.2057
 9434TIP3    H149717   1.175   2.709  13.184  0.9521 -0.0100  0.2415
 9434TIP3    H249718   1.204   2.827  13.094 -4.1293  0.8590 -0.5825
 9435TIP3   OH249719   2.364   5.555  12.823 -1.1326  0.0636 -0.0036
 9435TIP3    H149720   2.337   5.494  12.892 -1.5976 -0.9741 -1.0811
 9435TIP3    H249721   2.445   5.518  12.789 -0.9814  0.4981 -0.1251
 9436TIP3   OH249722   1.692   0.065   1.007 -0.0824  0.1251 -0.3443
 9436TIP3    H149723   1.638   0.097   1.080  0.1092  1.1314 -0.6240
 9436TIP3    H249724   1.649  -0.016   0.980 -2.0017  1.3178 -1.1103
 9437TIP3   OH249725   2.576   1.534  11.315 -0.0441 -0.2923 -0.1739
 9437TIP3    H149726   2.598   1.457  11.367 -0.3287 -0.6310 -0.5446
 9437TIP3    H249727   2.483   1.549  11.333  0.3515  0.8674  1.0473
 9438TIP3   OH249728   3.771   2.663   1.218  0.2436  0.2858  0.1290
 9438TIP3    H149729   3.808   2.747   1.247 -1.9272  0.5124  2.5847
 9438TIP3    H249730   3.815   2.598   1.273  0.3492  0.0331 -0.2489
 9439TIP3   OH249731   0.701   3.757   0.784 -0.9239  0.5882 -0.1765
 9439TIP3    H149732   0.794   3.736   0.795 -1.4008 -1.5211  0.1979
 9439TIP3    H249733   0.658   3.672   0.777 -2.5799  1.5059 -2.6775
 9440TIP3   OH249734   6.083   2.081  14.571  0.5859  0.0377  0.7131
 9440TIP3    H149735   6.155   2.040  14.618  1.7043 -1.7664 -2.2940
 9440TIP3    H249736   6.116   2.092  14.482 -2.8882 -1.0745 -0.8792
 9441TIP3   OH249737   3.068   3.663   3.712 -0.0896 -0.5832 -0.3201
 9441TIP3    H149738   3.043   3.580   3.751  1.3530 -0.6275  0.6070
 9441TIP3    H249739   3.121   3.640   3.636 -3.4191 -0.5069 -2.8874
 9442TIP3   OH249740   0.803   5.425   3.658 -0.3520 -0.3079 -0.6490
 9442TIP3    H149741   0.756   5.363   3.714 -2.3389  2.4207  0.9445
 9442TIP3    H249742   0.858   5.474   3.719  1.1603 -0.3958 -1.8780
 9443TIP3   OH249743   5.803   6.352   4.255 -0.8833  0.1662 -0.1994
 9443TIP3    H149744   5.766   6.438   4.237  0.5965  0.4900 -2.0061
 9443TIP3    H249745   5.881   6.370   4.308 -0.0839  0.0620 -1.2995
 9444TIP3   OH249746   4.732   4.990  12.245  0.1428  0.5224  0.1746
 9444TIP3    H149747   4.671   4.917  12.259  1.6300 -0.5355  1.4683
 9444TIP3    H249748   4.679   5.059  12.205 -1.4062 -1.1197 -0.7168
 9445TIP3   OH249749   3.193   4.250   2.578  0.3458  0.3708 -0.4728
 9445TIP3    H149750   3.186   4.345   2.583 -0.7109  0.2548  0.7561
 9445TIP3    H249751   3.287   4.233   2.584  0.4213  1.2499  2.5187
 9446TIP3   OH249752   2.259   1.655  10.470  0.0829 -0.9578 -0.2095
 9446TIP3    H149753   2.232   1.570  10.434 -0.9124 -1.4824  1.6578
 9446TIP3    H249754   2.184   1.712  10.456 -1.0746 -1.6552  2.4762
 9447TIP3   OH249755   3.139   5.612  13.562  0.8840 -0.0173 -0.0636
 9447TIP3    H149756   3.124   5.542  13.625  0.4250  0.0012 -0.1485
 9447TIP3    H249757   3.107   5.577  13.479 -0.8711  0.8607  0.1915
 9448TIP3   OH249758   4.469   4.335  11.445  0.5557 -0.4334 -0.1325
 9448TIP3    H149759   4.524   4.399  11.400  0.7693  0.6246  1.5529
 9448TIP3    H249760   4.519   4.309  11.521 -0.0098 -1.7962 -0.2028
 9449TIP3   OH249761   5.866   2.637  11.675 -0.0242  0.3959  0.3158
 9449TIP3    H149762   5.800   2.679  11.620  1.8232  0.1830 -2.2470
 9449TIP3    H249763   5.896   2.562  11.625  1.3327 -0.2121  1.9182
 9450TIP3   OH249764   0.925   5.907  13.629  0.4476  0.0392 -0.9451
 9450TIP3    H149765   0.997   5.937  13.685 -0.5499 -2.4459  1.9600
 9450TIP3    H249766   0.856   5.972  13.642  0.6384  0.0929 -0.1401
 9451TIP3   OH249767   4.010   3.353  16.209 -0.5664 -0.9250 -0.1358
 9451TIP3    H149768   3.974   3.438  16.235  0.5501 -0.5818  0.3842
 9451TIP3    H249769   3.941   3.312  16.158 -1.4550 -0.0660  0.3373
 9452TIP3   OH249770   6.483   4.358   2.310  0.2515 -0.0074  0.6485
 9452TIP3    H149771   6.417   4.296   2.342 -1.1222  0.6545 -0.7826
 9452TIP3    H249772   6.478   4.432   2.371 -2.1186  1.1019 -0.7461
 9453TIP3   OH249773   0.930   2.653   4.740 -0.4391  0.0276  0.3084
 9453TIP3    H149774   0.846   2.633   4.782 -1.8143  2.8387 -0.8532
 9453TIP3    H249775   0.918   2.629   4.649  0.0523  0.3747  0.1478
 9454TIP3   OH249776   4.487   0.042   5.984 -0.5919 -0.5159  0.4378
 9454TIP3    H149777   4.576   0.036   5.951 -0.8940 -2.4501 -0.1543
 9454TIP3    H249778   4.445  -0.040   5.957 -2.8101  0.6733 -0.0188
 9455TIP3   OH249779   4.754   2.687  12.346  0.1359  0.2334 -0.4293
 9455TIP3    H149780   4.711   2.692  12.431 -0.5422 -0.0610 -0.7474
 9455TIP3    H249781   4.796   2.600  12.346 -1.2247 -0.4508 -1.0148
 9456TIP3   OH249782   4.949   3.683   3.136  0.2311 -0.4485 -0.1343
 9456TIP3    H149783   5.000   3.708   3.213 -0.4539 -1.1007  0.5579
 9456TIP3    H249784   4.945   3.762   3.083  0.2582  0.1733  0.7686
 9457TIP3   OH249785   2.940   3.411   5.061  0.1845  0.2104  0.0694
 9457TIP3    H149786   2.898   3.344   5.007  1.1022 -0.2913 -0.0436
 9457TIP3    H249787   2.978   3.362   5.134  0.7237  0.6265  0.0758
 9458TIP3   OH249788   3.028   2.913   3.497  0.4015 -0.3063  0.0279
 9458TIP3    H149789   2.942   2.954   3.487  0.7611  0.8023  1.2131
 9458TIP3    H249790   3.041   2.907   3.591  1.2044 -1.4037 -0.1297
 9459TIP3   OH249791   5.784   5.143  17.262 -0.5774 -0.2599 -0.1357
 9459TIP3    H149792   5.751   5.210  17.323 -2.3751  0.4181 -1.7437
 9459TIP3    H249793   5.824   5.193  17.192  2.0595 -1.0549  0.7016
 9460TIP3   OH249794   3.487   5.509  12.241 -0.0150 -0.6118  0.4492
 9460TIP3    H149795   3.537   5.504  12.322 -2.0523  1.2355  1.9269
 9460TIP3    H249796   3.553   5.507  12.172  2.4508  3.7480  2.2840
 9461TIP3   OH249797   0.056   6.674  11.122 -0.1963 -1.0735 -0.1256
 9461TIP3    H149798   0.139   6.630  11.103 -0.1441 -1.1661  0.3232
 9461TIP3    H249799   0.002   6.655  11.045  0.7058  0.2790 -1.1560
 9462TIP3   OH249800   6.461   3.846   0.996 -0.0268  0.1519  0.4131
 9462TIP3    H149801   6.447   3.823   1.088  1.9025 -2.6731  0.1368
 9462TIP3    H249802   6.546   3.891   0.995 -0.4064  0.8762  0.0809
 9463TIP3   OH249803   3.556   2.748  12.499  0.2741 -0.1694  0.5939
 9463TIP3    H149804   3.474   2.717  12.537  0.6299 -0.7060  0.9336
 9463TIP3    H249805   3.613   2.763  12.574  0.5964 -0.1062  0.3383
 9464TIP3   OH249806   3.671   6.029  16.858 -0.0712  0.0172  0.2944
 9464TIP3    H149807   3.712   6.107  16.820 -0.0307 -0.9172 -1.7279
 9464TIP3    H249808   3.634   5.982  16.783 -0.2868 -1.8171  1.4717
 9465TIP3   OH249809   4.451   2.143  16.551  0.1133  0.2562  0.0277
 9465TIP3    H149810   4.516   2.203  16.588 -0.8497  1.7148 -0.5413
 9465TIP3    H249811   4.429   2.083  16.622  0.9757  0.6844  0.6688
 9466TIP3   OH249812   0.420   5.972  12.362  0.3241  0.0954  0.1004
 9466TIP3    H149813   0.432   6.014  12.448 -2.1400  0.1596  0.4835
 9466TIP3    H249814   0.495   5.912  12.354  2.7187  2.8341  0.5310
 9467TIP3   OH249815   4.888   6.761   3.049  0.1469  0.1893  0.3798
 9467TIP3    H149816   4.953   6.829   3.070 -0.3771  0.9915 -0.4831
 9467TIP3    H249817   4.807   6.809   3.035 -0.9781 -0.9093  2.6120
 9468TIP3   OH249818   3.699   4.373   3.204  0.8736 -0.6656 -0.0758
 9468TIP3    H149819   3.762   4.343   3.270 -0.1026 -0.4653  0.9671
 9468TIP3    H249820   3.651   4.294   3.179 -1.9573 -0.1005  2.9479
 9469TIP3   OH249821   0.651   0.692  16.703  0.4513  0.1429 -0.4660
 9469TIP3    H149822   0.622   0.608  16.738 -1.8511  0.0394 -2.3889
 9469TIP3    H249823   0.718   0.670  16.638  1.4843  0.0330  0.5832
 9470TIP3   OH249824   3.443   4.317   4.720 -0.3350 -0.4511  0.3872
 9470TIP3    H149825   3.466   4.266   4.643  1.5829 -0.0916  0.6816
 9470TIP3    H249826   3.417   4.253   4.786 -1.8397 -0.7664 -0.4796
 9471TIP3   OH249827   3.468   3.947  11.616 -0.2212 -0.4366  0.5008
 9471TIP3    H149828   3.454   3.976  11.706  1.1768 -0.6916  0.8099
 9471TIP3    H249829   3.531   4.009  11.580 -0.9031 -0.2273 -0.3801
 9472TIP3   OH249830   5.642   1.049  16.613 -0.3486  1.4225  0.2328
 9472TIP3    H149831   5.630   1.090  16.699 -0.2034  0.3794  0.7585
 9472TIP3    H249832   5.736   1.034  16.607 -0.3371  1.6415 -0.1918
 9473TIP3   OH249833   3.870   4.934   4.412 -0.1914  0.1574  0.8667
 9473TIP3    H149834   3.796   4.977   4.371  0.9728  1.4656  0.0594
 9473TIP3    H249835   3.914   5.003   4.462  0.2035 -0.7029  1.7421
 9474TIP3   OH249836   3.448   1.777   1.131  0.3507  0.0242 -0.3972
 9474TIP3    H149837   3.457   1.704   1.070  2.0751  0.0523 -0.2191
 9474TIP3    H249838   3.357   1.805   1.121 -1.0642 -3.4994  1.1150
 9475TIP3   OH249839   3.809   2.747   6.005 -0.2103  0.2594  0.4531
 9475TIP3    H149840   3.715   2.734   5.994 -0.1884 -0.4391  1.0322
 9475TIP3    H249841   3.827   2.829   5.959 -1.2632  0.8707  1.0845
 9476TIP3   OH249842   1.225   3.290   6.148  0.5938 -0.1149  0.3116
 9476TIP3    H149843   1.225   3.247   6.234 -1.0397 -0.4137  0.2021
 9476TIP3    H249844   1.305   3.259   6.106  0.4192 -1.5699  0.9692
 9477TIP3   OH249845   2.519   6.133   5.161  0.1794  0.3634  0.3091
 9477TIP3    H149846   2.481   6.077   5.093  1.6589 -1.5037  0.9087
 9477TIP3    H249847   2.449   6.194   5.184 -1.0770 -0.3707 -1.3347
 9478TIP3   OH249848   1.236   0.449   6.353 -0.6130  0.4675  0.1277
 9478TIP3    H149849   1.238   0.396   6.273 -0.3543  0.8579 -0.1310
 9478TIP3    H249850   1.326   0.480   6.364  0.0007 -1.8027  2.1123
 9479TIP3   OH249851   3.786   2.362  13.732 -0.5629 -0.2609  0.3860
 9479TIP3    H149852   3.752   2.348  13.644 -1.8271  0.9980  0.6406
 9479TIP3    H249853   3.758   2.451  13.755  2.1898  0.5315  0.9737
 9480TIP3   OH249854   4.811   2.941   0.256 -0.0328  0.4531 -0.0403
 9480TIP3    H149855   4.784   2.984   0.175 -2.9319  0.8421  0.9945
 9480TIP3    H249856   4.729   2.928   0.304  1.3365 -1.6186  1.9430
 9481TIP3   OH249857   0.654   1.141   3.264  0.0444 -0.5668  0.2974
 9481TIP3    H149858   0.624   1.164   3.176 -1.2298 -0.8875  0.6224
 9481TIP3    H249859   0.658   1.045   3.263  0.9498 -0.5305  0.3041
 9482TIP3   OH249860   1.783   6.109  15.397 -0.6625  0.3436 -0.0419
 9482TIP3    H149861   1.805   6.175  15.463  0.0911  1.3814 -1.2798
 9482TIP3    H249862   1.830   6.138  15.319  0.7663 -2.3796 -0.2897
 9483TIP3   OH249863   6.136   5.513  13.257 -0.4755  0.1504 -0.3753
 9483TIP3    H149864   6.123   5.453  13.183 -0.7274  0.1072 -0.2976
 9483TIP3    H249865   6.230   5.512  13.272 -0.3951  0.3176 -0.8312
 9484TIP3   OH249866   1.639   3.162   2.504  0.2576 -0.2441  1.2039
 9484TIP3    H149867   1.572   3.161   2.436  0.9458 -1.0043  0.5134
 9484TIP3    H249868   1.636   3.251   2.539 -1.1497 -0.2807  1.2445
 9485TIP3   OH249869   1.109   5.445   1.256  0.3013  0.2941  0.7244
 9485TIP3    H149870   1.049   5.487   1.317  0.4810  1.0811  0.3825
 9485TIP3    H249871   1.185   5.504   1.253 -0.6507  1.5394 -1.9748
 9486TIP3   OH249872   0.724   5.671   5.319  0.0037 -0.3390  0.4946
 9486TIP3    H149873   0.650   5.639   5.267  1.3965  0.0863 -1.8296
 9486TIP3    H249874   0.719   5.766   5.313  0.3641 -0.2919  0.9007
 9487TIP3   OH249875   1.289   1.649   1.877  0.1378 -0.3153 -0.4533
 9487TIP3    H149876   1.289   1.555   1.860  1.5733 -0.0389 -2.3362
 9487TIP3    H249877   1.382   1.673   1.880 -0.1961  1.0350  0.1130
 9488TIP3   OH249878   5.705   3.378  11.441 -0.3343  0.1910  0.0685
 9488TIP3    H149879   5.640   3.319  11.478 -0.6759  0.6084  0.1371
 9488TIP3    H249880   5.778   3.321  11.417 -0.8402 -0.3184 -0.2739
 9489TIP3   OH249881   1.377   1.628   2.382 -0.1205  0.1801 -0.2699
 9489TIP3    H149882   1.409   1.612   2.471  0.6962  0.0641 -0.5738
 9489TIP3    H249883   1.282   1.624   2.389 -0.0444 -0.5749  0.4658
 9490TIP3   OH249884   5.603   2.068  13.330 -0.0848 -0.3614 -0.2010
 9490TIP3    H149885   5.685   2.020  13.346 -0.6345 -1.2492  0.0226
 9490TIP3    H249886   5.631   2.148  13.285  0.8609 -0.8518 -0.5206
 9491TIP3   OH249887   0.691   2.941  16.620  0.4720 -0.8332 -0.1610
 9491TIP3    H149888   0.601   2.941  16.587 -0.2302  1.1702  1.4963
 9491TIP3    H249889   0.712   2.849  16.635 -0.9490 -1.4038 -1.4630
 9492TIP3   OH249890   6.750   2.444   2.852 -0.9988 -0.1259 -0.0275
 9492TIP3    H149891   6.774   2.440   2.759 -0.8241  2.5413 -0.1708
 9492TIP3    H249892   6.831   2.469   2.897 -1.9874  3.0282  0.2218
 9493TIP3   OH249893   5.930   3.694  15.011 -0.0251 -0.1225 -0.4674
 9493TIP3    H149894   5.957   3.603  15.015 -0.9621 -0.3809  2.3657
 9493TIP3    H249895   6.006   3.743  15.043 -0.8624 -0.3887  2.2319
 9494TIP3   OH249896   1.656   2.065   4.675  0.0518  0.0421  0.8392
 9494TIP3    H149897   1.633   2.139   4.619  0.3370  0.7455  1.6377
 9494TIP3    H249898   1.673   2.104   4.761  2.5057 -0.6320  0.7318
 9495TIP3   OH249899   3.947   5.678  11.598  0.3310 -0.4432 -0.5234
 9495TIP3    H149900   3.904   5.659  11.682  0.1953  2.1577  0.0681
 9495TIP3    H249901   3.972   5.592  11.564 -3.5515 -2.0083  0.0330
 9496TIP3   OH249902   3.800   3.797  11.693  0.7504 -0.3545 -0.0333
 9496TIP3    H149903   3.748   3.876  11.681  1.1905  0.0327  0.6024
 9496TIP3    H249904   3.817   3.766  11.604 -1.0409 -0.8168 -0.2614
 9497TIP3   OH249905   1.971   5.472   1.901  0.0309  0.1914  0.1398
 9497TIP3    H149906   1.965   5.567   1.894 -0.8919  0.1034 -0.4107
 9497TIP3    H249907   1.955   5.454   1.994 -1.6756  0.4743 -0.0575
 9498TIP3   OH249908   2.223   1.930  12.892  0.1731  0.6802 -0.0222
 9498TIP3    H149909   2.264   2.016  12.881  1.0184  0.6129  2.0188
 9498TIP3    H249910   2.297   1.871  12.910 -0.5529 -0.0994  0.4431
 9499TIP3   OH249911   6.731   0.933   0.787 -0.2861  0.1756 -0.2384
 9499TIP3    H149912   6.824   0.958   0.787 -0.4101  0.6721  0.6931
 9499TIP3    H249913   6.684   1.017   0.791 -0.7930 -0.0492 -1.2043
 9500TIP3   OH249914   3.399   3.789   0.500  0.2083 -0.1160  0.1392
 9500TIP3    H149915   3.344   3.843   0.557 -0.3456 -1.1115  0.5923
 9500TIP3    H249916   3.386   3.700   0.533  1.0164 -0.5380 -0.6423
 9501TIP3   OH249917   4.657   3.889  11.838  0.1367 -0.3910 -0.4028
 9501TIP3    H149918   4.735   3.899  11.893  0.0173 -0.0514 -0.2956
 9501TIP3    H249919   4.635   3.796  11.845 -0.4952 -0.1736  0.9877
 9502TIP3   OH249920   1.330   5.421  14.448 -0.4134  0.4818  0.2125
 9502TIP3    H149921   1.304   5.336  14.415  1.7150  0.9743 -3.2234
 9502TIP3    H249922   1.253   5.477  14.438 -0.5666 -0.0307 -1.7044
 9503TIP3   OH249923   4.208   5.514   0.573  0.1669  0.5488  0.8741
 9503TIP3    H149924   4.287   5.564   0.552  0.6996 -0.9548 -0.9549
 9503TIP3    H249925   4.140   5.552   0.519  0.3285  0.0463  0.2967
 9504TIP3   OH249926   1.677   2.217   0.225 -0.2546  0.0096  0.2370
 9504TIP3    H149927   1.771   2.200   0.224 -0.2682 -0.0585 -0.3307
 9504TIP3    H249928   1.639   2.137   0.261 -0.3676 -1.6170 -3.0281
 9505TIP3   OH249929   2.508   0.514  16.697 -0.1572  0.0270  0.2527
 9505TIP3    H149930   2.568   0.463  16.642 -1.5768 -0.7161 -0.6947
 9505TIP3    H249931   2.459   0.448  16.747 -1.2174  0.4991 -0.1187
 9506TIP3   OH249932   0.754   4.333  14.125  0.2530  0.6117 -0.1600
 9506TIP3    H149933   0.662   4.313  14.146  0.1676  1.1469 -0.0255
 9506TIP3    H249934   0.796   4.346  14.210  0.2099  1.4313 -0.2591
 9507TIP3   OH249935   3.393   4.007   4.852  0.0590  1.1665  0.3226
 9507TIP3    H149936   3.446   3.931   4.874 -1.4662  0.0212  0.1692
 9507TIP3    H249937   3.384   4.003   4.757 -1.0280  0.8287  0.4284
 9508TIP3   OH249938   1.889   2.076   1.061 -0.3400  0.0507  0.6283
 9508TIP3    H149939   1.867   2.167   1.046  1.2305  0.4103  0.3175
 9508TIP3    H249940   1.871   2.062   1.154 -2.1959  0.1664  0.3229
 9509TIP3   OH249941   1.486   0.985  16.317 -0.2056 -0.1962 -0.2261
 9509TIP3    H149942   1.533   1.050  16.370 -0.3101  2.1526 -2.8220
 9509TIP3    H249943   1.554   0.940  16.268 -0.2116 -1.4932  0.9036
 9510TIP3   OH249944   1.227   6.404   1.887  0.3531 -0.0594  0.5071
 9510TIP3    H149945   1.254   6.481   1.837  0.4153  0.3245  1.1261
 9510TIP3    H249946   1.131   6.411   1.893  0.3809  0.1018  0.7738
 9511TIP3   OH249947   4.245   4.542  13.808  0.1317 -1.0767 -0.0485
 9511TIP3    H149948   4.185   4.481  13.852  0.3455 -2.1805 -1.2170
 9511TIP3    H249949   4.241   4.622  13.861 -0.1887 -2.0806  1.5102
 9512TIP3   OH249950   2.172   1.144   1.637  0.4921  0.1079 -0.5005
 9512TIP3    H149951   2.086   1.180   1.617  0.6126  1.0768  0.6245
 9512TIP3    H249952   2.178   1.147   1.733  1.4276 -0.7862 -0.5020
 9513TIP3   OH249953   5.004   6.207  17.262  0.3233  0.0981 -0.2528
 9513TIP3    H149954   5.002   6.112  17.254  1.6786  0.0499 -0.2680
 9513TIP3    H249955   5.084   6.225  17.312  0.1879  1.2419 -0.4226
 9514TIP3   OH249956   0.876   2.359   1.924 -0.2055  0.7077  0.0533
 9514TIP3    H149957   0.932   2.437   1.927 -0.0721  0.6095  0.1084
 9514TIP3    H249958   0.896   2.318   1.840  1.4311 -0.5283  0.9956
 9515TIP3   OH249959   4.915   5.600   0.549  0.2519 -0.4422  0.4078
 9515TIP3    H149960   4.837   5.574   0.501 -1.2559  0.9642  1.9561
 9515TIP3    H249961   4.985   5.601   0.484 -0.9973 -1.7853 -1.0099
 9516TIP3   OH249962   1.184   6.059  13.750 -0.5741  0.1541 -0.6034
 9516TIP3    H149963   1.134   6.134  13.783 -0.8345 -0.3845  0.2629
 9516TIP3    H249964   1.264   6.098  13.716 -0.7319  0.8411 -0.2279
 9517TIP3   OH249965   1.526   3.346   0.851  0.0938 -0.1363 -0.0679
 9517TIP3    H149966   1.447   3.384   0.888  0.1801  0.2473 -0.2693
 9517TIP3    H249967   1.596   3.408   0.874  0.1787  0.0160 -0.7061
 9518TIP3   OH249968   4.428   0.477  12.303  0.4050  0.4603  0.1891
 9518TIP3    H149969   4.484   0.406  12.270 -1.6621 -0.7561 -0.9136
 9518TIP3    H249970   4.411   0.454  12.394  1.2638  0.5848  0.3945
 9519TIP3   OH249971   4.392   1.131   5.510 -0.4991 -0.0136  0.4491
 9519TIP3    H149972   4.446   1.164   5.581  0.1701 -0.8373  0.3417
 9519TIP3    H249973   4.455   1.106   5.442 -1.0102 -1.0062  0.3262
 9520TIP3   OH249974   4.533   1.507   3.907 -0.5189  0.0236 -0.2452
 9520TIP3    H149975   4.470   1.568   3.869  0.4326  1.6064  0.5852
 9520TIP3    H249976   4.500   1.488   3.994 -0.9821 -0.9427 -0.6201
 9521TIP3   OH249977   1.315   1.097   1.591  0.6197  0.0384  0.2150
 9521TIP3    H149978   1.373   1.101   1.667  0.7807 -2.2409  0.2865
 9521TIP3    H249979   1.325   1.008   1.558 -1.9433 -0.0648 -0.5081
 9522TIP3   OH249980   6.110   4.244   3.988 -0.4185 -0.1877  0.3976
 9522TIP3    H149981   6.034   4.295   3.962 -1.6870 -2.3749 -0.4960
 9522TIP3    H249982   6.107   4.166   3.932  1.5820 -1.0916  1.4366
 9523TIP3   OH249983   4.193   1.981  14.388  0.0144  0.3467  0.0049
 9523TIP3    H149984   4.161   1.925  14.317 -0.8463 -1.2140  1.5422
 9523TIP3    H249985   4.133   2.056  14.387  1.2570  1.4065 -2.1587
 9524TIP3   OH249986   0.299   6.124   2.781  0.0094 -0.0978  0.4761
 9524TIP3    H149987   0.315   6.080   2.698  0.5879  0.3320  0.3533
 9524TIP3    H249988   0.334   6.065   2.847 -0.9983 -0.7246  0.4775
 9525TIP3   OH249989   4.671   5.787  13.860 -0.1885  0.4123  0.1522
 9525TIP3    H149990   4.760   5.754  13.848  0.6888  2.3150  0.9835
 9525TIP3    H249991   4.636   5.737  13.933  0.7367  0.6500  0.7674
 9526TIP3   OH249992   3.619   1.656   3.130 -0.0853  0.0521 -0.0430
 9526TIP3    H149993   3.691   1.643   3.193 -0.6180 -0.4171  0.4894
 9526TIP3    H249994   3.651   1.615   3.049 -0.0341 -0.8162  0.4014
 9527TIP3   OH249995   0.673   0.684  11.259 -0.8113  0.8784 -0.6145
 9527TIP3    H149996   0.623   0.752  11.214 -0.8523  0.3113 -1.4552
 9527TIP3    H249997   0.730   0.647  11.191  0.4780  1.2356  0.2170
 9528TIP3   OH249998   2.179   1.915   5.918 -0.7299  0.2681  0.5969
 9528TIP3    H149999   2.201   1.933   6.009 -2.1726 -1.0349  1.2589
 9528TIP3    H250000   2.095   1.869   5.923 -1.7500  1.7842 -1.5141
 9529TIP3   OH250001   4.996   5.981  13.824 -0.2926 -0.4350 -0.0960
 9529TIP3    H150002   5.074   5.929  13.842  1.0439  1.5045 -0.0088
 9529TIP3    H250003   4.971   5.959  13.735  1.0318 -0.2875 -0.5184
 9530TIP3   OH250004   4.026   3.644   6.218  0.3817 -0.0015  0.5386
 9530TIP3    H150005   4.002   3.737   6.223  1.6445  0.3671  0.1320
 9530TIP3    H250006   4.121   3.644   6.226  0.8365 -0.9338 -3.0841
 9531TIP3   OH250007   1.672   2.727   3.079 -0.0851 -0.2499  0.1830
 9531TIP3    H150008   1.594   2.778   3.058 -0.4963  0.3749  2.9270
 9531TIP3    H250009   1.718   2.719   2.995 -1.6481  1.8061 -0.9703
 9532TIP3   OH250010   2.122   3.617  15.493 -0.2069  0.1863  0.1556
 9532TIP3    H150011   2.197   3.580  15.445 -0.3245  0.6014 -0.3646
 9532TIP3    H250012   2.148   3.707  15.512 -0.6105  0.3611 -0.1072
 9533TIP3   OH250013   5.487   4.294  12.511 -0.5952 -0.5834  0.1421
 9533TIP3    H150014   5.545   4.370  12.507 -0.6823 -0.5354 -0.2596
 9533TIP3    H250015   5.544   4.221  12.537 -0.5383 -0.3530  0.6550
 9534TIP3   OH250016   3.977   5.031  16.942 -0.2952  0.0746 -0.4647
 9534TIP3    H150017   3.966   5.113  16.990  1.6797  0.7937 -1.1652
 9534TIP3    H250018   3.962   4.963  17.008  0.3841  1.0193  0.7086
 9535TIP3   OH250019   4.908   0.072  11.551 -0.2101 -0.2870 -0.7786
 9535TIP3    H150020   4.829   0.078  11.605  0.1044 -0.7964 -0.2575
 9535TIP3    H250021   4.878   0.031  11.470 -0.4664 -0.5365 -0.5589
 9536TIP3   OH250022   0.238   4.342  12.904 -0.6128 -0.8160 -0.0515
 9536TIP3    H150023   0.213   4.431  12.930  3.0733  0.4036 -0.1303
 9536TIP3    H250024   0.235   4.292  12.986 -1.1675 -0.2213  0.3028
 9537TIP3   OH250025   4.375   0.144  16.083  0.4975  0.3422 -0.1294
 9537TIP3    H150026   4.297   0.117  16.131  1.8612 -0.9078  1.5179
 9537TIP3    H250027   4.445   0.092  16.121  1.8922  0.2024 -2.6844
 9538TIP3   OH250028   5.512   0.711   0.412 -0.0004 -0.3714 -0.4402
 9538TIP3    H150029   5.515   0.688   0.505  0.3701  0.9338 -0.1144
 9538TIP3    H250030   5.437   0.770   0.404  0.9210  0.8157 -0.6452
 9539TIP3   OH250031   4.219   4.223   3.266 -0.4598  0.0193  0.6139
 9539TIP3    H150032   4.248   4.314   3.262 -0.0005 -0.0146  2.2651
 9539TIP3    H250033   4.225   4.200   3.359  0.2020 -1.9347  0.1397
 9540TIP3   OH250034   4.105   3.730  14.005  0.3647  0.2736  0.7857
 9540TIP3    H150035   4.120   3.799  14.070 -0.1945 -0.1623  1.3893
 9540TIP3    H250036   4.193   3.705  13.977  0.5759  1.3072  0.4680
 9541TIP3   OH250037   2.552   6.544  10.708 -0.2451  0.0629  0.4178
 9541TIP3    H150038   2.479   6.604  10.725 -0.4796 -0.0602 -0.1236
 9541TIP3    H250039   2.510   6.463  10.679  0.1265  0.8236 -2.5669
 9542TIP3   OH250040   6.596   2.024   1.948 -0.0902 -0.7803  0.3279
 9542TIP3    H150041   6.544   2.026   2.029 -1.0790  0.7000 -0.3011
 9542TIP3    H250042   6.531   2.009   1.879  0.4309  0.2089 -0.3899
 9543TIP3   OH250043   4.934   5.955   3.160  0.3349  0.6852  0.5814
 9543TIP3    H150044   4.938   5.936   3.067  1.0865  0.6616  0.6097
 9543TIP3    H250045   5.026   5.962   3.187  0.1262  0.6975  1.3152
 9544TIP3   OH250046   2.053   5.237  10.979 -0.2397  0.3848  0.3870
 9544TIP3    H150047   2.020   5.225  11.068  0.4047 -0.2486  0.5514
 9544TIP3    H250048   1.994   5.301  10.940 -2.6319 -1.7622  0.1812
 9545TIP3   OH250049   3.527   0.132  11.065  0.2418  0.1912 -0.0671
 9545TIP3    H150050   3.519   0.227  11.062  0.2165  0.2336  0.8434
 9545TIP3    H250051   3.452   0.102  11.116  1.6419 -0.0447  2.0353
 9546TIP3   OH250052   4.845   2.985  16.933 -0.4426 -0.2496 -0.8428
 9546TIP3    H150053   4.872   3.070  16.899  0.9985 -0.7200 -0.9637
 9546TIP3    H250054   4.788   2.949  16.865 -0.5536  0.3593 -1.0732
 9547TIP3   OH250055   5.443   4.045  15.862  0.2584 -0.2830  0.6836
 9547TIP3    H150056   5.396   4.076  15.784 -0.8077 -2.1577  0.5129
 9547TIP3    H250057   5.419   4.106  15.931  1.2370  1.4247 -0.4267
 9548TIP3   OH250058   3.852   4.129  12.071 -0.4497 -0.7441 -0.8518
 9548TIP3    H150059   3.783   4.130  12.005 -0.1249 -0.1243 -1.1806
 9548TIP3    H250060   3.828   4.056  12.128 -1.4479 -0.4665 -0.8916
 9549TIP3   OH250061   5.363   0.043   1.551  0.1309  0.2295 -0.5784
 9549TIP3    H150062   5.369   0.076   1.641 -0.6783 -1.1658  0.0220
 9549TIP3    H250063   5.398   0.114   1.497  1.1658  0.8677  0.8746
 9550TIP3   OH250064   0.939   6.708  12.918 -0.0374 -0.0357 -0.3188
 9550TIP3    H150065   0.998   6.719  12.992  0.8854 -0.2162 -1.0080
 9550TIP3    H250066   0.989   6.655  12.856 -1.5328 -1.6276 -0.2401
 9551TIP3   OH250067   6.068   1.097   0.833  0.5177 -0.0702 -0.7590
 9551TIP3    H150068   6.068   1.108   0.738  2.4989  2.5768 -0.5881
 9551TIP3    H250069   6.066   1.187   0.867  2.0509 -0.8413  1.6286
 9552TIP3   OH250070   2.622   1.692   1.446 -0.1007 -0.6926  0.1383
 9552TIP3    H150071   2.701   1.724   1.490  1.3332 -1.0750 -1.9742
 9552TIP3    H250072   2.620   1.599   1.465  0.2719 -0.7759 -0.2061
 9553TIP3   OH250073   0.475   2.075  14.938  0.1769  0.7979 -0.8595
 9553TIP3    H150074   0.457   2.089  15.031  2.6902  0.1036 -0.1879
 9553TIP3    H250075   0.477   2.163  14.901  2.7566  1.4706  0.5866
 9554TIP3   OH250076   1.334   2.623  16.392 -0.0147  0.0892  0.1854
 9554TIP3    H150077   1.266   2.687  16.414 -1.2841 -1.6418  1.7115
 9554TIP3    H250078   1.288   2.557  16.340  1.2957  0.4190 -1.4644
 9555TIP3   OH250079   1.482   5.668  12.945 -0.0986  0.2696 -0.2226
 9555TIP3    H150080   1.519   5.581  12.929 -0.2903  0.5868 -2.6736
 9555TIP3    H250081   1.411   5.653  13.007 -0.8944 -1.5387 -1.4932
 9556TIP3   OH250082   2.859   4.674  11.086 -0.6058  0.2157 -0.1598
 9556TIP3    H150083   2.880   4.638  10.999 -1.2357 -1.6073  0.4079
 9556TIP3    H250084   2.774   4.715  11.075  1.0186  3.6918 -1.3568
 9557TIP3   OH250085   0.669   2.388  15.043 -0.1434  0.3668  0.0547
 9557TIP3    H150086   0.664   2.371  14.948 -0.0914 -2.3489  0.4431
 9557TIP3    H250087   0.578   2.383  15.072  0.0732 -2.2063  0.5450
 9558TIP3   OH250088   3.880   3.215  10.322 -0.7298  0.1126  0.1651
 9558TIP3    H150089   3.829   3.295  10.334  0.1235  0.5430  1.0943
 9558TIP3    H250090   3.891   3.181  10.411  1.8539  0.8420  0.1967
 9559TIP3   OH250091   3.469   1.187   0.543  0.1020  0.2470 -0.3782
 9559TIP3    H150092   3.410   1.172   0.617 -1.6529  2.5537 -1.1911
 9559TIP3    H250093   3.556   1.192   0.582 -0.6709  0.5570  1.3959
 9560TIP3   OH250094   0.367   5.027  15.127 -0.2474 -0.2860 -0.0942
 9560TIP3    H150095   0.347   5.037  15.034 -0.7957  1.2015  0.1577
 9560TIP3    H250096   0.448   4.975  15.128  1.7869  2.5305 -1.6077
 9561TIP3   OH250097   2.869   0.328   5.498  0.0300 -0.0280 -0.7280
 9561TIP3    H150098   2.815   0.253   5.524 -2.5985  2.2940  1.0650
 9561TIP3    H250099   2.832   0.356   5.414  0.7736 -0.4476 -1.2125
 9562TIP3   OH250100   4.442   4.786  11.221 -0.2014 -0.2207  0.1348
 9562TIP3    H150101   4.410   4.727  11.288 -2.1882  1.4008  0.7145
 9562TIP3    H250102   4.507   4.840  11.266  0.4940 -0.9344  0.0024
 9563TIP3   OH250103   0.783   2.429  14.389  0.2440 -0.5108  0.1766
 9563TIP3    H150104   0.768   2.516  14.426 -0.2522 -0.1650 -0.7878
 9563TIP3    H250105   0.854   2.392  14.441  0.0064  0.2101  1.0214
 9564TIP3   OH250106   4.977   3.355  15.478  0.7594 -0.2638 -0.3505
 9564TIP3    H150107   4.955   3.448  15.473 -1.9748 -0.5580  2.8742
 9564TIP3    H250108   5.059   3.352  15.527 -0.4614  0.4907  1.8914
 9565TIP3   OH250109   5.847   0.133  11.940 -0.2057  0.4291 -0.1774
 9565TIP3    H150110   5.873   0.169  11.856  0.5165  0.1090 -0.1006
 9565TIP3    H250111   5.863   0.039  11.932 -3.1016 -0.1237 -0.7712
 9566TIP3   OH250112   4.201   3.675   5.817 -0.3249  0.0179  0.2126
 9566TIP3    H150113   4.266   3.744   5.804  0.3232 -0.1115  2.3676
 9566TIP3    H250114   4.119   3.712   5.782  0.7282  0.4231 -1.9574
 9567TIP3   OH250115   5.213   6.031  16.244  0.4648  0.4383 -0.2113
 9567TIP3    H150116   5.240   5.950  16.202 -1.2823 -0.2753 -0.0415
 9567TIP3    H250117   5.283   6.051  16.306  0.7360 -1.1533  0.0357
 9568TIP3   OH250118   6.538   2.982  11.587  0.0805 -1.0234 -0.3347
 9568TIP3    H150119   6.465   2.930  11.621 -1.2316  1.2085  0.4967
 9568TIP3    H250120   6.575   3.024  11.665  0.6840 -0.2163 -1.0389
 9569TIP3   OH250121   3.020   6.487   4.745 -0.4337  0.4660  0.3705
 9569TIP3    H150122   3.067   6.553   4.694  2.6312 -1.5677  0.3407
 9569TIP3    H250123   2.980   6.430   4.678  0.0161  0.2065  0.3219
 9570TIP3   OH250124   2.820   5.770  12.385  0.1971  0.4964 -0.3992
 9570TIP3    H150125   2.759   5.711  12.430 -0.1236  1.8281  1.0032
 9570TIP3    H250126   2.865   5.816  12.456  1.0489  1.3145 -1.4456
 9571TIP3   OH250127   3.711   2.975   3.904 -0.1065  0.1927  0.5512
 9571TIP3    H150128   3.695   2.881   3.894 -0.3793  0.2108  0.7912
 9571TIP3    H250129   3.800   2.988   3.871 -1.0660  0.3309 -2.1351
 9572TIP3   OH250130   3.437   1.656  14.710  0.2016  0.1639 -0.6867
 9572TIP3    H150131   3.353   1.635  14.750  0.5448  1.9006  1.0736
 9572TIP3    H250132   3.416   1.676  14.619 -1.2154  0.0474 -0.4026
 9573TIP3   OH250133   6.401   1.611   0.937  0.0171 -0.0527  0.7963
 9573TIP3    H150134   6.432   1.677   1.000  1.8684 -0.0530 -0.0473
 9573TIP3    H250135   6.383   1.661   0.857 -0.3381 -0.3364  0.6951
 9574TIP3   OH250136   1.066   2.814   2.793  0.4189  0.5840  0.0918
 9574TIP3    H150137   1.035   2.896   2.833  0.1253 -0.5088  2.2471
 9574TIP3    H250138   1.059   2.749   2.863  3.2684 -0.7239 -0.7037
 9575TIP3   OH250139   6.011   5.379   2.233 -0.0382  0.2868  0.3946
 9575TIP3    H150140   6.036   5.304   2.178 -0.0139 -0.3698  1.2794
 9575TIP3    H250141   6.091   5.401   2.280 -0.4009 -0.0232  1.1610
 9576TIP3   OH250142   6.354   4.853  11.899 -0.0700  0.6423  0.1775
 9576TIP3    H150143   6.320   4.829  11.813 -0.0206  0.6746  0.1490
 9576TIP3    H250144   6.391   4.771  11.933 -2.2490  0.0126  1.2052
 9577TIP3   OH250145   3.013   2.727   2.626  0.2591 -0.2958  0.2928
 9577TIP3    H150146   3.058   2.654   2.668  0.6590 -1.0897 -1.4316
 9577TIP3    H250147   3.057   2.805   2.660  0.4577 -0.8768  1.4324
 9578TIP3   OH250148   1.460   1.512  11.502 -0.2100 -0.0884  0.7303
 9578TIP3    H150149   1.456   1.427  11.458  1.1089 -0.5871  1.5032
 9578TIP3    H250150   1.523   1.499  11.573 -0.0848  1.5036  0.9513
 9579TIP3   OH250151   4.113   5.646  13.359 -0.0307  0.1885 -0.2828
 9579TIP3    H150152   4.204   5.668  13.343 -0.0931  0.3947 -0.3545
 9579TIP3    H250153   4.063   5.707  13.305 -0.2251  0.4997  0.2393
 9580TIP3   OH250154   5.020   4.028  16.043  0.0777  0.0950 -0.1106
 9580TIP3    H150155   5.094   4.009  16.101 -1.2071 -0.6910  1.3326
 9580TIP3    H250156   4.996   4.119  16.063  0.5548  0.3104 -0.4931
 9581TIP3   OH250157   1.681   1.778  13.500  0.1307 -0.5261 -0.2301
 9581TIP3    H150158   1.737   1.744  13.570 -0.3758 -0.8427  0.0258
 9581TIP3    H250159   1.729   1.760  13.420  0.8700  0.1307  0.0454
 9582TIP3   OH250160   2.062   3.422   3.684  0.7632 -0.7144 -0.2160
 9582TIP3    H150161   2.013   3.343   3.711 -0.8164  0.9928  2.3067
 9582TIP3    H250162   2.120   3.440   3.757  0.6803  0.7780 -0.5002
 9583TIP3   OH250163   6.197   2.028  13.957 -0.3763 -0.4548 -0.4853
 9583TIP3    H150164   6.264   2.095  13.959 -1.6700  0.9074 -0.8329
 9583TIP3    H250165   6.118   2.074  13.928 -1.8131 -1.6480  1.2799
 9584TIP3   OH250166   6.539   5.998   0.754 -0.3881 -0.2802  0.0896
 9584TIP3    H150167   6.518   5.918   0.706  0.3902 -1.6249  1.8956
 9584TIP3    H250168   6.548   5.970   0.845  1.2298  1.6214  0.5774
 9585TIP3   OH250169   4.080   0.214   2.473 -0.1377  0.0403  1.0130
 9585TIP3    H150170   4.081   0.227   2.568 -1.7245 -0.1231  1.0694
 9585TIP3    H250171   3.999   0.256   2.444 -0.8728 -1.9545  0.0376
 9586TIP3   OH250172   4.586   0.506  15.521 -0.3608 -0.5022 -0.5962
 9586TIP3    H150173   4.559   0.426  15.565 -1.4073 -0.0718 -0.4283
 9586TIP3    H250174   4.505   0.546  15.491  0.1058  0.7043 -0.3281
 9587TIP3   OH250175   4.222   1.680   1.635  0.4243 -1.1151  0.5136
 9587TIP3    H150176   4.247   1.713   1.721  0.6590 -2.3932  0.9589
 9587TIP3    H250177   4.305   1.661   1.591  0.3362  0.4886 -0.4108
 9588TIP3   OH250178   5.549   1.882   1.295 -0.0555  0.1382  0.6435
 9588TIP3    H150179   5.634   1.858   1.330  0.6220 -0.9995 -1.6109
 9588TIP3    H250180   5.542   1.834   1.212 -2.9984 -0.0049  0.8567
 9589TIP3   OH250181   2.771   1.624   3.582 -0.1069  0.4169  0.0823
 9589TIP3    H150182   2.703   1.688   3.560  0.9939  0.7216 -2.8969
 9589TIP3    H250183   2.805   1.653   3.666  0.9313  4.3923 -1.4717
 9590TIP3   OH250184   0.814   0.099   2.482  0.4131 -0.2314  0.4179
 9590TIP3    H150185   0.850   0.051   2.408  3.2423  1.3841  0.6190
 9590TIP3    H250186   0.818   0.191   2.456  0.6143  0.3063  2.2127
 9591TIP3   OH250187   2.132   4.856   5.135  0.0288 -0.4833 -0.0963
 9591TIP3    H150188   2.129   4.846   5.231 -0.7840  2.2915  0.2272
 9591TIP3    H250189   2.203   4.919   5.120 -1.1808  0.6737 -1.1390
 9592TIP3   OH250190   4.088   1.964   5.581 -0.0889 -0.5525  0.3452
 9592TIP3    H150191   4.106   1.961   5.675 -1.5041 -1.1062  0.6349
 9592TIP3    H250192   4.035   1.886   5.565  1.1426 -1.1104 -1.1680
 9593TIP3   OH250193   4.378   5.306  13.407  0.0529  0.4644 -0.5907
 9593TIP3    H150194   4.423   5.276  13.328 -0.1914  2.0300 -1.3700
 9593TIP3    H250195   4.288   5.324  13.378  0.1183  1.6661 -0.1385
 9594TIP3   OH250196   6.601   6.695   2.343  0.0467 -0.0015 -0.6754
 9594TIP3    H150197   6.587   6.692   2.437  0.9262 -0.8009 -0.5566
 9594TIP3    H250198   6.627   6.786   2.325 -2.0981  0.6998 -0.4683
 9595TIP3   OH250199   0.577   2.319   0.464  0.0829  0.2956 -0.2940
 9595TIP3    H150200   0.637   2.389   0.439 -0.5740  1.1945  0.5297
 9595TIP3    H250201   0.492   2.348   0.432 -0.3874  0.4257  0.9792
 9596TIP3   OH250202   4.947   0.425  16.709 -0.3669 -0.1090  0.4478
 9596TIP3    H150203   4.996   0.495  16.666 -0.1093  0.0585  1.0019
 9596TIP3    H250204   5.002   0.400  16.783 -0.9948 -0.1092  0.9180
 9597TIP3   OH250205   2.821   3.861  13.069 -0.2291  0.2606 -0.3350
 9597TIP3    H150206   2.745   3.919  13.082  0.6051  1.6172 -1.1901
 9597TIP3    H250207   2.875   3.875  13.147  0.2788  1.1905 -0.8236
 9598TIP3   OH250208   6.234   2.869  15.994 -0.0644 -0.1616  0.6370
 9598TIP3    H150209   6.187   2.883  16.076 -1.2481 -3.5848  0.7061
 9598TIP3    H250210   6.169   2.827  15.936  1.4414 -0.1713 -1.1581
 9599TIP3   OH250211   4.246   1.326   3.450  0.1478 -0.0316  0.3129
 9599TIP3    H150212   4.325   1.278   3.474  0.5677  0.8383  0.7006
 9599TIP3    H250213   4.244   1.401   3.508 -0.4446  0.4823 -0.3480
 9600TIP3   OH250214   5.193   4.565  10.536  0.0258  0.1285  0.3326
 9600TIP3    H150215   5.235   4.481  10.557 -1.8913 -1.0893 -0.3968
 9600TIP3    H250216   5.114   4.566  10.589 -1.3047  0.2402 -1.5478
 9601TIP3   OH250217   4.617   3.372  17.157 -0.2660 -0.2002 -0.6279
 9601TIP3    H150218   4.533   3.373  17.201 -1.5173  1.2105 -2.8680
 9601TIP3    H250219   4.601   3.326  17.075  1.4766 -1.0054 -0.5694
 9602TIP3   OH250220   5.822   6.144  14.957 -0.2616 -0.2400  0.4453
 9602TIP3    H150221   5.909   6.146  14.998 -0.8394 -1.0022  1.7481
 9602TIP3    H250222   5.832   6.198  14.878  1.4882 -0.6137  0.3742
 9603TIP3   OH250223   5.619   1.411   4.089 -0.3887 -0.1138 -0.0427
 9603TIP3    H150224   5.658   1.346   4.147  0.5560  0.2441 -0.2601
 9603TIP3    H250225   5.668   1.404   4.007 -3.0573 -2.0860 -1.6305
 9604TIP3   OH250226   3.793   6.108   5.551 -0.3956  0.0920 -0.0449
 9604TIP3    H150227   3.729   6.061   5.604 -2.0557  4.1581  1.9897
 9604TIP3    H250228   3.794   6.197   5.587  4.0349  1.1825 -2.1274
 9605TIP3   OH250229   0.026   4.249  13.969  0.6041  0.0501  0.2605
 9605TIP3    H150230  -0.005   4.322  13.916 -0.2059  1.0208  1.9986
 9605TIP3    H250231   0.119   4.266  13.982  0.6528  0.1823 -0.2363
 9606TIP3   OH250232   4.293   5.047   0.295 -0.0631  0.0204  0.3575
 9606TIP3    H150233   4.298   4.953   0.314 -1.7678  0.0274  1.0738
 9606TIP3    H250234   4.246   5.083   0.370  1.2125  1.5780  0.4416
 9607TIP3   OH250235   5.449   2.050  10.980 -0.0564  0.7695 -0.2693
 9607TIP3    H150236   5.410   1.964  10.965 -1.1990  1.1142  0.6407
 9607TIP3    H250237   5.534   2.031  11.019 -1.0898  0.0424  1.7757
 9608TIP3   OH250238   3.308   2.948  12.597 -0.1518  0.3811 -0.6397
 9608TIP3    H150239   3.249   2.886  12.555  1.1754  0.9149 -3.4847
 9608TIP3    H250240   3.395   2.928  12.562  1.3677  0.0877  2.8444
 9609TIP3   OH250241   5.450   3.964   5.147 -0.2518  0.1139  0.1292
 9609TIP3    H150242   5.517   3.896   5.140  0.6816  0.9961  0.1993
 9609TIP3    H250243   5.432   3.969   5.241 -0.7951 -0.4710  0.0609
 9610TIP3   OH250244   6.648   2.681   3.337 -0.1987  0.2377 -0.6281
 9610TIP3    H150245   6.683   2.767   3.318  1.0026  0.1438  0.9508
 9610TIP3    H250246   6.558   2.698   3.368  0.5003  1.1185  1.0771
 9611TIP3   OH250247   3.056   0.497   4.508  0.0563  0.5442  0.1839
 9611TIP3    H150248   2.968   0.461   4.508  1.4000 -3.1394 -0.8212
 9611TIP3    H250249   3.066   0.536   4.595 -1.6129 -1.5205  1.3744
 9612TIP3   OH250250   5.610   4.749   6.233 -0.3182  0.4410 -0.4051
 9612TIP3    H150251   5.662   4.791   6.301 -2.5670  2.2467  0.3203
 9612TIP3    H250252   5.642   4.787   6.151  0.6843  0.1544 -0.1615
 9613TIP3   OH250253   4.194   0.362  15.647 -0.0829 -0.3571  0.6098
 9613TIP3    H150254   4.133   0.303  15.603  0.9015 -3.2148  2.7333
 9613TIP3    H250255   4.269   0.368  15.587 -0.4354 -0.8119  0.1104
 9614TIP3   OH250256   6.159   2.870  15.646  0.4996 -0.1922  0.2087
 9614TIP3    H150257   6.226   2.807  15.619 -1.0513 -1.6772 -0.3960
 9614TIP3    H250258   6.124   2.834  15.727 -1.0679 -0.6992 -0.6489
 9615TIP3   OH250259   4.567   1.951   3.485  0.2031  0.1634 -0.5667
 9615TIP3    H150260   4.614   1.870   3.464 -0.7988 -0.4513 -0.5031
 9615TIP3    H250261   4.478   1.936   3.454 -0.0748  1.1404 -0.2919
 9616TIP3   OH250262   3.304   2.815  11.360  0.6539  0.2148  0.4295
 9616TIP3    H150263   3.391   2.855  11.362  0.2662  1.0688  1.0377
 9616TIP3    H250264   3.319   2.726  11.329  1.3716  1.2495 -2.5567
 9617TIP3   OH250265   2.190   4.583   0.700 -0.0989  0.0515 -1.0673
 9617TIP3    H150266   2.162   4.491   0.703  1.2665 -0.3674 -0.1968
 9617TIP3    H250267   2.273   4.581   0.652  0.7460  0.5825  0.3191
 9618TIP3   OH250268   4.142   2.648   0.112 -1.2203 -0.7893  0.3642
 9618TIP3    H150269   4.178   2.735   0.091  1.3409 -1.7768  0.2349
 9618TIP3    H250270   4.050   2.653   0.087 -0.4084  0.8845 -2.7889
 9619TIP3   OH250271   1.741   2.337   3.091  0.1867  0.3716 -0.6230
 9619TIP3    H150272   1.692   2.372   3.017 -0.2810  1.1169  0.0347
 9619TIP3    H250273   1.801   2.273   3.051 -1.4611 -0.7490 -1.4225
 9620TIP3   OH250274   3.998   1.928   0.506  0.1837 -0.0045 -0.0540
 9620TIP3    H150275   3.931   1.986   0.470 -0.0044 -0.0497  0.2212
 9620TIP3    H250276   4.079   1.977   0.500  0.1352  0.0368 -0.4269
 9621TIP3   OH250277   1.509   0.753  10.875 -0.0112 -0.6009  0.9008
 9621TIP3    H150278   1.594   0.738  10.835 -0.9832 -0.7431 -1.2702
 9621TIP3    H250279   1.528   0.770  10.967  2.2736 -1.4078  0.6367
 9622TIP3   OH250280   5.094   0.634   5.126 -0.6579 -0.0453 -0.2030
 9622TIP3    H150281   5.094   0.729   5.123  0.4961  0.1932  2.9074
 9622TIP3    H250282   5.009   0.611   5.163 -0.5187 -0.1281  0.0689
 9623TIP3   OH250283   1.175   6.131  17.176 -0.3894 -0.0107  0.2018
 9623TIP3    H150284   1.162   6.225  17.157 -1.8861 -0.0910  0.6825
 9623TIP3    H250285   1.216   6.129  17.262  0.9527  0.2178 -0.4119
 9624TIP3   OH250286   2.776   3.728   2.209  0.0985 -0.6926  0.2335
 9624TIP3    H150287   2.829   3.798   2.172  0.9243 -1.1856  0.4608
 9624TIP3    H250288   2.831   3.650   2.203 -1.7408 -1.9266 -2.4262
 9625TIP3   OH250289   6.499   6.045   3.991 -0.3403  0.4211  0.8588
 9625TIP3    H150290   6.509   5.980   4.060 -1.3005 -0.4933  0.1594
 9625TIP3    H250291   6.545   6.008   3.916  0.6579  1.3883  0.9587
 9626TIP3   OH250292   0.669   1.213  14.863 -0.2122 -0.0125  0.2411
 9626TIP3    H150293   0.730   1.167  14.806 -2.1259 -1.1529 -0.9996
 9626TIP3    H250294   0.722   1.241  14.938  2.4501  1.7523 -2.1205
 9627TIP3   OH250295   6.184   3.794  16.124  0.7137  0.0995  0.0498
 9627TIP3    H150296   6.252   3.794  16.056  0.7009  0.5309  0.0303
 9627TIP3    H250297   6.148   3.883  16.121  1.2055  0.3623  1.1061
 9628TIP3   OH250298   1.655   6.179   1.478  0.0808  0.1351  0.9847
 9628TIP3    H150299   1.639   6.106   1.538  0.3438 -0.9566 -0.2298
 9628TIP3    H250300   1.743   6.209   1.500 -0.3599  0.6789  2.0738
 9629TIP3   OH250301   4.324   6.383   4.832 -0.0216  0.0361  0.1347
 9629TIP3    H150302   4.419   6.373   4.827 -0.1613 -1.5196  0.0300
 9629TIP3    H250303   4.303   6.364   4.924 -0.1762  1.1296  0.3394
 9630TIP3   OH250304   0.674   0.651   2.570  0.1424  0.4401 -0.4731
 9630TIP3    H150305   0.638   0.732   2.533 -2.4064 -0.0972  0.5978
 9630TIP3    H250306   0.680   0.669   2.664  0.4253 -0.3278 -0.3416
 9631TIP3   OH250307   5.162   0.315  10.715 -0.3196  0.0870  0.4319
 9631TIP3    H150308   5.164   0.407  10.740 -1.3012  0.5169 -0.8835
 9631TIP3    H250309   5.081   0.282  10.754 -0.0896 -0.1530  0.7048
 9632TIP3   OH250310   3.862   2.263   1.974  0.1048  0.3195  0.4243
 9632TIP3    H150311   3.861   2.209   1.895 -0.9808  0.7799  0.1032
 9632TIP3    H250312   3.786   2.320   1.965  0.7190  1.2896  1.1870
 9633TIP3   OH250313   0.314   3.498  15.399  0.2088  0.0935  0.3665
 9633TIP3    H150314   0.258   3.523  15.325 -0.2641  0.1706  0.7436
 9633TIP3    H250315   0.393   3.551  15.388  0.1392  0.1073 -0.0813
 9634TIP3   OH250316   3.775   2.937   3.434  0.5865 -0.4036 -0.1260
 9634TIP3    H150317   3.858   2.984   3.422  0.0432  0.8646  0.8177
 9634TIP3    H250318   3.797   2.864   3.492  0.5703  1.7065  2.7940
 9635TIP3   OH250319   3.817   5.439   1.377 -0.1167  0.0438 -0.5521
 9635TIP3    H150320   3.764   5.518   1.370 -0.9162 -0.2712  1.3381
 9635TIP3    H250321   3.760   5.369   1.343  0.5052  0.2201 -2.0101
 9636TIP3   OH250322   3.098   3.746   4.888 -0.2067  0.1390 -0.2766
 9636TIP3    H150323   3.123   3.672   4.833 -1.3733  1.0626 -2.1442
 9636TIP3    H250324   3.033   3.710   4.949  0.0791 -0.6085 -0.4066
 9637TIP3   OH250325   3.375   6.526  16.663 -0.5415 -0.2676  0.1648
 9637TIP3    H150326   3.445   6.500  16.723 -0.5681  0.9066  0.7266
 9637TIP3    H250327   3.418   6.582  16.598 -0.4831 -1.6547 -1.0399
 9638TIP3   OH250328   0.918   4.399   4.518 -0.5157 -0.5187 -0.9330
 9638TIP3    H150329   0.895   4.344   4.444 -0.6447  2.1154 -2.9940
 9638TIP3    H250330   0.841   4.454   4.532 -0.1258 -0.3089  0.5429
 9639TIP3   OH250331   6.712   3.979  12.527  0.1221 -0.3893  0.1532
 9639TIP3    H150332   6.659   3.933  12.461  1.1710  0.2871 -1.2250
 9639TIP3    H250333   6.648   4.016  12.588 -1.0183  0.3262 -1.4044
 9640TIP3   OH250334   2.718   1.186  15.940 -0.3453 -0.1338 -0.5564
 9640TIP3    H150335   2.658   1.258  15.962  1.0002  1.6289 -2.2642
 9640TIP3    H250336   2.667   1.128  15.883 -1.5474 -0.7477  1.0974
 9641TIP3   OH250337   2.333   4.866   2.543 -0.3911 -0.6199  0.4502
 9641TIP3    H150338   2.325   4.960   2.533 -2.5189 -0.6719  1.1303
 9641TIP3    H250339   2.409   4.854   2.600 -0.9600  0.7775  1.5410
 9642TIP3   OH250340   1.338   5.087  15.467 -0.0345 -0.2198  0.6559
 9642TIP3    H150341   1.282   5.063  15.541 -0.4947  0.8675  0.6827
 9642TIP3    H250342   1.411   5.026  15.472 -0.7571 -1.0737  1.1697
 9643TIP3   OH250343   2.176   2.646  11.718  0.2250  0.0430 -0.1242
 9643TIP3    H150344   2.199   2.560  11.683 -1.1730 -0.2077 -0.4881
 9643TIP3    H250345   2.228   2.654  11.798  1.1906 -0.6620 -0.6592
 9644TIP3   OH250346   1.506   3.438   3.355 -0.0845  0.2932  0.5103
 9644TIP3    H150347   1.525   3.489   3.276  1.7344 -0.8360  0.1607
 9644TIP3    H250348   1.575   3.463   3.416 -0.6767  0.1275  1.2607
 9645TIP3   OH250349   0.543   5.198  15.317  0.4448  0.4317  0.1906
 9645TIP3    H150350   0.477   5.145  15.273 -0.4723  1.1344  0.6696
 9645TIP3    H250351   0.602   5.135  15.358 -1.5011 -0.2821  2.0758
 9646TIP3   OH250352   5.330   6.261   0.729 -0.3618  0.3786  0.4548
 9646TIP3    H150353   5.387   6.338   0.734  0.7125 -0.3844  0.4009
 9646TIP3    H250354   5.256   6.281   0.787 -0.1551  1.4840  0.3558
 9647TIP3   OH250355   3.248   3.691  12.062  0.0058  0.3898 -0.1773
 9647TIP3    H150356   3.207   3.759  12.007  1.1336  1.1894 -0.0486
 9647TIP3    H250357   3.175   3.655  12.112 -0.3947  2.7196  1.0542
 9648TIP3   OH250358   3.008   5.075   4.719  0.5537  0.9504 -0.4835
 9648TIP3    H150359   2.996   5.058   4.812 -0.7070 -0.2692 -0.8323
 9648TIP3    H250360   3.013   5.170   4.712 -1.3633  1.1805  0.6335
 9649TIP3   OH250361   5.168   0.292   1.605  0.6384 -0.2216  0.0882
 9649TIP3    H150362   5.234   0.303   1.674  0.7134  0.2654 -0.0608
 9649TIP3    H250363   5.103   0.359   1.623  1.0268  0.3988 -0.7362
 9650TIP3   OH250364   1.525   3.125   5.415 -0.2397 -0.5241 -0.1303
 9650TIP3    H150365   1.449   3.140   5.472  1.1648  0.3663  1.6141
 9650TIP3    H250366   1.594   3.179   5.452  1.2636 -1.2714 -1.6901
 9651TIP3   OH250367   2.308   6.298   5.223  0.2304 -0.1042  0.0301
 9651TIP3    H150368   2.319   6.319   5.316  1.6940 -0.4775 -0.0446
 9651TIP3    H250369   2.226   6.247   5.220  0.2901 -0.2982  1.1522
 9652TIP3   OH250370   6.538   0.426  15.718 -0.4551 -0.2197  0.2459
 9652TIP3    H150371   6.458   0.469  15.748 -0.1481 -0.3230  1.2702
 9652TIP3    H250372   6.528   0.418  15.623 -0.8231  1.5030  0.1061
 9653TIP3   OH250373   3.674   5.279   3.680 -0.2205 -0.0866 -0.8246
 9653TIP3    H150374   3.672   5.351   3.618 -1.0586  0.9375  0.3545
 9653TIP3    H250375   3.671   5.200   3.626 -0.7436  0.7680 -2.0718
 9654TIP3   OH250376   0.392   0.801   2.346  0.1875 -0.2687  0.0075
 9654TIP3    H150377   0.365   0.796   2.438  0.2045  0.1766  0.0365
 9654TIP3    H250378   0.443   0.881   2.340  0.7090 -0.6145 -0.2598
 9655TIP3   OH250379   2.299   1.514  16.988 -0.0209  0.8126 -0.5594
 9655TIP3    H150380   2.221   1.510  17.045  0.5038 -2.5870  0.1452
 9655TIP3    H250381   2.372   1.498  17.047  0.9442  1.0002 -1.6750
 9656TIP3   OH250382   2.066   1.635   5.457  0.3948 -0.3515 -0.4264
 9656TIP3    H150383   2.105   1.685   5.529  0.6885 -0.9001 -0.1937
 9656TIP3    H250384   2.025   1.701   5.401 -1.9388 -0.0749  1.4651
 9657TIP3   OH250385   4.942   4.262  16.150  0.5369 -0.1375  0.0398
 9657TIP3    H150386   4.926   4.212  16.231  2.5599 -0.0797  0.5286
 9657TIP3    H250387   4.871   4.236  16.092 -0.7526 -0.4911  1.6930
 9658TIP3   OH250388   0.198   6.732  14.895 -0.0610  0.7182 -0.9851
 9658TIP3    H150389   0.178   6.644  14.862  0.9927  0.5165 -1.1208
 9658TIP3    H250390   0.168   6.731  14.986  0.5050  0.0110 -0.8031
 9659TIP3   OH250391   1.551   0.062  11.740 -0.3339  0.1524  0.7161
 9659TIP3    H150392   1.609   0.138  11.746  0.6311 -0.5999  1.2867
 9659TIP3    H250393   1.486   0.086  11.674 -0.0417  1.4575  0.8715
 9660TIP3   OH250394   3.988   1.089  15.007  0.1204  0.0694 -0.8216
 9660TIP3    H150395   4.070   1.125  15.042  0.6467  0.2351 -2.1723
 9660TIP3    H250396   3.989   1.113  14.914 -0.8604 -1.0282 -1.1340
 9661TIP3   OH250397   0.157   2.157   3.500  0.0898 -0.6066  0.2150
 9661TIP3    H150398   0.200   2.207   3.431 -1.1646 -1.5212 -1.3029
 9661TIP3    H250399   0.063   2.165   3.480 -0.2613 -1.3820  1.4644
 9662TIP3   OH250400   0.169   3.846   0.662 -0.1102 -0.6127  0.1768
 9662TIP3    H150401   0.165   3.875   0.571 -0.9422 -0.3945  0.2703
 9662TIP3    H250402   0.262   3.850   0.685  0.1413 -0.9802 -0.7533
 9663TIP3   OH250403   0.284   6.152   3.510  0.3828 -0.0591 -0.1779
 9663TIP3    H150404   0.223   6.214   3.550  1.3036  0.9051 -0.1982
 9663TIP3    H250405   0.309   6.194   3.427 -0.0010 -1.1055 -0.8446
 9664TIP3   OH250406   6.488   5.716  16.743 -0.3289  0.3391  0.2730
 9664TIP3    H150407   6.503   5.729  16.837  0.2299 -1.2209  0.4449
 9664TIP3    H250408   6.541   5.784  16.701 -1.4200  1.7396  1.0790
 9665TIP3   OH250409   2.919   1.743   1.018  0.1133  0.0092  0.4666
 9665TIP3    H150410   2.856   1.815   1.023 -1.1518 -1.0616  0.2892
 9665TIP3    H250411   2.937   1.733   0.925  0.8559  0.5533  0.5412
 9666TIP3   OH250412   3.798   5.930   3.249  0.3775  0.2453  0.5579
 9666TIP3    H150413   3.797   5.966   3.160  2.3744 -2.7116 -0.8116
 9666TIP3    H250414   3.729   5.979   3.294 -0.0214  2.6245 -2.2576
 9667TIP3   OH250415   3.468   1.894  13.164 -0.4354 -0.3722 -0.1830
 9667TIP3    H150416   3.410   1.966  13.190 -1.7113 -0.6546 -2.0773
 9667TIP3    H250417   3.409   1.821  13.145  0.6563 -1.1185 -0.8016
 9668TIP3   OH250418   0.417   1.111  15.089  0.5861 -0.3909 -0.1743
 9668TIP3    H150419   0.498   1.072  15.123  0.1183 -0.6206  0.7069
 9668TIP3    H250420   0.384   1.164  15.162 -0.7083 -1.3025 -0.0679
 9669TIP3   OH250421   4.181   4.084  13.602 -0.3760  0.3122  0.6239
 9669TIP3    H150422   4.119   4.118  13.667 -0.9110 -0.4341  0.5150
 9669TIP3    H250423   4.164   3.989  13.600 -1.6469  0.5283 -1.9361
 9670TIP3   OH250424   1.737   5.219   2.465 -0.3428  0.3002 -0.5067
 9670TIP3    H150425   1.650   5.250   2.488 -0.0591  1.3115 -0.7520
 9670TIP3    H250426   1.749   5.139   2.517 -0.2214  1.8071  1.8901
 9671TIP3   OH250427   3.512   6.433  15.038 -0.1277  0.1435 -0.8858
 9671TIP3    H150428   3.439   6.371  15.047 -0.1850 -0.0115 -2.2065
 9671TIP3    H250429   3.471   6.513  15.005 -0.2422  1.3505  1.9543
 9672TIP3   OH250430   1.370   4.455   2.102 -0.1445 -0.1757 -0.2758
 9672TIP3    H150431   1.399   4.435   2.191  2.4256  0.2846 -0.8998
 9672TIP3    H250432   1.351   4.549   2.105 -1.5187 -0.4543  0.1121
 9673TIP3   OH250433   5.499   0.126   0.620 -0.4682  0.1900 -0.1065
 9673TIP3    H150434   5.468   0.065   0.686 -0.8196  0.2883 -0.1815
 9673TIP3    H250435   5.451   0.102   0.541 -1.2121  1.0854  0.0617
 9674TIP3   OH250436   5.488   2.753   2.042 -0.0708 -0.0505  0.3676
 9674TIP3    H150437   5.436   2.833   2.032  0.8148  0.5606  0.5215
 9674TIP3    H250438   5.529   2.740   1.957  0.6303  0.2712  0.6494
 9675TIP3   OH250439   1.996   2.151   5.716 -0.6883  0.1986  0.3161
 9675TIP3    H150440   1.973   2.243   5.702  0.5475  0.4970  0.1054
 9675TIP3    H250441   1.953   2.128   5.798 -0.6803  1.0892  0.5799
 9676TIP3   OH250442   6.656   0.090  12.200  0.6492  0.4872 -0.2821
 9676TIP3    H150443   6.610   0.105  12.117 -0.8018  0.6976  0.5197
 9676TIP3    H250444   6.589   0.104  12.267  1.5673 -0.5589  0.8963
 9677TIP3   OH250445   4.994   4.850  15.291  0.7084 -0.3684 -0.4873
 9677TIP3    H150446   5.036   4.765  15.275 -0.1605 -0.6859 -1.1704
 9677TIP3    H250447   4.986   4.890  15.204 -0.8015 -0.5264 -0.4472
 9678TIP3   OH250448   5.439   6.237   3.453  0.2846  0.4958  0.5433
 9678TIP3    H150449   5.445   6.306   3.387  0.5311 -0.2877 -0.2759
 9678TIP3    H250450   5.373   6.177   3.418  0.6868 -0.1150  0.8247
 9679TIP3   OH250451   4.939   6.637  17.044 -0.2116  0.3426 -0.0508
 9679TIP3    H150452   4.918   6.560  16.991 -2.7869  1.0083 -0.1731
 9679TIP3    H250453   4.948   6.604  17.133 -0.1256 -0.2462 -0.2750
 9680TIP3   OH250454   5.541   5.735  12.535 -0.1788  0.4045 -0.8106
 9680TIP3    H150455   5.453   5.770  12.519 -0.9170 -1.8646 -2.2338
 9680TIP3    H250456   5.589   5.808  12.573 -2.6215  1.7847 -0.1421
 9681TIP3   OH250457   0.983   1.183  15.362 -0.1864  0.9734 -0.1424
 9681TIP3    H150458   1.011   1.186  15.454 -0.3545  0.6305 -0.0781
 9681TIP3    H250459   1.033   1.253  15.320  2.0691 -0.6800 -0.3967
 9682TIP3   OH250460   0.293   5.152  14.506  0.5899 -0.2179  0.7146
 9682TIP3    H150461   0.199   5.158  14.524  0.5130 -0.5780  0.4442
 9682TIP3    H250462   0.330   5.230  14.547 -0.0357  0.7923 -0.5891
 9683TIP3   OH250463   3.468   4.696   4.483 -0.2069 -0.2556 -0.2828
 9683TIP3    H150464   3.411   4.755   4.435 -1.4871 -1.6630 -0.5638
 9683TIP3    H250465   3.536   4.753   4.520 -1.0917  1.2960 -0.9551
 9684TIP3   OH250466   1.774   6.033   3.643  0.6281  0.2356  0.0451
 9684TIP3    H150467   1.809   5.944   3.643 -0.3999 -0.2677  2.3985
 9684TIP3    H250468   1.724   6.038   3.725 -2.2541  1.8610 -1.6696
 9685TIP3   OH250469   2.766   5.040  15.760 -0.0526  0.3217 -0.2355
 9685TIP3    H150470   2.675   5.028  15.790 -0.0484  1.8799  0.4940
 9685TIP3    H250471   2.793   4.953  15.732 -1.4354 -0.3856  0.5059
 9686TIP3   OH250472   0.292   3.044   0.282  0.2702  0.3655 -0.1834
 9686TIP3    H150473   0.291   3.096   0.202 -0.3102 -0.2944 -0.6164
 9686TIP3    H250474   0.362   2.980   0.267 -0.6912 -0.5881 -0.7221
 9687TIP3   OH250475   6.760   2.799  15.179 -0.8074 -0.3108 -0.1854
 9687TIP3    H150476   6.852   2.778  15.193 -0.9769 -1.2362 -0.3565
 9687TIP3    H250477   6.747   2.883  15.223 -0.2495 -0.9346  1.2528
 9688TIP3   OH250478   2.659   3.906  14.695  0.5066 -0.0515  0.7957
 9688TIP3    H150479   2.570   3.908  14.731  0.1359 -0.1416 -0.0905
 9688TIP3    H250480   2.715   3.926  14.770 -0.2027 -0.6910  1.5227
 9689TIP3   OH250481   4.713   4.463   5.051 -0.5000 -0.3499 -0.4616
 9689TIP3    H150482   4.748   4.458   4.963 -0.2313  0.1865 -0.3923
 9689TIP3    H250483   4.618   4.463   5.040 -0.4713  0.5878 -0.8154
 9690TIP3   OH250484   1.416   2.237   1.975  0.4612  0.6081 -0.1417
 9690TIP3    H150485   1.341   2.288   1.945 -0.4099 -0.2391  0.5569
 9690TIP3    H250486   1.418   2.161   1.916 -0.2862 -0.2457  0.9084
 9691TIP3   OH250487   2.257   3.366  15.751 -0.1578  0.2493  0.2552
 9691TIP3    H150488   2.211   3.328  15.676 -1.2055  1.8731  0.0358
 9691TIP3    H250489   2.189   3.377  15.818  0.3988  0.5277  0.7852
 9692TIP3   OH250490   5.897   3.709  10.782 -0.3438  0.1787 -0.2650
 9692TIP3    H150491   5.982   3.670  10.803 -0.5714 -0.1226  0.1011
 9692TIP3    H250492   5.903   3.732  10.689 -0.0623 -0.3477 -0.3780
 9693TIP3   OH250493   3.785   3.458  14.053 -0.3255 -0.4158 -0.3392
 9693TIP3    H150494   3.754   3.466  14.144 -0.0545  0.0390 -0.2855
 9693TIP3    H250495   3.716   3.500  14.001 -0.6967 -1.0733 -0.3881
 9694TIP3   OH250496   0.451   2.495  11.513  0.0192  0.2318 -0.1268
 9694TIP3    H150497   0.365   2.457  11.493  0.6359 -1.1357 -0.2991
 9694TIP3    H250498   0.463   2.478  11.607 -0.3227  1.3380  0.1298
 9695TIP3   OH250499   6.059   1.008  12.431 -0.3725  0.7929  0.1741
 9695TIP3    H150500   6.063   1.101  12.454  0.3200  0.9724 -0.5911
 9695TIP3    H250501   6.017   1.006  12.345 -1.4755  0.2840  0.7106
 9696TIP3   OH250502   5.505   4.702  12.906  0.0425  0.2222 -0.2408
 9696TIP3    H150503   5.520   4.657  12.823 -1.3179 -0.6770 -0.0486
 9696TIP3    H250504   5.411   4.722  12.905 -0.0296  0.0472  1.1321
 9697TIP3   OH250505   3.746   5.666   3.292 -0.0411  0.0593  0.5498
 9697TIP3    H150506   3.770   5.757   3.277 -0.2238  0.1838  0.9962
 9697TIP3    H250507   3.747   5.656   3.387  2.6473 -1.1382  0.4888
 9698TIP3   OH250508   5.151   1.754  16.425 -0.7763  0.5657  0.1745
 9698TIP3    H150509   5.113   1.689  16.483  1.8236 -0.8325  0.4563
 9698TIP3    H250510   5.245   1.746  16.439 -0.2819  3.3814 -0.8953
 9699TIP3   OH250511   3.704   3.522   3.209  0.2949  0.0038  0.1369
 9699TIP3    H150512   3.667   3.548   3.294 -0.8544 -1.6387  0.1896
 9699TIP3    H250513   3.628   3.505   3.154  1.0240 -0.4542 -0.7563
 9700TIP3   OH250514   6.465   2.212  12.009  0.8673 -0.1974  0.3402
 9700TIP3    H150515   6.547   2.229  11.964  0.1513 -0.0255 -0.9402
 9700TIP3    H250516   6.484   2.136  12.065  1.3930 -1.4135 -1.3905
 9701TIP3   OH250517   5.145   0.434  14.252  0.1947  0.2827 -0.2720
 9701TIP3    H150518   5.229   0.406  14.288 -0.5190 -3.1550 -0.9335
 9701TIP3    H250519   5.167   0.473  14.168  1.1871 -0.5686 -0.4365
 9702TIP3   OH250520   0.553   2.045   5.371  0.8093  0.6036  0.3683
 9702TIP3    H150521   0.576   2.132   5.404  0.4012  1.1074 -0.6309
 9702TIP3    H250522   0.624   2.023   5.310  0.8151  0.3194  0.4761
 9703TIP3   OH250523   1.327   5.904   2.910 -0.0431  0.3633  0.0631
 9703TIP3    H150524   1.364   5.926   2.995  0.4337  1.7435 -0.4758
 9703TIP3    H250525   1.301   5.988   2.872  0.4936 -0.1167 -1.4745
 9704TIP3   OH250526   3.712   2.524  11.157 -0.0594 -0.0543  0.2992
 9704TIP3    H150527   3.798   2.531  11.118 -1.0221  2.0057 -1.6709
 9704TIP3    H250528   3.728   2.527  11.252  1.9914  0.6027 -0.0295
 9705TIP3   OH250529   6.016   2.685  12.618 -0.2087 -0.2419 -0.0197
 9705TIP3    H150530   6.017   2.591  12.636 -0.2396 -0.2499 -0.0592
 9705TIP3    H250531   6.090   2.698  12.558 -0.2580 -0.2560 -0.0843
 9706TIP3   OH250532   2.191   0.512   5.749 -0.3629 -0.1682  0.0816
 9706TIP3    H150533   2.245   0.532   5.826 -0.6285 -0.6340  0.3955
 9706TIP3    H250534   2.199   0.417   5.739 -0.0893 -0.0693 -0.6518
 9707TIP3   OH250535   5.585   6.657  16.676 -0.0819  0.0403 -0.0792
 9707TIP3    H150536   5.666   6.652  16.725  0.3757 -1.0762 -0.9216
 9707TIP3    H250537   5.520   6.615  16.732 -0.3747  1.9359  1.0982
 9708TIP3   OH250538   0.535   3.607  16.505 -0.0440  0.1806 -0.1053
 9708TIP3    H150539   0.459   3.627  16.451 -0.1006  0.8402  0.2097
 9708TIP3    H250540   0.522   3.517  16.533 -0.3553  0.0567 -0.6309
 9709TIP3   OH250541   6.501   3.800   3.483  0.3217  0.1551 -0.0824
 9709TIP3    H150542   6.428   3.766   3.534  0.0800  1.6123  0.5973
 9709TIP3    H250543   6.578   3.783   3.536  0.1118  1.3262  0.6441
 9710TIP3   OH250544   5.933   1.362   3.639  0.3690  0.0356 -0.1732
 9710TIP3    H150545   5.882   1.417   3.578  0.1667  0.3051  0.2353
 9710TIP3    H250546   5.912   1.272   3.614 -0.3794  0.1443  0.0449
 9711TIP3   OH250547   5.563   5.941  14.015  0.4643  0.5548  0.5153
 9711TIP3    H150548   5.608   5.878  13.958  1.2370  0.7216  0.9321
 9711TIP3    H250549   5.626   6.011  14.028  0.1777  0.6689  1.3250
 9712TIP3   OH250550   5.633   3.065  16.399 -0.2751  0.5930  0.0711
 9712TIP3    H150551   5.638   3.020  16.484 -2.4177  0.2674  0.0683
 9712TIP3    H250552   5.710   3.034  16.351 -0.7694 -1.8115  0.6885
 9713TIP3   OH250553   6.055   1.838  14.850  0.2238  0.2337 -0.2742
 9713TIP3    H150554   6.072   1.926  14.885  2.9989  0.5521 -2.1010
 9713TIP3    H250555   6.009   1.853  14.767  0.1884 -0.0682 -0.3107
 9714TIP3   OH250556   4.354   3.406   4.092  0.0921  0.0914  0.3975
 9714TIP3    H150557   4.266   3.371   4.105 -0.1725 -0.0600 -1.5268
 9714TIP3    H250558   4.390   3.354   4.020  0.9214  1.6115 -0.3380
 9715TIP3   OH250559   2.320   4.645   5.876  0.4915  1.0528 -0.0665
 9715TIP3    H150560   2.322   4.554   5.904  0.6271  1.2452  0.5767
 9715TIP3    H250561   2.354   4.644   5.786 -0.2852  0.3756 -0.3636
 9716TIP3   OH250562   6.453   2.116  13.956  0.4409  0.0189  0.0024
 9716TIP3    H150563   6.494   2.055  14.017 -0.0855 -0.5796 -0.2293
 9716TIP3    H250564   6.518   2.127  13.886  0.0088 -1.3400 -0.6321
 9717TIP3   OH250565   3.541   2.800   0.019 -0.8932 -0.1000 -0.5923
 9717TIP3    H150566   3.635   2.797   0.033 -1.0568 -1.9239  0.5252
 9717TIP3    H250567   3.530   2.835  -0.069  0.8543 -0.3806 -0.9479
 9718TIP3   OH250568   4.850   2.814   1.354 -0.4302  0.1981 -0.6022
 9718TIP3    H150569   4.856   2.856   1.268 -0.1097  1.5252  0.0388
 9718TIP3    H250570   4.882   2.880   1.415 -0.7139 -0.6977  0.5533
 9719TIP3   OH250571   5.673   0.591  13.740  0.2484  0.3612  0.4456
 9719TIP3    H150572   5.701   0.505  13.708  1.2896  1.2493 -1.1969
 9719TIP3    H250573   5.595   0.611  13.689  1.2773  1.2993 -0.8462
 9720TIP3   OH250574   3.923   5.501   3.989 -0.4205  0.7592 -0.1561
 9720TIP3    H150575   3.995   5.439   3.990 -0.5016  0.6592 -0.6931
 9720TIP3    H250576   3.844   5.447   3.982 -0.7066  0.7318  2.2272
 9721TIP3   OH250577   0.602   5.930  15.516  0.1575 -0.1160 -0.1776
 9721TIP3    H150578   0.560   6.012  15.543 -0.5400 -0.8556  1.0301
 9721TIP3    H250579   0.651   5.902  15.593 -0.6379 -1.4849 -0.1486
 9722TIP3   OH250580   2.037   5.180  15.325  0.8619 -0.1380 -0.3164
 9722TIP3    H150581   2.125   5.197  15.291  0.6172 -1.4522 -1.7300
 9722TIP3    H250582   1.982   5.247  15.284  0.8869 -0.5500 -1.0380
 9723TIP3   OH250583   4.636   4.896   1.223 -0.2158  0.4856  0.6875
 9723TIP3    H150584   4.632   4.857   1.135 -1.5744  1.1669  0.4089
 9723TIP3    H250585   4.663   4.824   1.280 -1.6832 -0.6486  0.0477
 9724TIP3   OH250586   1.484   5.019   5.116  1.0460  0.0379 -0.3542
 9724TIP3    H150587   1.442   4.937   5.090  0.6103  0.5537 -1.3368
 9724TIP3    H250588   1.568   4.993   5.154  0.2062 -0.9626  0.9123
 9725TIP3   OH250589   3.603   4.848  12.227 -0.2366 -0.1175 -0.2305
 9725TIP3    H150590   3.561   4.828  12.143 -1.3984 -1.1076  0.5389
 9725TIP3    H250591   3.543   4.910  12.270 -0.6533 -1.0757  0.6293
 9726TIP3   OH250592   4.825   2.279   4.033  0.3855 -0.0416 -0.3946
 9726TIP3    H150593   4.896   2.324   4.078 -1.8887  2.3135  1.0940
 9726TIP3    H250594   4.855   2.271   3.942  2.6968  0.3977  0.2704
 9727TIP3   OH250595   2.938   0.955  12.154 -0.2128  0.3495  0.1963
 9727TIP3    H150596   2.968   0.889  12.218  0.4609  0.1551 -0.2994
 9727TIP3    H250597   2.849   0.928  12.131 -0.2603  0.1118  0.6537
 9728TIP3   OH250598   1.158   4.829  16.658 -0.1839  1.0004  0.2318
 9728TIP3    H150599   1.173   4.895  16.726 -1.1356  0.1028  1.3596
 9728TIP3    H250600   1.158   4.746  16.705  0.9206  0.1782 -1.1520
 9729TIP3   OH250601   2.673   3.187   4.704  0.6376 -0.0675 -0.1896
 9729TIP3    H150602   2.714   3.172   4.619  0.2157 -1.6334 -0.1514
 9729TIP3    H250603   2.614   3.113   4.715  0.2529  0.4231  1.2098
 9730TIP3   OH250604   0.956   3.693   0.837 -0.2284 -0.2424 -0.0611
 9730TIP3    H150605   0.995   3.741   0.764  0.3163  0.0969  0.4421
 9730TIP3    H250606   0.999   3.607   0.835  0.5025  0.1034  0.4454
 9731TIP3   OH250607   1.222   3.704   4.986 -0.2530 -0.1099 -0.0233
 9731TIP3    H150608   1.301   3.732   4.941 -1.0736  1.9074 -0.3439
 9731TIP3    H250609   1.240   3.719   5.079  0.4317 -1.5927  0.1062
 9732TIP3   OH250610   5.486   5.219   5.932  0.7118  0.6608  0.2656
 9732TIP3    H150611   5.521   5.228   6.021 -2.2532  0.1109  1.6119
 9732TIP3    H250612   5.453   5.129   5.927 -1.1479  1.3192 -0.5426
 9733TIP3   OH250613   4.246   3.174  14.473  0.5730 -0.8675  0.4972
 9733TIP3    H150614   4.168   3.161  14.527  0.5789 -1.0388  0.4663
 9733TIP3    H250615   4.215   3.227  14.399  0.3479 -1.4300  0.1774
 9734TIP3   OH250616   2.450   2.155  12.683 -0.4438  0.0622  0.5258
 9734TIP3    H150617   2.489   2.227  12.634  0.5589 -0.2700  0.8182
 9734TIP3    H250618   2.522   2.118  12.734 -1.1204 -0.6248  1.0146
 9735TIP3   OH250619   5.957   3.691  14.171  0.7122  0.4057  0.6050
 9735TIP3    H150620   5.976   3.710  14.263  0.8874 -1.7670  1.0547
 9735TIP3    H250621   5.908   3.609  14.173  1.0510  0.1221 -1.2709
 9736TIP3   OH250622   2.898   6.711  15.788 -0.0655  0.1297  0.1808
 9736TIP3    H150623   2.940   6.778  15.843  0.6435 -0.2580  0.1250
 9736TIP3    H250624   2.805   6.719  15.808  0.1036  0.5136  0.8675
 9737TIP3   OH250625   4.084   5.661  14.072 -0.4675 -0.5583 -0.4298
 9737TIP3    H150626   3.993   5.681  14.094  0.2443  0.4710  1.8551
 9737TIP3    H250627   4.101   5.576  14.111  0.1882  0.3343  1.3680
 9738TIP3   OH250628   5.480   5.213   0.488  0.1892  0.3088  0.1466
 9738TIP3    H150629   5.497   5.146   0.555  3.0613  2.4851  1.7863
 9738TIP3    H250630   5.411   5.268   0.527  0.6711  0.6018  0.5982
 9739TIP3   OH250631   4.970   2.804   2.683  0.2663 -0.4205  0.0562
 9739TIP3    H150632   4.956   2.886   2.730 -1.8652  0.6587 -2.1993
 9739TIP3    H250633   4.903   2.744   2.717 -0.2421 -0.1462 -0.4242
 9740TIP3   OH250634   4.661   5.768   0.643 -0.6017 -0.2199  0.3506
 9740TIP3    H150635   4.722   5.835   0.614 -2.5788  0.4172 -2.9327
 9740TIP3    H250636   4.715   5.691   0.659  1.2084  0.6954 -1.0093
 9741TIP3   OH250637   0.955   4.635   5.498 -0.4052  0.1067  0.1684
 9741TIP3    H150638   0.903   4.614   5.576 -0.6790  0.6762  0.1473
 9741TIP3    H250639   0.894   4.683   5.442 -0.4654 -1.0509 -0.7865
 9742TIP3   OH250640   4.891   4.128  13.880 -0.7125  0.5157 -0.2400
 9742TIP3    H150641   4.926   4.077  13.953  0.4340  1.6876  0.0559
 9742TIP3    H250642   4.830   4.189  13.921 -0.8974  0.4446 -0.4073
 9743TIP3   OH250643   2.080   4.729   4.227 -0.4779  0.5935 -0.4363
 9743TIP3    H150644   2.017   4.692   4.166  0.1953 -0.9975 -0.2213
 9743TIP3    H250645   2.033   4.801   4.270 -1.2366  1.1837 -2.1620
 9744TIP3   OH250646   1.163   4.704  15.596 -0.3128 -0.3125 -0.3526
 9744TIP3    H150647   1.145   4.635  15.660  0.0612 -0.6133 -0.5655
 9744TIP3    H250648   1.247   4.679  15.557 -0.4931 -0.0863 -0.8932
 9745TIP3   OH250649   6.401   4.713  15.465  0.2689 -0.2366 -0.1343
 9745TIP3    H150650   6.347   4.782  15.428  1.7851  0.2789 -1.4654
 9745TIP3    H250651   6.375   4.634  15.417 -0.0311 -0.2137 -0.0161
 9746TIP3   OH250652   2.995   3.195  17.185 -0.1835  0.0026  0.1931
 9746TIP3    H150653   3.077   3.210  17.231 -0.1682 -2.1515  0.9476
 9746TIP3    H250654   2.944   3.139  17.244 -1.5805  0.0558 -0.9176
 9747TIP3   OH250655   0.081   0.959  15.359 -0.0264  0.0693 -0.1538
 9747TIP3    H150656   0.025   0.902  15.410 -2.3868  1.8741 -0.5687
 9747TIP3    H250657   0.022   1.026  15.323  2.4311  2.3372 -0.3090
 9748TIP3   OH250658   2.207   6.642  15.719  0.3492 -0.0636 -0.2726
 9748TIP3    H150659   2.292   6.660  15.760  0.2924  0.0095 -0.1860
 9748TIP3    H250660   2.228   6.616  15.630  0.4523  0.1532 -0.3136
 9749TIP3   OH250661   3.580   3.282  12.947  0.3078 -0.1661 -0.0668
 9749TIP3    H150662   3.663   3.235  12.939  0.6456  0.5781 -1.1849
 9749TIP3    H250663   3.564   3.318  12.859 -0.5794  0.7228  0.4368
 9750TIP3   OH250664   6.103   4.665   1.430  0.0981  0.3721 -0.2133
 9750TIP3    H150665   6.033   4.600   1.426  0.5862 -0.1131 -1.0119
 9750TIP3    H250666   6.165   4.630   1.494 -0.5009  0.9345  0.7022
 9751TIP3   OH250667   5.323   2.947   1.956  0.2388 -0.3901 -0.3849
 9751TIP3    H150668   5.248   2.896   1.986 -0.2859  0.4190 -0.2797
 9751TIP3    H250669   5.308   2.957   1.862 -0.9577  1.5826 -0.0452
 9752TIP3   OH250670   0.111   6.059  14.074  0.0323  0.0073 -0.1292
 9752TIP3    H150671   0.139   6.145  14.105 -0.8477  0.5331 -0.7294
 9752TIP3    H250672   0.187   6.024  14.028  0.6234  0.1634  0.7227
 9753TIP3   OH250673   5.108   1.026  12.404  0.3817  0.0954 -0.5062
 9753TIP3    H150674   5.153   1.045  12.486 -2.1212  1.4471  0.6712
 9753TIP3    H250675   5.100   0.931  12.402  0.3864  0.0488  0.8853
 9754TIP3   OH250676   2.340   1.164   4.115 -0.0424  0.6175  0.4855
 9754TIP3    H150677   2.398   1.090   4.132  1.2416  1.0417 -1.6922
 9754TIP3    H250678   2.385   1.215   4.048 -2.2580  1.7807 -0.2128
 9755TIP3   OH250679   2.519   6.194  17.229  0.0678 -0.4603  0.1480
 9755TIP3    H150680   2.551   6.272  17.183 -1.6429 -0.6243 -1.4291
 9755TIP3    H250681   2.584   6.178  17.297  1.1854  1.5203 -0.3796
 9756TIP3   OH250682   5.667   3.353  15.230 -0.5151  0.5331  0.1379
 9756TIP3    H150683   5.630   3.428  15.276 -0.7683  0.0167  0.7917
 9756TIP3    H250684   5.683   3.385  15.141  0.5994  1.7339  0.7472
 9757TIP3   OH250685   5.190   4.276   6.717 -0.3165  0.3126  0.4308
 9757TIP3    H150686   5.195   4.182   6.700 -2.2620  0.2377  0.0879
 9757TIP3    H250687   5.278   4.309   6.696  0.2097 -1.3111 -0.0468
 9758TIP3   OH250688   2.369   6.145  11.645 -0.5091 -0.0530 -0.8513
 9758TIP3    H150689   2.339   6.163  11.557  0.6197 -1.7277 -1.6406
 9758TIP3    H250690   2.453   6.190  11.652  0.1534 -1.1880 -1.2238
 9759TIP3   OH250691   0.555   6.781  13.451 -0.3868  0.0619 -0.4660
 9759TIP3    H150692   0.577   6.712  13.514 -0.3601  0.1265 -0.4047
 9759TIP3    H250693   0.491   6.740  13.392  2.2168 -1.1903 -2.6417
 9760TIP3   OH250694   6.542   0.594  11.809 -0.0745 -0.0742  0.0401
 9760TIP3    H150695   6.584   0.511  11.828 -0.3820 -0.0315  0.9275
 9760TIP3    H250696   6.572   0.653  11.878 -0.2131  0.4305 -0.3226
 9761TIP3   OH250697   4.707   6.136  14.139 -0.1046 -0.4643 -0.2663
 9761TIP3    H150698   4.671   6.219  14.168 -1.1475 -1.0674  0.2097
 9761TIP3    H250699   4.639   6.072  14.158  0.3848 -1.3230 -1.3013
 9762TIP3   OH250700   2.825   0.875  13.355 -0.6153  0.5242 -0.4238
 9762TIP3    H150701   2.866   0.817  13.290 -2.3680 -0.1429 -1.0225
 9762TIP3    H250702   2.843   0.834  13.439 -0.9613 -0.3631 -0.7658
 9763TIP3   OH250703   6.370   3.768   5.370  0.2121 -0.0902 -0.3109
 9763TIP3    H150704   6.386   3.727   5.454  0.2848  0.2334 -0.1679
 9763TIP3    H250705   6.338   3.856   5.391 -1.4764 -0.6078 -0.5790
 9764TIP3   OH250706   3.708   6.471   5.572 -0.1066  1.0851 -0.5506
 9764TIP3    H150707   3.747   6.514   5.648 -1.5910 -1.2517  1.7190
 9764TIP3    H250708   3.781   6.453   5.513  1.5223  0.7529  1.4924
 9765TIP3   OH250709   3.964   1.082   4.462  0.1719 -0.1738  0.0477
 9765TIP3    H150710   3.922   1.000   4.489 -2.1584  0.9015 -0.0351
 9765TIP3    H250711   4.041   1.090   4.518 -2.3657  0.1024  3.8404
 9766TIP3   OH250712   0.434   4.124  11.560  0.0946  0.4323 -0.1982
 9766TIP3    H150713   0.460   4.035  11.582 -0.7863  0.4916  1.1538
 9766TIP3    H250714   0.517   4.169  11.541  0.9793  0.3313  2.9487
 9767TIP3   OH250715   5.292   5.915   1.420 -0.5482 -0.2910  0.0767
 9767TIP3    H150716   5.313   5.861   1.497  1.3028 -1.1581 -0.9712
 9767TIP3    H250717   5.265   5.851   1.353 -0.8387  0.3210 -0.3976
 9768TIP3   OH250718   1.406   1.668  14.253  0.0096  0.9679  0.0496
 9768TIP3    H150719   1.329   1.686  14.307 -0.0757 -0.2479  0.3617
 9768TIP3    H250720   1.405   1.573  14.240  1.3917  0.9465 -0.0516
 9769TIP3   OH250721   2.734   2.275  11.661  0.5929  0.6699  0.1381
 9769TIP3    H150722   2.709   2.223  11.738  0.5795 -0.3227 -0.5131
 9769TIP3    H250723   2.661   2.262  11.600  0.0748  2.3359  0.3466
 9770TIP3   OH250724   3.283   1.715  15.877  0.2360 -0.4467  0.6667
 9770TIP3    H150725   3.196   1.689  15.907 -1.2986  1.7274 -1.4513
 9770TIP3    H250726   3.324   1.634  15.849 -0.7821 -1.6241  2.4194
 9771TIP3   OH250727   1.209   4.718  13.136  0.5048 -0.3550 -0.3658
 9771TIP3    H150728   1.268   4.710  13.061 -0.2092 -1.4592 -0.8348
 9771TIP3    H250729   1.135   4.769  13.103 -0.6038 -2.2389 -0.9630
 9772TIP3   OH250730   4.730   3.480   0.105  0.0941  0.2645 -0.2476
 9772TIP3    H150731   4.815   3.524   0.094 -0.4795  1.8066  1.0726
 9772TIP3    H250732   4.713   3.440   0.020  2.6058 -1.0000 -0.2645
 9773TIP3   OH250733   1.935   3.903  16.377  0.0922  0.0497 -0.6262
 9773TIP3    H150734   1.940   3.970  16.445 -0.5452 -0.5692  0.0492
 9773TIP3    H250735   1.982   3.828  16.414 -1.1984 -0.6687 -0.3949
 9774TIP3   OH250736   1.419   3.232   3.008  0.1685  0.2731 -0.4222
 9774TIP3    H150737   1.508   3.249   3.038 -0.2247  2.3955 -0.2701
 9774TIP3    H250738   1.414   3.275   2.923 -0.4963 -0.4937 -0.7790
 9775TIP3   OH250739   6.043   4.048  11.557  0.0658 -0.0572 -0.8926
 9775TIP3    H150740   5.983   3.996  11.611  0.5881  0.0691 -0.1752
 9775TIP3    H250741   6.118   3.990  11.542  0.5741  0.4107 -0.2365
 9776TIP3   OH250742   2.379   3.822   1.636  0.1418  0.3913  0.1018
 9776TIP3    H150743   2.337   3.906   1.654  0.5241  1.0117 -1.6588
 9776TIP3    H250744   2.308   3.765   1.607  0.0585  0.4573  0.1756
 9777TIP3   OH250745   4.278   0.077  15.430  0.7209 -0.0455 -0.3350
 9777TIP3    H150746   4.281   0.171  15.449 -1.6563 -0.0511  0.4084
 9777TIP3    H250747   4.190   0.051  15.456  0.4435 -1.9763 -2.9023
 9778TIP3   OH250748   1.771   5.558  13.110 -0.1831  1.0799 -0.3764
 9778TIP3    H150749   1.730   5.639  13.079 -0.9978  0.5873 -0.6149
 9778TIP3    H250750   1.762   5.497  13.036 -0.3093  0.5167  0.1004
 9779TIP3   OH250751   6.433   1.630  14.028 -0.0014  0.0515  0.0672
 9779TIP3    H150752   6.425   1.543  13.990  0.9877  0.4786 -1.2163
 9779TIP3    H250753   6.399   1.689  13.960  0.0035  0.7252  0.6327
 9780TIP3   OH250754   6.149   4.359   1.635  0.2985  0.3690  0.4584
 9780TIP3    H150755   6.201   4.389   1.560  0.5063 -0.3839  0.2922
 9780TIP3    H250756   6.156   4.430   1.699  0.7216  0.7028  0.0503
 9781TIP3   OH250757   5.955   1.979   1.107  0.0267 -0.2778  0.4333
 9781TIP3    H150758   5.897   2.052   1.125  1.7977  1.1935  0.4096
 9781TIP3    H250759   5.942   1.960   1.014  0.4081  0.8005  0.1528
 9782TIP3   OH250760   3.050   1.456   2.556 -0.9659 -0.0240 -0.2761
 9782TIP3    H150761   3.033   1.367   2.523 -1.7755  0.6490 -1.7884
 9782TIP3    H250762   2.963   1.490   2.578 -0.5574  0.0100  1.4258
 9783TIP3   OH250763   0.641   2.660   1.351 -0.1764  0.6299 -0.5775
 9783TIP3    H150764   0.630   2.668   1.256  2.6387 -0.1745 -1.0669
 9783TIP3    H250765   0.589   2.584   1.375 -0.3031  0.3720 -1.6180
 9784TIP3   OH250766   3.903   5.952  12.539  0.2227  0.4178  0.1371
 9784TIP3    H150767   3.871   6.038  12.514 -0.0874 -0.0088 -0.9922
 9784TIP3    H250768   3.990   5.946  12.499 -0.0406 -0.0535 -0.3766
 9785TIP3   OH250769   5.273   3.811   0.314  0.0087 -0.0466  0.6555
 9785TIP3    H150770   5.216   3.794   0.239  1.7016  0.9518 -0.9311
 9785TIP3    H250771   5.344   3.747   0.306  0.4049  0.3146  1.1725
 9786TIP3   OH250772   4.311   5.378   2.642 -0.5264  0.5264 -0.1332
 9786TIP3    H150773   4.351   5.456   2.603  0.2370  1.5472  2.5056
 9786TIP3    H250774   4.217   5.392   2.632 -0.4047  1.8878  0.4350
 9787TIP3   OH250775   4.205   3.204  17.122 -0.0433  0.2563  0.3579
 9787TIP3    H150776   4.123   3.217  17.074  0.6695  0.3812 -0.8576
 9787TIP3    H250777   4.258   3.149  17.065  0.7396  0.1958  1.1242
 9788TIP3   OH250778   5.466   0.599   2.001  0.2656  0.2366 -0.7344
 9788TIP3    H150779   5.407   0.628   1.931  0.3967 -2.4558 -2.0709
 9788TIP3    H250780   5.506   0.519   1.967  2.9620  0.7069  1.0777
 9789TIP3   OH250781   1.915   3.250  17.235  0.1612  0.2745  0.1297
 9789TIP3    H150782   1.846   3.317  17.239  0.2859  0.3839  0.4467
 9789TIP3    H250783   1.886   3.181  17.295  1.1513  1.0961  1.6151
 9790TIP3   OH250784   1.393   4.764   5.029 -0.0304  0.5424  0.0299
 9790TIP3    H150785   1.351   4.712   5.098  1.1324  0.9104  1.0541
 9790TIP3    H250786   1.352   4.733   4.948 -0.4185 -0.9289  0.7412
 9791TIP3   OH250787   3.604   4.342   2.135 -0.2286  0.3236  1.2768
 9791TIP3    H150788   3.548   4.393   2.193 -1.3967  1.2379 -0.5785
 9791TIP3    H250789   3.544   4.289   2.083  0.8278 -0.9926  1.3326
 9792TIP3   OH250790   5.914   6.250   2.890 -0.2490 -0.2679 -0.0793
 9792TIP3    H150791   5.833   6.298   2.911  0.6429  1.0324  0.4900
 9792TIP3    H250792   5.900   6.163   2.927 -0.7617  0.4234  1.4264
 9793TIP3   OH250793   6.453   3.069   1.103 -0.0461 -0.3348 -0.7091
 9793TIP3    H150794   6.469   2.991   1.156  2.3342 -1.1471 -2.4224
 9793TIP3    H250795   6.497   3.139   1.150 -1.5057 -0.1495  0.4304
 9794TIP3   OH250796   0.939   3.764   1.936  0.0619  0.3869  0.2150
 9794TIP3    H150797   0.995   3.689   1.955 -0.8351  0.1692  2.3632
 9794TIP3    H250798   0.856   3.725   1.907 -0.0262  0.5738  0.2141
 9795TIP3   OH250799   3.194   1.536  12.607 -0.0970 -0.3863  0.1078
 9795TIP3    H150800   3.221   1.604  12.545  1.0695 -0.9847 -0.0582
 9795TIP3    H250801   3.276   1.498  12.638 -0.7134 -1.0760  0.9239
 9796TIP3   OH250802   4.983   4.246   2.440  0.3280 -0.1579  0.1811
 9796TIP3    H150803   4.984   4.151   2.446  1.4869 -0.2162 -0.5636
 9796TIP3    H250804   5.056   4.267   2.381 -1.8806  1.0045 -2.3790
 9797TIP3   OH250805   2.879   5.608  16.135 -0.1008  0.1487  0.6092
 9797TIP3    H150806   2.944   5.560  16.084 -1.0330 -0.0605 -0.4075
 9797TIP3    H250807   2.931   5.666  16.192  0.9824  1.4336 -1.5673
 9798TIP3   OH250808   6.356   2.578   1.820  0.3555 -0.1390 -0.2010
 9798TIP3    H150809   6.418   2.623   1.878  0.8534 -0.6806 -0.2960
 9798TIP3    H250810   6.270   2.597   1.857  0.4516  1.7364 -0.8235
 9799TIP3   OH250811   6.294   0.555   1.607 -0.2903 -0.2054  0.0358
 9799TIP3    H150812   6.320   0.646   1.590 -0.5829 -0.3368 -1.2646
 9799TIP3    H250813   6.348   0.503   1.547 -0.4200 -0.8519  0.4671
 9800TIP3   OH250814   1.797   5.564   0.910  0.2125  0.2672 -0.1455
 9800TIP3    H150815   1.717   5.593   0.866 -0.3905 -1.6826 -0.4233
 9800TIP3    H250816   1.775   5.567   1.003  0.1895  0.7427 -0.1622
 9801TIP3   OH250817   3.224   0.815  14.388  0.8813  0.1918  0.0182
 9801TIP3    H150818   3.317   0.837  14.391  1.2893 -1.3833 -0.2798
 9801TIP3    H250819   3.212   0.776  14.302  0.0804 -0.2163  0.3133
 9802TIP3   OH250820   2.199   4.289   4.770  0.0992  0.2472  0.0710
 9802TIP3    H150821   2.172   4.339   4.846  1.8837  0.4395  0.6399
 9802TIP3    H250822   2.211   4.354   4.701  0.2157  0.3148  0.1549
 9803TIP3   OH250823   2.216   5.220   4.801 -0.1423 -0.2250 -0.5202
 9803TIP3    H150824   2.207   5.156   4.731  0.9290 -0.8959 -0.0785
 9803TIP3    H250825   2.285   5.279   4.771 -1.6966  1.2983 -1.3038
 9804TIP3   OH250826   5.693   3.579  12.563 -0.0090 -0.0708 -0.1427
 9804TIP3    H150827   5.620   3.615  12.614  0.8592  2.0666 -0.2832
 9804TIP3    H250828   5.684   3.619  12.477  0.0704 -1.5566 -0.8706
 9805TIP3   OH250829   4.339   6.515   0.827 -0.1408  0.0670  0.5943
 9805TIP3    H150830   4.259   6.562   0.805 -0.3928 -0.6861 -0.1395
 9805TIP3    H250831   4.410   6.569   0.790 -0.5084 -0.8065 -1.5707
 9806TIP3   OH250832   5.319   3.122   0.338  0.0290 -0.1112 -0.6828
 9806TIP3    H150833   5.368   3.172   0.272  0.0716  1.9963  0.8447
 9806TIP3    H250834   5.379   3.051   0.362  1.8804  1.6441  0.1923
 9807TIP3   OH250835   0.778   4.606   1.714 -0.3336  0.0729 -1.0172
 9807TIP3    H150836   0.761   4.643   1.800  0.5475  0.7429 -1.1137
 9807TIP3    H250837   0.864   4.641   1.689 -1.5386  1.7284 -3.1570
 9808TIP3   OH250838   6.306   4.492   3.162  0.0507  0.3102 -0.3337
 9808TIP3    H150839   6.343   4.569   3.119  1.7755 -0.3416 -0.1039
 9808TIP3    H250840   6.243   4.457   3.099  0.4455  0.9954 -1.1296
 9809TIP3   OH250841   1.769   0.888   0.521  0.4696  0.3493 -0.0048
 9809TIP3    H150842   1.793   0.803   0.484  0.8953  0.4569  0.0155
 9809TIP3    H250843   1.679   0.903   0.491 -0.0681 -0.6717  1.0392
 9810TIP3   OH250844   5.133   6.693  12.531  0.0463  0.6636 -0.0331
 9810TIP3    H150845   5.204   6.741  12.490  0.6439  1.2456  1.5919
 9810TIP3    H250846   5.079   6.760  12.573 -0.3760  0.0939  0.3545
 9811TIP3   OH250847   5.963   2.207   2.653  0.9043 -0.0393  0.4833
 9811TIP3    H150848   6.002   2.129   2.693  1.0484 -1.3662 -2.0286
 9811TIP3    H250849   5.937   2.178   2.565 -1.4171  2.0776  0.3581
 9812TIP3   OH250850   0.415   6.362  15.715 -0.2175 -0.1888 -0.1396
 9812TIP3    H150851   0.507   6.376  15.691 -0.4417  0.3794 -0.6982
 9812TIP3    H250852   0.366   6.408  15.648 -0.9176 -0.4894  0.1607
 9813TIP3   OH250853   1.366   5.759  14.944  0.4182  0.3763 -0.0615
 9813TIP3    H150854   1.446   5.707  14.947 -0.5415 -1.2643 -1.1215
 9813TIP3    H250855   1.356   5.792  15.033  1.2284 -1.0586  0.6104
 9814TIP3   OH250856   2.384   3.121  17.017 -0.0127  0.6130 -0.4036
 9814TIP3    H150857   2.343   3.040  16.987 -1.4398  2.0698 -2.7278
 9814TIP3    H250858   2.321   3.158  17.079 -0.7675  1.2885 -1.5349
 9815TIP3   OH250859   0.025   1.264   2.144  0.3443  0.2380 -0.1695
 9815TIP3    H150860   0.073   1.232   2.220 -0.2540  1.3652  0.7120
 9815TIP3    H250861   0.090   1.311   2.093  0.5516  0.2856  0.1344
 9816TIP3   OH250862   3.109   5.494   4.947 -0.4103  0.2011 -0.1214
 9816TIP3    H150863   3.137   5.572   4.899  1.0361 -0.9057 -1.1240
 9816TIP3    H250864   3.117   5.519   5.039  0.0513  1.2196 -0.4234
 9817TIP3   OH250865   3.988   4.287   5.515 -0.0536 -0.3570  0.3045
 9817TIP3    H150866   3.988   4.373   5.473 -1.5009 -1.3567 -1.9359
 9817TIP3    H250867   3.954   4.304   5.603  1.0386  1.5156  0.4293
 9818TIP3   OH250868   2.199   2.960   5.380  0.2131  0.3202  0.3006
 9818TIP3    H150869   2.155   3.015   5.445  0.3092 -0.4079  0.9977
 9818TIP3    H250870   2.133   2.896   5.353  0.6538 -0.4287  0.9414
 9819TIP3   OH250871   1.202   0.401  17.254  0.0431  0.3697 -0.2199
 9819TIP3    H150872   1.227   0.354  17.175  0.6652 -0.6783  0.5812
 9819TIP3    H250873   1.173   0.487  17.222 -0.1225 -0.1703 -1.6131
 9820TIP3   OH250874   1.142   2.976  14.189 -0.2391 -0.0720  0.0759
 9820TIP3    H150875   1.185   3.025  14.259  0.7997 -0.4221 -0.3015
 9820TIP3    H250876   1.068   2.933  14.232 -0.7364  1.2232  0.5617
 9821TIP3   OH250877   5.554   5.453  16.284 -0.3113 -0.0542 -0.7063
 9821TIP3    H150878   5.466   5.419  16.300 -0.5518  1.0235  0.4020
 9821TIP3    H250879   5.610   5.375  16.287 -1.1361 -0.6651 -0.7217
 9822TIP3   OH250880   2.699   3.494  14.841  0.1710 -0.2308  0.0698
 9822TIP3    H150881   2.697   3.545  14.761  0.5075  0.0526  0.2379
 9822TIP3    H250882   2.629   3.529  14.895 -0.8961 -1.2693 -0.6043
 9823TIP3   OH250883   4.590   5.188  13.537  0.5639  0.8421 -0.0462
 9823TIP3    H150884   4.640   5.114  13.502  0.6253  0.5275  0.6892
 9823TIP3    H250885   4.516   5.198  13.477  0.4753  0.0939 -0.0676
 9824TIP3   OH250886   0.997   2.090  17.104  0.3328 -0.1627 -0.0549
 9824TIP3    H150887   1.020   2.117  17.193 -0.7458 -0.5546  0.3563
 9824TIP3    H250888   1.065   2.130  17.049  0.3885  1.0043  0.8225
 9825TIP3   OH250889   4.492   3.977   3.595 -0.3107 -0.4325  0.0058
 9825TIP3    H150890   4.576   3.933   3.582  0.1819 -0.0481  1.5909
 9825TIP3    H250891   4.428   3.907   3.598 -0.1017 -0.7126 -1.4816
 9826TIP3   OH250892   0.107   0.962   4.462 -0.2514 -0.3712  0.6227
 9826TIP3    H150893   0.079   0.935   4.549  0.6537 -0.0640  1.0184
 9826TIP3    H250894   0.028   0.954   4.408 -0.5508 -1.6396  1.2149
 9827TIP3   OH250895   5.063   1.321   2.952 -0.2372 -0.4853 -0.7437
 9827TIP3    H150896   5.099   1.398   2.996  0.8044 -0.9057 -0.8236
 9827TIP3    H250897   5.029   1.267   3.024 -0.5554 -0.1697 -0.6509
 9828TIP3   OH250898   2.512   0.565   2.970 -0.0674 -0.0782 -0.4187
 9828TIP3    H150899   2.426   0.600   2.994 -0.1903  1.8365 -3.1810
 9828TIP3    H250900   2.572   0.601   3.035 -0.8908  1.5165 -0.4969
 9829TIP3   OH250901   0.317   1.731  15.974 -0.2901 -0.4434 -0.1231
 9829TIP3    H150902   0.257   1.798  16.006 -0.5806  0.4266 -2.3310
 9829TIP3    H250903   0.283   1.706  15.889  2.0019 -0.4980 -1.1082
 9830TIP3   OH250904   0.812   6.463  13.355  0.1532  0.1482  0.1470
 9830TIP3    H150905   0.812   6.506  13.270  1.7587 -0.9725 -0.4709
 9830TIP3    H250906   0.834   6.372  13.335  0.5009 -0.1471  1.7585
 9831TIP3   OH250907   5.053   5.208  16.609 -0.0911 -0.0269  0.1021
 9831TIP3    H150908   5.023   5.177  16.694 -0.2424  0.3933  0.2028
 9831TIP3    H250909   5.051   5.131  16.553 -1.4027  0.0058  0.0917
 9832TIP3   OH250910   1.263   5.058  10.966  0.7354 -0.0210  0.8595
 9832TIP3    H150911   1.212   5.098  10.896  1.2215 -0.2370  0.3736
 9832TIP3    H250912   1.211   4.982  10.993  0.2828  0.3736  1.1167
 9833TIP3   OH250913   4.689   6.582   3.388 -0.2030 -0.4759  0.7023
 9833TIP3    H150914   4.650   6.509   3.437  1.7424 -1.2725  1.1745
 9833TIP3    H250915   4.751   6.540   3.329 -1.1209  0.6350 -1.1254
 9834TIP3   OH250916   4.381   0.881  15.786 -0.2097 -0.3167  0.0867
 9834TIP3    H150917   4.331   0.932  15.850 -0.2104  0.5963 -0.6160
 9834TIP3    H250918   4.368   0.790  15.812 -0.4474  0.0208  1.2021
 9835TIP3   OH250919   2.775   3.649   3.404 -0.4434  0.2623  0.3245
 9835TIP3    H150920   2.787   3.618   3.494 -0.9424 -1.3934 -0.1527
 9835TIP3    H250921   2.850   3.707   3.389  0.7019 -0.9419  1.1686
 9836TIP3   OH250922   3.281   2.803   0.119 -0.2432 -0.0851 -0.3587
 9836TIP3    H150923   3.273   2.708   0.130 -0.8898  0.1108  1.1545
 9836TIP3    H250924   3.369   2.815   0.085  0.8184 -1.1169  1.7772
 9837TIP3   OH250925   1.822   3.205   4.828  0.2048 -0.3943  0.7321
 9837TIP3    H150926   1.900   3.237   4.874  1.6962 -0.1008 -1.8314
 9837TIP3    H250927   1.844   3.115   4.805 -0.7679 -0.7241  1.0626
 9838TIP3   OH250928   1.067   1.532   4.351 -0.6068 -0.7189  0.2456
 9838TIP3    H150929   1.062   1.577   4.266 -3.1210  0.4921  0.9379
 9838TIP3    H250930   1.035   1.444   4.333 -0.7615 -0.5856 -0.1490
 9839TIP3   OH250931   4.115   5.779   4.050 -0.1544 -0.1109  0.0947
 9839TIP3    H150932   4.093   5.750   3.962 -1.2669  1.5543 -0.2189
 9839TIP3    H250933   4.139   5.699   4.097 -0.6353 -1.1569 -1.3949
 9840TIP3   OH250934   6.261   0.543  13.736 -0.0386  0.0761 -0.0141
 9840TIP3    H150935   6.207   0.469  13.762 -0.5766 -0.1044 -1.5041
 9840TIP3    H250936   6.207   0.620  13.757 -0.8546 -0.0978 -1.3368
 9841TIP3   OH250937   1.894   0.545  12.272 -0.6537 -0.0191 -0.0217
 9841TIP3    H150938   1.963   0.607  12.295 -0.7984 -0.0400  0.4671
 9841TIP3    H250939   1.827   0.598  12.228 -0.4741  0.0540 -0.2075
 9842TIP3   OH250940   2.189   1.454  10.683 -0.6838  0.1038  0.6719
 9842TIP3    H150941   2.262   1.393  10.697 -1.5174 -0.8586  0.9461
 9842TIP3    H250942   2.224   1.519  10.621 -0.1068 -1.2837 -0.5265
 9843TIP3   OH250943   4.544   2.547   0.479 -0.3152  0.1638 -0.1255
 9843TIP3    H150944   4.483   2.569   0.409 -0.0794 -0.5986 -0.5853
 9843TIP3    H250945   4.507   2.588   0.557 -1.3013 -0.0956 -0.4407
 9844TIP3   OH250946   5.262   5.213   4.984 -0.0815 -0.4823 -0.2906
 9844TIP3    H150947   5.345   5.258   4.974  0.5521 -1.1301  1.5364
 9844TIP3    H250948   5.284   5.132   5.031 -1.7493 -0.5590  0.4523
 9845TIP3   OH250949   5.599   5.170  13.887 -0.4198 -0.4293 -0.6682
 9845TIP3    H150950   5.612   5.077  13.872 -0.9674 -0.6627  0.2018
 9845TIP3    H250951   5.577   5.206  13.802 -1.7606 -1.3734 -0.7387
 9846TIP3   OH250952   5.273   2.734  15.265 -0.3691 -0.0267 -0.1361
 9846TIP3    H150953   5.350   2.707  15.317 -1.5337 -2.2541  0.5696
 9846TIP3    H250954   5.278   2.681  15.186 -0.7140  0.4944 -0.5147
 9847TIP3   OH250955   2.004   3.510   2.080 -0.2164  0.5532 -0.0632
 9847TIP3    H150956   2.007   3.509   2.176  0.2631 -1.9868 -0.0165
 9847TIP3    H250957   1.915   3.482   2.059 -1.4806  4.3795 -0.5050
 9848TIP3   OH250958   3.610   3.933   1.242 -0.1269  0.2130  0.0084
 9848TIP3    H150959   3.562   3.858   1.207 -0.7791  0.5672  0.1333
 9848TIP3    H250960   3.640   3.981   1.164 -0.0456  0.0379 -0.0687
 9849TIP3   OH250961   5.900   1.033  11.846 -0.4090 -0.2980  0.1203
 9849TIP3    H150962   5.851   1.106  11.883 -0.9067 -0.5210 -0.0983
 9849TIP3    H250963   5.875   1.032  11.754  0.2340 -0.2280 -0.0603
 9850TIP3   OH250964   3.801   4.068   3.367  0.1764 -0.3325 -0.0260
 9850TIP3    H150965   3.745   3.994   3.343  1.1569 -0.5351 -1.9598
 9850TIP3    H250966   3.879   4.057   3.312  0.5155  1.9401 -0.1067
 9851TIP3   OH250967   6.142   0.160   0.442 -0.9249  0.3293  0.5384
 9851TIP3    H150968   6.200   0.225   0.481  0.2760 -1.0313  1.1141
 9851TIP3    H250969   6.055   0.183   0.474 -0.7559  2.4393 -0.3774
 9852TIP3   OH250970   5.168   3.690  12.761 -0.3393 -0.2079 -0.4349
 9852TIP3    H150971   5.135   3.707  12.849  1.4475  1.1184  0.0399
 9852TIP3    H250972   5.127   3.758  12.707 -0.3440 -0.1412 -0.3479
 9853TIP3   OH250973   2.853   4.256   2.716 -0.4563  0.2422 -0.0521
 9853TIP3    H150974   2.856   4.209   2.632  2.1216 -0.9178  0.5809
 9853TIP3    H250975   2.885   4.344   2.695 -1.2947  0.4474 -0.5212
 9854TIP3   OH250976   1.458   0.576  12.653  0.1001  0.3937 -0.7067
 9854TIP3    H150977   1.450   0.564  12.748 -1.1172  2.0361 -0.5543
 9854TIP3    H250978   1.415   0.499  12.615  1.0291 -0.5253  0.0430
 9855TIP3   OH250979   5.159   3.743  13.035  0.2075  0.1997 -0.2606
 9855TIP3    H150980   5.174   3.716  13.126 -0.2941 -0.3638 -0.3375
 9855TIP3    H250981   5.245   3.733  12.993 -0.0226 -1.6862 -0.3703
 9856TIP3   OH250982   6.556   1.747  15.798  0.2659 -0.5512 -0.7775
 9856TIP3    H150983   6.534   1.678  15.862  1.5200 -0.9103 -0.7013
 9856TIP3    H250984   6.565   1.826  15.851 -1.5104 -0.2081 -0.9045
 9857TIP3   OH250985   3.413   6.164  13.381  0.0374  0.1045 -0.1656
 9857TIP3    H150986   3.355   6.240  13.381 -0.9805 -0.6245  0.3509
 9857TIP3    H250987   3.379   6.109  13.310  1.6499  0.7421 -1.4742
 9858TIP3   OH250988   0.353   5.034  12.000 -0.2986 -0.4652  0.3867
 9858TIP3    H150989   0.358   4.943  11.971  0.4857 -0.5120  0.6264
 9858TIP3    H250990   0.435   5.073  11.969 -1.5827  0.7821 -1.7204
 9859TIP3   OH250991   5.617   6.598  11.676  0.2018  0.1940 -0.1606
 9859TIP3    H150992   5.548   6.536  11.653  0.7400 -0.3558 -0.3175
 9859TIP3    H250993   5.598   6.623  11.767  0.8622 -1.4234  0.4540
 9860TIP3   OH250994   6.110   0.562  16.645 -0.0111 -0.2115 -0.9053
 9860TIP3    H150995   6.145   0.562  16.734 -0.8123  0.4035 -0.5741
 9860TIP3    H250996   6.148   0.484  16.604 -0.0151 -0.7799  0.1284
 9861TIP3   OH250997   0.392   2.488   1.329 -0.0549 -0.4521  0.0899
 9861TIP3    H150998   0.433   2.426   1.269  1.8778 -0.1111  0.9817
 9861TIP3    H250999   0.307   2.507   1.290  1.4103  0.4111 -3.0303
 9862TIP3   OH251000   1.392   6.273  11.677  0.2189  0.4764  0.4690
 9862TIP3    H151001   1.371   6.366  11.690 -1.8995 -0.0345  0.9863
 9862TIP3    H251002   1.421   6.243  11.763 -3.1110 -0.2616  1.4572
 9863TIP3   OH251003   3.996   0.594  11.791 -0.3007  0.1723 -0.0909
 9863TIP3    H151004   3.928   0.543  11.834  0.5966 -0.0986  1.0429
 9863TIP3    H251005   4.015   0.665  11.852 -0.6294  1.1462 -1.0856
 9864TIP3   OH251006   3.780   3.491   0.959  0.1043  0.4742  0.0037
 9864TIP3    H151007   3.813   3.578   0.982  1.9733 -0.0614 -0.4982
 9864TIP3    H251008   3.846   3.431   0.993 -1.4073 -0.8178  0.8003
 9865TIP3   OH251009   0.505   2.138  10.958  0.0648 -0.5078 -0.6221
 9865TIP3    H151010   0.462   2.147  10.873  1.3647 -0.5601 -1.3140
 9865TIP3    H251011   0.597   2.123  10.936  0.4641 -0.2549  0.8065
 9866TIP3   OH251012   2.734   1.361  14.160  0.8388  0.1341  0.0378
 9866TIP3    H151013   2.731   1.412  14.241 -0.8075 -0.6838  0.5311
 9866TIP3    H251014   2.670   1.404  14.103  2.0080  0.7224 -0.8643
 9867TIP3   OH251015   1.695   6.779  17.175  0.0297  0.0634  0.0240
 9867TIP3    H151016   1.727   6.851  17.121  0.7231 -0.1336  0.1666
 9867TIP3    H251017   1.643   6.821  17.243 -1.5144  0.2707 -1.2251
 9868TIP3   OH251018   4.989   0.768  15.317 -0.8721  0.0607  0.1785
 9868TIP3    H151019   4.951   0.853  15.342 -1.4473 -0.1116 -0.0926
 9868TIP3    H251020   4.990   0.717  15.398 -0.9222  0.1819  0.2556
 9869TIP3   OH251021   0.106   5.859  13.275  0.1061  0.3732  0.2178
 9869TIP3    H151022   0.104   5.807  13.355 -1.1494 -1.3428 -0.8505
 9869TIP3    H251023   0.127   5.796  13.206 -0.3488  1.4995 -0.9935
 9870TIP3   OH251024   1.359   1.163  14.875  0.1775  0.4264 -0.5345
 9870TIP3    H151025   1.442   1.116  14.887 -0.0457  0.2239  0.2344
 9870TIP3    H251026   1.313   1.153  14.958 -0.8233  0.1379 -1.0989
 9871TIP3   OH251027   2.036   0.781   3.321 -0.1991  0.1705 -0.2450
 9871TIP3    H151028   2.019   0.874   3.330  3.2862  1.0830 -1.4153
 9871TIP3    H251029   2.078   0.756   3.403 -1.3117 -0.4723  0.1496
 9872TIP3   OH251030   5.910   5.121   2.886  0.0846  0.7349 -0.0390
 9872TIP3    H151031   5.955   5.199   2.856  0.6261  0.9011  1.1449
 9872TIP3    H251032   5.971   5.049   2.869  0.6908  0.9185  1.2628
 9873TIP3   OH251033   0.394   3.994  14.090 -0.2087  0.4454 -0.0641
 9873TIP3    H151034   0.339   4.001  14.168 -1.1165  1.2735 -0.7514
 9873TIP3    H251035   0.356   3.922  14.041 -0.5132  0.8180 -0.3891
 9874TIP3   OH251036   6.173   4.348  15.041 -0.1585  0.2422 -0.1105
 9874TIP3    H151037   6.116   4.421  15.016 -0.5420  0.1248  0.4086
 9874TIP3    H251038   6.118   4.270  15.029 -0.3339  0.1724  0.9966
 9875TIP3   OH251039   1.457   2.301  15.210  0.4974  0.1047 -0.4629
 9875TIP3    H151040   1.425   2.388  15.184 -0.1764 -0.2256 -0.7737
 9875TIP3    H251041   1.549   2.301  15.184  0.6812  0.9595  0.1330
 9876TIP3   OH251042   2.810   6.337   6.170  0.4274  0.3539 -0.5680
 9876TIP3    H151043   2.845   6.253   6.199 -1.8535 -0.6538 -0.4761
 9876TIP3    H251044   2.821   6.395   6.245  0.1469 -0.4741  0.1345
 9877TIP3   OH251045   1.501   0.090   5.360 -0.8318 -0.1998  0.9136
 9877TIP3    H151046   1.538   0.133   5.283 -0.2646 -1.9777  0.1132
 9877TIP3    H251047   1.407   0.105   5.354 -0.5630  1.7999  1.2803
 9878TIP3   OH251048   1.589   5.594   6.202  0.2316 -0.0606  0.2464
 9878TIP3    H151049   1.527   5.667   6.188  0.8010  0.2138 -1.0620
 9878TIP3    H251050   1.614   5.568   6.113  1.1873 -0.8693  0.7420
 9879TIP3   OH251051   6.015   5.551  14.108 -0.2249  0.5615 -0.4738
 9879TIP3    H151052   6.036   5.638  14.141  0.8016  1.2684 -2.8060
 9879TIP3    H251053   6.085   5.495  14.143  0.5865  1.1906 -1.0547
 9880TIP3   OH251054   0.364   6.044  14.942 -0.0615 -0.4351 -0.0017
 9880TIP3    H151055   0.302   6.107  14.978 -0.5923 -0.7874 -0.2855
 9880TIP3    H251056   0.351   5.965  14.995  0.8516 -0.2109  0.5868
 9881TIP3   OH251057   5.438   1.129  14.775  0.0941 -0.4352  0.4814
 9881TIP3    H151058   5.419   1.116  14.682  0.9344 -1.1913  0.3946
 9881TIP3    H251059   5.352   1.131  14.818 -0.2570 -2.0138 -0.0813
 9882TIP3   OH251060   4.536   2.405  16.261  0.9617  0.4102  0.0688
 9882TIP3    H151061   4.503   2.430  16.174 -0.1182  0.4613  0.4774
 9882TIP3    H251062   4.502   2.317  16.276 -0.3229  1.0488  1.1343
 9883TIP3   OH251063   2.023   3.749   5.633 -0.0571 -0.5759  0.4857
 9883TIP3    H151064   2.057   3.716   5.716 -0.7190 -1.1282  0.5442
 9883TIP3    H251065   2.050   3.841   5.631 -0.9413 -0.2670  1.8071
 9884TIP3   OH251066   3.022   0.225  15.170  0.1681  0.2614  0.1079
 9884TIP3    H151067   3.039   0.135  15.144 -0.7698  0.6650 -2.1134
 9884TIP3    H251068   3.088   0.277  15.124  0.6638  0.7333  1.3180
 9885TIP3   OH251069   1.039   2.564  14.255 -0.3518  0.5124  1.0780
 9885TIP3    H151070   0.964   2.575  14.196  0.6989  1.7521 -0.0831
 9885TIP3    H251071   1.061   2.653  14.284  2.4511  0.6114 -0.9517
 9886TIP3   OH251072   3.316   2.261   2.369  0.2667  0.5527 -0.3798
 9886TIP3    H151073   3.357   2.191   2.318 -0.4866 -0.3450  0.2086
 9886TIP3    H251074   3.385   2.292   2.427  0.8183  0.8350 -1.1626
 9887TIP3   OH251075   4.464   1.941   6.165  0.5129  0.2049 -0.6512
 9887TIP3    H151076   4.477   1.854   6.126  0.5479  0.1289 -0.4701
 9887TIP3    H251077   4.370   1.946   6.181  0.4607  0.3463 -1.0034
 9888TIP3   OH251078   2.279   4.555  10.810 -0.2964  0.4280  0.4389
 9888TIP3    H151079   2.192   4.567  10.773 -0.0250  0.2317 -0.2770
 9888TIP3    H251080   2.331   4.518  10.739  0.1939 -0.1238  1.0675
 9889TIP3   OH251081   1.959   1.135   2.374 -0.2320  0.7287 -0.1696
 9889TIP3    H151082   1.968   1.056   2.428 -1.4191  1.1011  0.5951
 9889TIP3    H251083   1.984   1.106   2.286 -0.3238 -0.4170  0.1606
 9890TIP3   OH251084   0.848   4.392   2.718  0.4836  0.2927 -0.1260
 9890TIP3    H151085   0.797   4.365   2.642  0.9034  0.4181 -0.4597
 9890TIP3    H251086   0.787   4.389   2.791 -0.0462  0.6190 -0.5514
 9891TIP3   OH251087   0.055   1.725   5.249  0.4880 -0.4412 -0.0325
 9891TIP3    H151088   0.084   1.677   5.327  1.6983 -1.0947 -0.8409
 9891TIP3    H251089   0.112   1.693   5.179 -1.5166 -0.9813 -1.5244
 9892TIP3   OH251090   6.124   5.864  11.687 -0.3652 -0.5752 -0.0409
 9892TIP3    H151091   6.057   5.798  11.667 -0.2563 -0.3743 -1.1073
 9892TIP3    H251092   6.194   5.848  11.624  0.6985 -0.8871  1.1552
 9893TIP3   OH251093   6.456   1.325   2.976  0.4186 -0.1408  0.5030
 9893TIP3    H151094   6.475   1.341   2.884  0.1881 -0.2339  0.4385
 9893TIP3    H251095   6.526   1.370   3.024 -1.5292  3.3526  0.4470
 9894TIP3   OH251096   0.698   3.989   3.974  0.1203  0.0066 -0.0982
 9894TIP3    H151097   0.668   3.901   3.998 -3.5056  1.3716  1.0360
 9894TIP3    H251098   0.777   4.003   4.027 -0.5015 -1.7307  1.4014
 9895TIP3   OH251099   3.629   6.655   1.992 -0.4845 -0.6235 -0.2049
 9895TIP3    H151100   3.640   6.569   2.032  1.3770 -0.3520 -0.0197
 9895TIP3    H251101   3.701   6.707   2.028 -1.5568  1.0179 -0.3271
 9896TIP3   OH251102   0.767   4.013  16.457  0.1988  0.2849 -0.4281
 9896TIP3    H151103   0.802   4.026  16.369  0.2678  0.1958 -0.4135
 9896TIP3    H251104   0.821   3.944  16.495 -0.3749 -0.2805 -0.6198
 9897TIP3   OH251105   2.931   2.730   0.573 -0.0274 -0.0319 -0.5629
 9897TIP3    H151106   2.973   2.710   0.657 -2.4254  1.5768  1.1529
 9897TIP3    H251107   2.933   2.826   0.568 -1.1075 -0.0487 -1.6820
 9898TIP3   OH251108   2.092   1.365  14.408 -0.0704 -0.1167  0.3897
 9898TIP3    H151109   2.079   1.391  14.317  1.2864 -0.6401  0.0180
 9898TIP3    H251110   2.036   1.288  14.419  3.2412 -3.1407 -1.5587
 9899TIP3   OH251111   2.912   2.200   1.076  0.3766  0.4567  0.1716
 9899TIP3    H151112   2.904   2.152   1.159  0.8081  0.0222 -0.0369
 9899TIP3    H251113   2.827   2.191   1.035  0.6491 -0.7211 -0.1794
 9900TIP3   OH251114   2.530   3.898  16.071 -0.6228 -0.3778 -0.2978
 9900TIP3    H151115   2.440   3.928  16.081 -0.7723 -0.9294  0.0803
 9900TIP3    H251116   2.557   3.930  15.986 -1.3460 -0.6229 -0.6303
 9901TIP3   OH251117   6.283   1.482   5.866  0.3052 -0.1691  0.0513
 9901TIP3    H151118   6.279   1.407   5.926  0.2176 -1.8653 -1.9621
 9901TIP3    H251119   6.357   1.462   5.808  0.2602  1.2991 -0.5535
 9902TIP3   OH251120   0.032   2.475   0.970 -0.9453 -0.4984  0.3329
 9902TIP3    H151121  -0.006   2.393   0.939 -0.6759  0.0536 -1.5347
 9902TIP3    H251122  -0.036   2.541   0.957 -0.7781 -0.2221  0.8098
 9903TIP3   OH251123   0.715   3.399  11.990 -0.2440 -0.1013  0.4826
 9903TIP3    H151124   0.634   3.371  11.948 -0.9475  1.6001  0.6300
 9903TIP3    H251125   0.723   3.343  12.067 -1.4996 -0.0204  0.6851
 9904TIP3   OH251126   0.042   0.615  11.945 -0.2672 -0.2290 -0.2063
 9904TIP3    H151127   0.122   0.664  11.965 -0.8170  0.2289  0.9380
 9904TIP3    H251128   0.024   0.563  12.023 -0.2548 -1.5181 -1.0363
 9905TIP3   OH251129   1.506   3.313   2.122 -0.0083 -0.2141  0.1425
 9905TIP3    H151130   1.439   3.329   2.055  0.0604  0.9820  0.3435
 9905TIP3    H251131   1.459   3.318   2.205  0.2697  0.2944  0.2703
 9906TIP3   OH251132   4.296   2.451  13.390  0.1166 -0.1131 -0.0360
 9906TIP3    H151133   4.334   2.537  13.409 -3.8363  1.6675  0.8911
 9906TIP3    H251134   4.351   2.390  13.439  2.7680  1.8613 -0.2725
 9907TIP3   OH251135   4.157   5.712  11.876 -0.1824 -0.5504  0.2155
 9907TIP3    H151136   4.208   5.739  11.799 -2.3173  2.9578 -0.1594
 9907TIP3    H251137   4.101   5.642  11.843  0.0558 -0.1975 -1.0294
 9908TIP3   OH251138   3.869   3.334   1.630  0.0645  0.1785 -0.1535
 9908TIP3    H151139   3.776   3.358   1.633 -0.5171 -2.0266  1.1379
 9908TIP3    H251140   3.870   3.246   1.594  1.6560  0.1088  0.0109
 9909TIP3   OH251141   6.414   6.137   3.547 -0.0667  0.2976  0.0637
 9909TIP3    H151142   6.352   6.118   3.476 -0.8783 -2.0849  1.2927
 9909TIP3    H251143   6.495   6.095   3.519 -0.6955 -1.6359  0.9253
 9910TIP3   OH251144   1.704   4.208  15.056 -0.6422 -0.3592  0.0031
 9910TIP3    H151145   1.697   4.140  14.989 -0.7383  0.2234 -0.5750
 9910TIP3    H251146   1.627   4.195  15.111 -0.5789 -0.8156 -0.0117
 9911TIP3   OH251147   2.831   5.246  16.041 -0.1853 -0.4301  0.0663
 9911TIP3    H151148   2.831   5.282  15.953  0.3011  0.6142  0.4729
 9911TIP3    H251149   2.890   5.171  16.037  0.8040  0.3421 -0.2322
 9912TIP3   OH251150   0.826   5.881  15.376  0.1643 -0.4843  0.1682
 9912TIP3    H151151   0.741   5.877  15.420  0.1736 -1.0244  0.1522
 9912TIP3    H251152   0.812   5.838  15.292  0.3294 -0.1176 -0.0494
 9913TIP3   OH251153   0.545   5.476   1.885 -0.2566 -0.0515  0.3959
 9913TIP3    H151154   0.603   5.464   1.810 -1.2876 -2.7319 -0.1107
 9913TIP3    H251155   0.595   5.443   1.960 -0.4854 -0.7387  0.2525
 9914TIP3   OH251156   5.828   4.390   2.362 -0.2513 -0.3336  0.6708
 9914TIP3    H151157   5.745   4.434   2.341  0.4335  1.3130  1.2244
 9914TIP3    H251158   5.886   4.461   2.390  1.4654 -1.3975 -0.0182
 9915TIP3   OH251159   2.049   1.520  17.124  0.9112  0.4742 -0.1771
 9915TIP3    H151160   2.078   1.449  17.181 -1.2854 -1.1339 -0.9044
 9915TIP3    H251161   1.955   1.529  17.143  0.6106  1.4460 -1.9090
 9916TIP3   OH251162   4.697   2.693   4.463  0.3441  0.1743  0.5415
 9916TIP3    H151163   4.711   2.628   4.533 -0.4663  0.9396  1.4434
 9916TIP3    H251164   4.784   2.709   4.428  0.9413  0.5281  2.0866
 9917TIP3   OH251165   5.153   1.006   2.332  0.1133 -0.5677 -0.2848
 9917TIP3    H151166   5.201   0.943   2.279  0.3275 -0.9788  0.3820
 9917TIP3    H251167   5.214   1.078   2.345 -0.2521 -0.0462 -1.3400
 9918TIP3   OH251168   5.460   3.718  12.647 -0.3890  0.2615  0.7740
 9918TIP3    H151169   5.435   3.773  12.573 -1.4656 -1.1691  0.0175
 9918TIP3    H251170   5.378   3.678  12.676  0.3466 -1.0302  1.1998
 9919TIP3   OH251171   4.562   0.433   4.900  0.0107  0.0679  0.3684
 9919TIP3    H151172   4.499   0.404   4.967 -0.7665  1.7072  0.3837
 9919TIP3    H251173   4.616   0.355   4.884 -0.8415 -0.8527  1.6876
 9920TIP3   OH251174   1.964   1.209   4.875 -0.3041 -0.0753  0.1500
 9920TIP3    H151175   2.044   1.158   4.890  1.1730  2.0773  0.1476
 9920TIP3    H251176   1.910   1.193   4.952  0.7981 -0.4163  0.8748
 9921TIP3   OH251177   5.084   0.162  14.309 -0.6202  0.0569  0.1896
 9921TIP3    H151178   4.996   0.186  14.337 -1.1107 -0.5126 -0.8380
 9921TIP3    H251179   5.120   0.243  14.272 -0.5156  0.4176  1.0601
 9922TIP3   OH251180   0.535   4.932   3.695  0.2467  0.2421  0.0947
 9922TIP3    H151181   0.520   4.929   3.790 -0.5145  1.5103  0.0331
 9922TIP3    H251182   0.622   4.895   3.684 -0.0770 -0.9406  1.1739
 9923TIP3   OH251183   3.341   5.280   0.486 -0.2028 -0.4674  0.2261
 9923TIP3    H151184   3.414   5.331   0.521 -0.0673  0.0574 -0.7691
 9923TIP3    H251185   3.374   5.247   0.402 -0.0924 -2.6531  1.0571
 9924TIP3   OH251186   6.685   1.665   1.531  0.4996  0.3565 -0.0280
 9924TIP3    H151187   6.666   1.625   1.447  1.0024  2.0544 -1.0076
 9924TIP3    H251188   6.648   1.605   1.596 -2.5581  0.4099 -1.5413
 9925TIP3   OH251189   1.432   0.643   0.296 -0.3780  0.4519 -0.0527
 9925TIP3    H151190   1.426   0.610   0.385 -0.2233  0.4315 -0.0490
 9925TIP3    H251191   1.500   0.711   0.300  1.9363 -1.6571 -0.7584
 9926TIP3   OH251192   1.237   0.637   2.873 -0.7102 -0.3417 -0.3783
 9926TIP3    H151193   1.238   0.557   2.821  0.5486 -1.1080  0.7585
 9926TIP3    H251194   1.174   0.620   2.943  1.7283 -1.6225  1.6594
 9927TIP3   OH251195   1.172   4.419  11.979 -0.0526  0.5469 -0.0528
 9927TIP3    H151196   1.251   4.392  12.025 -1.0866  0.2640  1.6743
 9927TIP3    H251197   1.183   4.512  11.963  1.0069  0.3281 -0.6600
 9928TIP3   OH251198   3.467   0.767   6.326 -0.2618 -0.2200  0.4376
 9928TIP3    H151199   3.421   0.834   6.277  0.2498  0.4399  0.8468
 9928TIP3    H251200   3.491   0.809   6.409 -0.2070 -0.9971  0.8280
 9929TIP3   OH251201   0.219   0.342   1.632  0.1931  0.6246  0.0074
 9929TIP3    H151202   0.168   0.305   1.560  2.4254 -1.2369 -0.7235
 9929TIP3    H251203   0.288   0.393   1.590 -0.2653  2.1099  0.9531
 9930TIP3   OH251204   5.795   5.467   1.871  0.0751  0.7965 -0.1902
 9930TIP3    H151205   5.831   5.546   1.832 -1.4864  2.1788  1.0410
 9930TIP3    H251206   5.741   5.428   1.802  1.8325  0.0400 -1.2199
 9931TIP3   OH251207   3.204   4.228  15.761  0.0082  0.4021  0.3314
 9931TIP3    H151208   3.288   4.213  15.803 -0.0372 -0.3445  0.1681
 9931TIP3    H251209   3.223   4.290  15.691  0.5213 -0.1324 -0.0134
 9932TIP3   OH251210   1.942   1.979  13.248 -0.0192 -0.4900  0.3706
 9932TIP3    H151211   1.860   1.998  13.294 -0.9427  1.0748 -1.7317
 9932TIP3    H251212   1.960   2.059  13.199  2.3747 -1.0975  0.1575
 9933TIP3   OH251213   5.823   2.321  15.383 -0.2926  0.4140  0.5002
 9933TIP3    H151214   5.748   2.377  15.363 -1.0578 -1.0906 -1.0803
 9933TIP3    H251215   5.789   2.256  15.444 -0.3842 -0.4527 -0.4516
 9934TIP3   OH251216   4.544   6.637   5.314  0.3756  0.4541  0.1778
 9934TIP3    H151217   4.573   6.694   5.385 -0.6517 -1.2482  2.0553
 9934TIP3    H251218   4.469   6.683   5.275 -0.2351  0.5741  1.4524
 9935TIP3   OH251219   5.844   3.636  11.523 -0.0071 -1.0681 -0.0079
 9935TIP3    H151220   5.804   3.576  11.459  0.4987 -0.2692 -1.1144
 9935TIP3    H251221   5.878   3.708  11.470  0.1122 -0.1908  1.2211
 9936TIP3   OH251222   5.668   3.500  14.440  0.7260 -0.4400  0.0737
 9936TIP3    H151223   5.693   3.570  14.501  1.7965 -2.0770  1.6252
 9936TIP3    H251224   5.574   3.486  14.457  0.8039 -0.2368  0.6846
 9937TIP3   OH251225   1.786   4.011  16.189  0.4542 -0.1412  0.1015
 9937TIP3    H151226   1.825   4.006  16.102 -1.7620 -0.8149 -0.9251
 9937TIP3    H251227   1.843   3.956  16.244  0.1316 -2.4493 -1.6810
 9938TIP3   OH251228   2.539   4.224   5.301  0.1637  0.0763  0.1600
 9938TIP3    H151229   2.493   4.221   5.218 -0.5443  0.2585  0.5324
 9938TIP3    H251230   2.631   4.212   5.279 -0.0477 -0.1333 -0.6160
 9939TIP3   OH251231   4.657   4.927  12.700  0.0039 -0.4440 -0.0642
 9939TIP3    H151232   4.665   4.974  12.783  0.3679 -0.2096 -0.2302
 9939TIP3    H251233   4.631   4.838  12.725 -2.5713  0.2848  0.1701
 9940TIP3   OH251234   1.472   4.145  12.176 -0.5712  0.6588 -0.1457
 9940TIP3    H151235   1.414   4.149  12.252 -1.5953  1.8866 -0.9433
 9940TIP3    H251236   1.438   4.212  12.117  1.0539  0.7039 -1.0943
 9941TIP3   OH251237   6.359   0.888   5.397  0.2767  0.1559 -0.6540
 9941TIP3    H151238   6.419   0.961   5.377 -1.1179  1.0519 -1.8412
 9941TIP3    H251239   6.320   0.911   5.481  0.6072  0.2553 -0.5279
 9942TIP3   OH251240   2.729   0.347   4.235  0.4222 -0.4964  0.2579
 9942TIP3    H151241   2.744   0.284   4.164 -2.1251 -0.8226 -0.0824
 9942TIP3    H251242   2.726   0.432   4.191 -1.7749 -0.7585 -0.1875
 9943TIP3   OH251243   5.715   6.027  12.524 -0.2976 -0.0355  0.9042
 9943TIP3    H151244   5.787   5.975  12.561  0.3869  0.3459  0.1252
 9943TIP3    H251245   5.746   6.054  12.438 -2.2420 -1.7130 -0.4117
 9944TIP3   OH251246   2.011   6.702  16.674  0.3215 -1.1578  0.1613
 9944TIP3    H151247   2.066   6.721  16.598 -1.5798 -2.2039 -1.5952
 9944TIP3    H251248   1.968   6.785  16.695 -0.9131 -1.3525 -1.4628
 9945TIP3   OH251249   3.365   3.201  17.115  0.1251 -0.0360  0.1487
 9945TIP3    H151250   3.308   3.192  17.192  0.4757  0.0063  0.4130
 9945TIP3    H251251   3.443   3.151  17.138 -0.0923 -0.6904 -0.4987
 9946TIP3   OH251252   0.568   6.071  12.574 -0.1219 -0.4963  0.6090
 9946TIP3    H151253   0.659   6.094  12.592 -0.9106  1.2104  2.9470
 9946TIP3    H251254   0.565   5.976  12.586  1.0746 -0.3967  1.9748
 9947TIP3   OH251255   1.091   5.420   3.563 -0.3131 -0.3058  0.4213
 9947TIP3    H151256   1.145   5.458   3.633 -1.6601  1.0643  0.7826
 9947TIP3    H251257   1.025   5.369   3.609 -0.9068  0.1941  0.1410
 9948TIP3   OH251258   2.576   2.578  14.070 -0.5654  0.1875  0.5578
 9948TIP3    H151259   2.646   2.519  14.099  0.1953  0.7474 -0.0900
 9948TIP3    H251260   2.538   2.536  13.993  0.0421  0.5727  0.0374
 9949TIP3   OH251261   2.821   5.236   6.247 -0.0243 -0.8233 -0.3222
 9949TIP3    H151262   2.913   5.222   6.272 -0.4715 -0.8297  1.3924
 9949TIP3    H251263   2.807   5.330   6.259 -0.0050 -0.6345 -1.5559
 9950TIP3   OH251264   5.537   6.585  11.016  0.1016 -0.7159  0.1646
 9950TIP3    H151265   5.617   6.542  10.985  0.3315  0.5108 -1.0262
 9950TIP3    H251266   5.484   6.597  10.938 -0.4676  0.0849  0.6608
 9951TIP3   OH251267   3.794   0.883   5.822 -0.0503 -0.3860  0.9237
 9951TIP3    H151268   3.758   0.803   5.859 -0.5652  0.1299  1.5747
 9951TIP3    H251269   3.775   0.951   5.887 -0.5520  0.4649 -0.0716
 9952TIP3   OH251270   2.890   6.103   3.034 -0.2976  0.0052  0.1969
 9952TIP3    H151271   2.977   6.097   3.073 -0.9946 -0.1738  1.7985
 9952TIP3    H251272   2.905   6.092   2.940  1.5269  1.1849  0.3059
 9953TIP3   OH251273   5.608   6.338  14.459  0.6787 -0.2392  0.3135
 9953TIP3    H151274   5.617   6.279  14.384 -0.7661  0.1982 -0.2205
 9953TIP3    H251275   5.629   6.425  14.424 -1.7997  0.2517 -0.0815
 9954TIP3   OH251276   6.449   3.892   4.016 -0.0285 -0.3379 -0.2691
 9954TIP3    H151277   6.417   3.893   3.925 -3.1280  0.8122  0.7199
 9954TIP3    H251278   6.400   3.961   4.060  1.1820 -1.0369  2.3833
 9955TIP3   OH251279   1.184   0.651  15.339 -0.5872 -0.3295 -0.2060
 9955TIP3    H151280   1.260   0.707  15.357 -0.6733 -0.2038 -0.2298
 9955TIP3    H251281   1.187   0.638  15.244 -0.5431 -0.3996 -0.1955
 9956TIP3   OH251282   1.339   4.692  15.042  0.5568  0.5687 -0.0117
 9956TIP3    H151283   1.384   4.767  15.080  2.2225 -0.3825  0.0392
 9956TIP3    H251284   1.397   4.663  14.971 -1.0898  0.5931 -1.4090
 9957TIP3   OH251285   1.220   5.545  15.960  0.1697 -0.1306  0.7494
 9957TIP3    H151286   1.270   5.602  15.902  0.7024  0.3087  1.6233
 9957TIP3    H251287   1.213   5.594  16.042 -1.5154 -0.2669  0.7348
 9958TIP3   OH251288   0.152   3.223   6.400 -0.2937 -0.4439  0.4013
 9958TIP3    H151289   0.087   3.155   6.384 -0.0916 -1.1678  2.3883
 9958TIP3    H251290   0.106   3.289   6.452  0.0579 -0.0261  0.1949
 9959TIP3   OH251291   1.875   2.933  14.671  0.2254 -0.0076  0.5772
 9959TIP3    H151292   1.782   2.937  14.692 -0.3265  1.8240 -1.7584
 9959TIP3    H251293   1.897   3.022  14.642  1.7902 -1.2170 -2.3238
 9960TIP3   OH251294   4.860   4.531  16.216 -0.4343 -0.0181 -0.2069
 9960TIP3    H151295   4.906   4.447  16.209 -0.6065 -0.1029 -0.3351
 9960TIP3    H251296   4.826   4.547  16.128 -0.4038  0.1859 -0.1812
 9961TIP3   OH251297   4.056   6.439  15.538  0.2091 -0.2882 -0.1017
 9961TIP3    H151298   4.143   6.432  15.500  0.4457  0.3624  0.3135
 9961TIP3    H251299   4.068   6.493  15.616 -0.9914  2.1057 -1.4490
 9962TIP3   OH251300   2.609   2.579   5.856  0.7148  0.1567  0.0138
 9962TIP3    H151301   2.616   2.579   5.951 -2.4035  1.0798  0.3523
 9962TIP3    H251302   2.634   2.668   5.830  1.8852 -0.1885 -0.1232
 9963TIP3   OH251303   0.258   1.673   0.742  0.4011 -0.3465 -0.2535
 9963TIP3    H151304   0.242   1.657   0.649 -1.5352 -1.1592  0.1635
 9963TIP3    H251305   0.337   1.623   0.762 -0.3410 -1.9101 -1.0311
 9964TIP3   OH251306   1.707   1.678  12.509 -0.4465  0.1208  0.0563
 9964TIP3    H151307   1.633   1.622  12.530  1.2296 -2.1755  0.2835
 9964TIP3    H251308   1.742   1.705  12.594 -0.4249  0.3242 -0.0167
 9965TIP3   OH251309   2.169   5.888   1.035 -0.5664  0.2748 -0.7760
 9965TIP3    H151310   2.154   5.958   0.972  0.7316  1.6945  0.4192
 9965TIP3    H251311   2.109   5.908   1.107 -1.2121 -0.6850 -1.0229
 9966TIP3   OH251312   5.406   3.303  14.679  0.1397 -0.2579 -0.4227
 9966TIP3    H151313   5.459   3.373  14.718 -0.7698  0.6497 -0.7877
 9966TIP3    H251314   5.323   3.306  14.726 -0.8569  0.6431 -2.1393
 9967TIP3   OH251315   4.384   0.862  14.357  0.0353  0.3928  0.0353
 9967TIP3    H151316   4.332   0.788  14.387 -0.5822  0.5080 -0.7108
 9967TIP3    H251317   4.435   0.827  14.284  1.2160  0.2170  0.9118
 9968TIP3   OH251318   4.551   6.694  12.351 -0.3511 -0.2151  0.6386
 9968TIP3    H151319   4.463   6.711  12.318  0.2867  0.5152 -0.8070
 9968TIP3    H251320   4.564   6.759  12.420 -0.2333  1.0745 -0.5442
 9969TIP3   OH251321   3.422   2.052  10.623 -0.3472  0.5173 -0.4886
 9969TIP3    H151322   3.445   2.081  10.535 -2.0930  0.8694 -0.8756
 9969TIP3    H251323   3.452   2.123  10.680 -0.2743  0.8457 -0.9279
 9970TIP3   OH251324   5.282   5.354  14.835  0.3033  0.0774 -0.5406
 9970TIP3    H151325   5.371   5.323  14.846 -0.2149 -1.4121 -0.2895
 9970TIP3    H251326   5.291   5.445  14.807  1.8962  1.5076  3.7251
 9971TIP3   OH251327   2.338   6.238  17.021 -0.5581 -0.3604  0.1830
 9971TIP3    H151328   2.303   6.307  17.077  0.4848  1.3418 -1.1449
 9971TIP3    H251329   2.349   6.163  17.079  0.5980  1.3333  2.3056
 9972TIP3   OH251330   2.964   3.844   3.380  0.6896  0.6339 -0.4909
 9972TIP3    H151331   2.935   3.915   3.322  1.7972 -0.0870 -1.9948
 9972TIP3    H251332   3.023   3.888   3.441 -0.7784  1.4740  0.3819
 9973TIP3   OH251333   6.200   2.571  16.090  0.1929  0.0269  0.5405
 9973TIP3    H151334   6.108   2.556  16.070  0.1213 -1.3164  1.7045
 9973TIP3    H251335   6.247   2.545  16.010 -0.4086  0.7304 -0.0599
 9974TIP3   OH251336   1.660   2.046  15.379 -0.2629 -0.2667 -0.2232
 9974TIP3    H151337   1.717   2.035  15.303 -0.0500 -0.3741 -0.0466
 9974TIP3    H251338   1.674   2.136  15.407  0.4324 -0.5381  0.3168
 9975TIP3   OH251339   1.143   5.992   3.262 -0.5698 -0.1408  0.0683
 9975TIP3    H151340   1.052   6.021   3.261 -0.4928  0.4264 -3.1272
 9975TIP3    H251341   1.182   6.035   3.186  3.2463  2.0467  2.8976
 9976TIP3   OH251342   1.632   1.682  15.765  0.5172  0.1599  0.3752
 9976TIP3    H151343   1.676   1.765  15.749  0.8141  0.1943  1.2882
 9976TIP3    H251344   1.552   1.686  15.712  0.0467  1.4350  1.1400
 9977TIP3   OH251345   3.259   4.626  15.015 -0.1925 -0.0839 -0.2881
 9977TIP3    H151346   3.335   4.678  14.989 -0.3335  0.6962  0.8280
 9977TIP3    H251347   3.248   4.563  14.943  0.2130  1.1544 -1.4795
 9978TIP3   OH251348   4.570   5.555   6.446  0.3391 -0.2582 -0.0255
 9978TIP3    H151349   4.533   5.488   6.389  0.3683  0.0176 -0.3759
 9978TIP3    H251350   4.659   5.525   6.463  0.4720 -0.1359 -0.4736
 9979TIP3   OH251351   4.269   3.661  17.178 -0.2460  0.4070 -0.2667
 9979TIP3    H151352   4.234   3.711  17.105 -1.9123 -2.8695 -1.9603
 9979TIP3    H251353   4.205   3.672  17.248 -1.8318 -0.9433 -1.3945
 9980TIP3   OH251354   1.986   5.455  12.883 -0.2910 -0.1539 -0.1114
 9980TIP3    H151355   2.063   5.431  12.831  1.3089  1.8957  1.1767
 9980TIP3    H251356   1.978   5.385  12.948  0.8874 -0.0773  0.1367
 9981TIP3   OH251357   3.844   2.117  12.239 -0.2123  0.0369  0.0787
 9981TIP3    H151358   3.836   2.202  12.196 -0.2021 -0.5988 -1.2286
 9981TIP3    H251359   3.791   2.125  12.318  0.3122  1.4593  0.3083
 9982TIP3   OH251360   2.964   2.412  12.525  0.1211 -0.1320 -0.3367
 9982TIP3    H151361   2.998   2.435  12.439 -2.4304  2.8522 -0.7167
 9982TIP3    H251362   2.900   2.343  12.508  1.7852 -1.7623 -0.3229
 9983TIP3   OH251363   3.919   1.208   1.144 -0.3905 -0.0480  0.3017
 9983TIP3    H151364   3.934   1.268   1.217 -0.5441 -1.5659  1.6446
 9983TIP3    H251365   3.973   1.132   1.165  0.1647 -0.2061 -1.5924
 9984TIP3   OH251366   2.940   0.928   2.431 -0.2926  0.2181  0.0655
 9984TIP3    H151367   2.932   1.002   2.491 -1.7009 -0.2513  0.4899
 9984TIP3    H251368   2.982   0.965   2.353  3.6519  0.3853  2.0254
 9985TIP3   OH251369   5.381   3.931   1.650 -0.1793  0.0153  0.0060
 9985TIP3    H151370   5.375   4.016   1.695 -0.8043 -0.5569  1.0471
 9985TIP3    H251371   5.472   3.904   1.662  0.2380  0.8758 -1.0089
 9986TIP3   OH251372   1.242   4.223   2.604 -0.2909  0.1653 -0.4428
 9986TIP3    H151373   1.247   4.319   2.611 -1.8412  0.2484 -0.0373
 9986TIP3    H251374   1.333   4.195   2.598  0.2031  1.6628 -0.5136
 9987TIP3   OH251375   0.753   4.762  13.332  0.6495 -0.5766  0.2099
 9987TIP3    H151376   0.718   4.807  13.256  0.0063 -1.3486  0.0358
 9987TIP3    H251377   0.794   4.831  13.385  1.4724 -0.0911 -1.0288
 9988TIP3   OH251378   1.127   3.099   5.011  0.3122 -0.2532  0.8029
 9988TIP3    H151379   1.119   3.176   4.955  2.0211 -0.7565 -0.2073
 9988TIP3    H251380   1.065   3.036   4.976  2.0149 -0.9156 -1.2217
 9989TIP3   OH251381   1.987   1.013   2.045  0.4284 -0.4241  0.0943
 9989TIP3    H151382   2.020   0.964   1.970  0.5610  0.2964 -0.3239
 9989TIP3    H251383   1.894   0.987   2.051  0.9338 -2.2302  1.1032
 9990TIP3   OH251384   0.279   3.116  14.043  0.4186  0.2233  0.1653
 9990TIP3    H151385   0.214   3.047  14.050  0.7927 -0.1244  0.2165
 9990TIP3    H251386   0.228   3.197  14.043  0.0544  0.0188  1.5348
 9991TIP3   OH251387   2.792   3.074   0.398  0.1501  0.1949 -0.2967
 9991TIP3    H151388   2.841   3.120   0.465 -0.0545 -1.2782  0.9181
 9991TIP3    H251389   2.702   3.106   0.407  0.1116 -0.0437  0.1794
 9992TIP3   OH251390   4.911   4.202   0.443  0.0903  0.4970 -0.5447
 9992TIP3    H151391   4.974   4.130   0.434 -0.5192 -0.1368  0.1819
 9992TIP3    H251392   4.942   4.251   0.519 -0.3982  0.0806 -0.0786
 9993TIP3   OH251393   1.586   0.856  15.785  0.4853  0.2546  0.5091
 9993TIP3    H151394   1.657   0.886  15.841  0.6871  0.0390  0.3705
 9993TIP3    H251395   1.551   0.936  15.746  0.7986  0.3412  0.4036
 9994TIP3   OH251396   5.320   3.583  16.924 -0.1528 -0.2998  0.0265
 9994TIP3    H151397   5.350   3.555  16.837 -1.6889  3.0572 -1.7894
 9994TIP3    H251398   5.232   3.616  16.908  1.1359  4.8290  1.7295
 9995TIP3   OH251399   6.402   0.251   1.919  0.1571  0.4245 -0.2598
 9995TIP3    H151400   6.339   0.292   1.860  1.5479  1.9679 -0.7300
 9995TIP3    H251401   6.378   0.283   2.006 -0.3380  0.1445 -0.2857
 9996TIP3   OH251402   4.080   4.917   2.878  0.0430  0.1380 -0.5847
 9996TIP3    H151403   4.052   4.990   2.933  1.1434 -0.0957  0.3244
 9996TIP3    H251404   4.158   4.950   2.832  2.6464 -1.4175  2.3565
 9997TIP3   OH251405   2.225   1.154   1.918  1.0647 -0.5623  0.1192
 9997TIP3    H151406   2.222   1.249   1.929 -0.7209 -0.2377 -2.2748
 9997TIP3    H251407   2.142   1.123   1.954  0.0845 -0.7222 -2.1029
 9998TIP3   OH251408   3.338   3.563  15.473  0.4783 -0.1138 -0.1572
 9998TIP3    H151409   3.298   3.602  15.551  1.3882  3.1346 -1.1627
 9998TIP3    H251410   3.397   3.496  15.507  0.3437  0.7317  1.8829
 9999TIP3   OH251411   5.903   0.882  11.084  0.1414 -0.4883  0.1084
 9999TIP3    H151412   5.978   0.933  11.116 -0.3791 -1.3724  3.0763
 9999TIP3    H251413   5.844   0.947  11.046  2.3259  0.2232 -2.4000
10000TIP3   OH251414   2.219   2.349   5.905 -0.0577 -0.5088  0.1034
10000TIP3    H151415   2.249   2.269   5.863 -2.8573 -0.5736 -2.0579
10000TIP3    H251416   2.264   2.419   5.858  0.9337 -0.7079  0.7183
10001TIP3   OH251417   4.343   3.811   4.314  0.1649  0.3394 -0.2074
10001TIP3    H151418   4.315   3.845   4.229  0.6174  1.5062  0.0908
10001TIP3    H251419   4.307   3.723   4.318 -1.7966  1.0821 -0.6512
10002TIP3   OH251420   2.454   2.733   4.298 -0.7157 -0.1057  0.4321
10002TIP3    H151421   2.524   2.721   4.234  1.1324  2.8010  1.7195
10002TIP3    H251422   2.466   2.663   4.362  0.4557 -0.1632  0.1565
10003TIP3   OH251423   5.262   3.063   5.237  0.4418  0.3985 -0.2509
10003TIP3    H151424   5.227   3.124   5.302  2.1441  1.6603 -0.4764
10003TIP3    H251425   5.319   3.005   5.287 -0.6781 -0.6572 -0.1450
10004TIP3   OH251426   5.462   6.712  17.212  0.3393 -0.0468  0.0662
10004TIP3    H151427   5.465   6.716  17.307 -1.7263  1.1597  0.1257
10004TIP3    H251428   5.488   6.622  17.191  1.1202 -0.2406  1.7192
10005TIP3   OH251429   1.741   4.809   1.600  0.1996 -0.1923  0.4805
10005TIP3    H151430   1.730   4.726   1.646 -0.1028 -0.3160  0.1780
10005TIP3    H251431   1.810   4.854   1.650  0.3841 -0.6313  0.6284
10006TIP3   OH251432   4.807   5.450   2.169 -0.2940  0.1605  0.7880
10006TIP3    H151433   4.772   5.496   2.092 -1.1322 -0.0916  1.0198
10006TIP3    H251434   4.901   5.469   2.166 -0.0842 -0.8733 -1.0103
10007TIP3   OH251435   1.290   5.201  16.557 -0.0423 -0.2235  0.0382
10007TIP3    H151436   1.317   5.124  16.606 -0.2235  0.1883  0.7989
10007TIP3    H251437   1.207   5.227  16.596  0.2029  0.5731  0.0462
10008TIP3   OH251438   4.893   1.420  13.964  0.1795  0.1984 -0.3260
10008TIP3    H151439   4.932   1.367  13.894 -0.5940 -1.2687  0.3182
10008TIP3    H251440   4.816   1.371  13.991 -0.6682  1.7545  0.2020
10009TIP3   OH251441   1.355   1.312  11.014 -0.1412 -1.0472 -0.4285
10009TIP3    H151442   1.438   1.361  11.015 -0.4409 -0.3141 -2.9116
10009TIP3    H251443   1.293   1.369  11.059  0.6164 -1.5047  1.2576
10010TIP3   OH251444   5.696   3.203   2.953 -0.2238 -0.2086 -0.0423
10010TIP3    H151445   5.634   3.179   2.885 -0.9071  0.7993  0.2099
10010TIP3    H251446   5.686   3.135   3.020 -0.3729 -0.5620 -0.4207
10011TIP3   OH251447   3.578   2.751   3.567 -0.4165  0.6525  0.3351
10011TIP3    H151448   3.487   2.736   3.593 -0.6582 -1.8990 -1.5384
10011TIP3    H251449   3.572   2.784   3.477  0.5181  2.0378  0.7483
10012TIP3   OH251450   3.210   5.969   2.180  0.1546  0.1737  0.1659
10012TIP3    H151451   3.275   5.900   2.193  1.3501  0.8893 -1.5398
10012TIP3    H251452   3.134   5.925   2.144  0.2242 -0.4802  0.8033
10013TIP3   OH251453   0.900   5.344  14.600 -0.3186  0.0941 -0.1259
10013TIP3    H151454   0.910   5.377  14.690  1.6628 -0.1137 -0.2112
10013TIP3    H251455   0.838   5.404  14.559 -1.5567 -0.0285  1.4722
10014TIP3   OH251456   1.081   1.661  10.789 -0.2134  0.3879  0.0130
10014TIP3    H151457   1.003   1.605  10.784 -0.0448  0.1414  0.1511
10014TIP3    H251458   1.129   1.642  10.709 -0.5013  0.8496 -0.2747
10015TIP3   OH251459   1.141   2.830   3.480 -0.5114  1.1195 -0.3739
10015TIP3    H151460   1.164   2.905   3.426  0.0316 -0.3105 -2.2338
10015TIP3    H251461   1.050   2.811   3.459 -0.3237  0.6055 -0.7422
10016TIP3   OH251462   5.922   5.428  16.737  0.0918  0.1669  0.1809
10016TIP3    H151463   5.961   5.489  16.799 -0.6075  1.3343 -0.4945
10016TIP3    H251464   5.983   5.426  16.663 -0.1813  0.5295 -0.0589
10017TIP3   OH251465   0.538   1.611   4.927 -0.1819 -0.1295  0.5405
10017TIP3    H151466   0.593   1.664   4.985  0.0828 -0.2583  0.4080
10017TIP3    H251467   0.499   1.546   4.984 -1.1162  0.6700  0.8493
10018TIP3   OH251468   3.454   2.476   1.518  0.1666 -0.1127  0.0785
10018TIP3    H151469   3.373   2.437   1.485  0.9202  0.0130 -2.0564
10018TIP3    H251470   3.515   2.470   1.445  1.7806  0.7598  1.2907
10019TIP3   OH251471   0.722   3.169  12.907  0.4363  0.0083 -0.5378
10019TIP3    H151472   0.791   3.106  12.924 -0.0626 -0.5208 -0.4253
10019TIP3    H251473   0.692   3.196  12.994 -1.3240 -1.8195 -0.4862
10020TIP3   OH251474   5.202   5.682   1.605  0.6274  0.1571 -0.2217
10020TIP3    H151475   5.196   5.588   1.625 -0.7516  0.4584  0.9483
10020TIP3    H251476   5.115   5.716   1.625  1.3404  1.8460  0.1598
10021TIP3   OH251477   2.277   6.036   5.617 -0.2004 -0.2356 -0.4092
10021TIP3    H151478   2.296   5.943   5.605 -0.8506 -0.2994 -1.0122
10021TIP3    H251479   2.267   6.047   5.711  1.0031 -0.5471 -0.2285
10022TIP3   OH251480   6.763   0.189   4.516 -0.2302  0.3092 -0.1257
10022TIP3    H151481   6.736   0.261   4.573  1.8555  1.2926 -0.2989
10022TIP3    H251482   6.798   0.123   4.577 -0.5279  0.1708 -0.0993
10023TIP3   OH251483   1.796   1.863   2.698 -0.0521  0.4822 -0.1541
10023TIP3    H151484   1.874   1.818   2.733 -0.5845 -0.8488 -0.5932
10023TIP3    H251485   1.738   1.792   2.672 -2.4300  1.3695  2.2579
10024TIP3   OH251486   0.961   1.630  16.652  0.2673 -0.7683  0.3597
10024TIP3    H151487   0.973   1.715  16.610  1.9888 -1.6275 -1.0136
10024TIP3    H251488   0.933   1.572  16.582  1.0711 -1.7567  0.8274
10025TIP3   OH251489   3.607   1.676  14.251 -0.3262 -0.4740  0.1848
10025TIP3    H151490   3.558   1.698  14.330 -0.2596 -1.6882  0.5869
10025TIP3    H251491   3.699   1.678  14.278 -0.2394  0.1073 -0.1323
10026TIP3   OH251492   0.087   6.038  14.536  0.0320  0.2850  0.4764
10026TIP3    H151493   0.156   5.975  14.514 -1.1449 -0.6356 -0.7595
10026TIP3    H251494   0.133   6.112  14.574  1.5493 -0.9961  1.2695
10027TIP3   OH251495   4.195   3.629  15.126 -0.2253  0.1015  0.4518
10027TIP3    H151496   4.223   3.651  15.037  1.5237 -1.1205  0.6413
10027TIP3    H251497   4.107   3.665  15.133  0.1786  1.5644 -1.2436
10028TIP3   OH251498   2.503   3.818   2.414 -0.1738  0.4987  0.2936
10028TIP3    H151499   2.572   3.794   2.476 -0.7667 -0.1686  0.7079
10028TIP3    H251500   2.471   3.903   2.445 -1.6297 -0.5900  1.9601
10029TIP3   OH251501   6.716   1.478  15.828  0.5495  0.0203  0.0687
10029TIP3    H151502   6.763   1.480  15.912  1.3124 -1.2172 -0.3015
10029TIP3    H251503   6.780   1.445  15.765 -0.2365  0.2261 -0.8700
10030TIP3   OH251504   1.792   6.293  15.615 -0.3820 -0.5401 -0.6715
10030TIP3    H151505   1.860   6.359  15.626 -1.9223  1.0088  0.1152
10030TIP3    H251506   1.753   6.284  15.702 -1.6586 -0.8169 -1.2496
10031TIP3   OH251507   0.362   5.931   2.546 -0.3473 -0.2028 -0.1291
10031TIP3    H151508   0.309   5.951   2.468  1.1697  1.1402 -0.8638
10031TIP3    H251509   0.448   5.909   2.511 -0.8590 -4.8682  0.8444
10032TIP3   OH251510   3.201   2.949   2.737 -0.4730  0.2254 -0.0232
10032TIP3    H151511   3.210   2.949   2.833  0.1557  1.1413 -0.0706
10032TIP3    H251512   3.289   2.930   2.705 -0.0578  2.5419 -0.4272
10033TIP3   OH251513   0.100   3.641  11.160 -0.4362  0.2291 -0.5900
10033TIP3    H151514   0.175   3.664  11.105 -0.9335  1.7568 -0.6746
10033TIP3    H251515   0.034   3.707  11.139 -1.3162 -0.2837  0.4776
10034TIP3   OH251516   1.465   0.452   0.086  0.4361  0.1451 -0.4892
10034TIP3    H151517   1.472   0.494   0.172  2.0911 -2.5445  0.8181
10034TIP3    H251518   1.373   0.426   0.080 -0.0295  1.6050 -0.2281
10035TIP3   OH251519   5.258   3.127   4.101 -0.3519  0.3424  0.1319
10035TIP3    H151520   5.266   3.214   4.063 -1.9642 -0.4202 -2.1861
10035TIP3    H251521   5.348   3.103   4.124  0.2125  2.3131  0.1792
10036TIP3   OH251522   3.307   6.207  12.616  0.4732  0.0399 -0.1224
10036TIP3    H151523   3.262   6.147  12.557 -1.5169 -0.9890  2.2418
10036TIP3    H251524   3.243   6.276  12.633  1.2456  0.6644  0.3156
10037TIP3   OH251525   2.385   3.862  13.585 -0.3789  0.0558  0.0768
10037TIP3    H151526   2.330   3.937  13.607 -0.2669  0.1596  0.0044
10037TIP3    H251527   2.412   3.878  13.494  0.1335  0.2286  0.2568
10038TIP3   OH251528   1.743   0.818  13.831 -0.6091 -0.3081  0.5210
10038TIP3    H151529   1.790   0.817  13.914 -0.1897  2.9514  0.4368
10038TIP3    H251530   1.657   0.856  13.853 -1.0816 -0.8846 -0.2873
10039TIP3   OH251531   2.222   1.556  12.202 -0.8429 -0.0811 -0.1157
10039TIP3    H151532   2.219   1.461  12.204 -1.6612 -0.0506  0.4062
10039TIP3    H251533   2.242   1.578  12.111 -2.3638 -0.7145 -0.6254
10040TIP3   OH251534   4.069   5.796  10.924  0.9673  0.2944  0.0614
10040TIP3    H151535   4.154   5.798  10.967  0.2885 -2.1796  1.6929
10040TIP3    H251536   4.051   5.704  10.909 -0.9976  0.8148 -1.1997
10041TIP3   OH251537   4.124   2.424  16.076  0.6323 -0.1602  0.1299
10041TIP3    H151538   4.034   2.457  16.074  1.3181  1.8311 -1.3071
10041TIP3    H251539   4.156   2.449  16.163 -0.3113 -1.3108  0.8384
10042TIP3   OH251540   3.637   5.630  13.808 -0.1224 -0.0087 -0.1162
10042TIP3    H151541   3.658   5.724  13.811 -1.6212  0.3394  0.0457
10042TIP3    H251542   3.680   5.599  13.728  4.6284 -0.3224  2.1965
10043TIP3   OH251543   2.616   2.342   4.983 -0.1215 -0.5456 -0.0608
10043TIP3    H151544   2.618   2.368   5.075  0.5138  0.6038 -0.3858
10043TIP3    H251545   2.560   2.264   4.982 -0.1653 -0.5645  1.2861
10044TIP3   OH251546   4.563   1.841   0.106 -0.1461 -0.0237 -0.3245
10044TIP3    H151547   4.614   1.765   0.135  0.3844 -0.3130 -1.9368
10044TIP3    H251548   4.622   1.916   0.120 -0.2375 -0.0415  0.1765
10045TIP3   OH251549   3.160   5.829   4.140  0.1853  0.4135 -0.5887
10045TIP3    H151550   3.155   5.872   4.225 -1.9293 -2.4943  0.9365
10045TIP3    H251551   3.085   5.864   4.091 -0.1065  0.2247 -0.2789
10046TIP3   OH251552   6.357   3.735  12.495  0.2218 -0.6571  0.1932
10046TIP3    H151553   6.347   3.640  12.490 -0.9762 -0.4925 -1.1328
10046TIP3    H251554   6.328   3.757  12.584 -0.4658 -1.4246  0.1707
10047TIP3   OH251555   2.008   0.917  11.802 -0.0822 -0.1017 -0.3419
10047TIP3    H151556   1.954   0.839  11.817  2.0439 -1.7596 -0.9076
10047TIP3    H251557   1.992   0.939  11.710  0.9741 -1.2683 -0.8357
10048TIP3   OH251558   4.989   0.084  16.945  0.1162  0.1043  0.1917
10048TIP3    H151559   4.991  -0.009  16.965  2.2979  0.4170  1.7311
10048TIP3    H251560   4.896   0.105  16.939 -0.4434 -1.9496  0.8960
10049TIP3   OH251561   4.934   2.319  11.942  0.1767 -0.0340 -0.1758
10049TIP3    H151562   4.848   2.349  11.970 -0.0108 -0.5510 -0.1940
10049TIP3    H251563   4.920   2.278  11.857  0.8531  2.1311 -1.4255
10050TIP3   OH251564   1.581   2.362  14.894  0.2965 -0.4517 -0.4493
10050TIP3    H151565   1.552   2.371  14.985  0.6609  0.0652 -0.3819
10050TIP3    H251566   1.561   2.446  14.853  1.9467  0.0462 -0.3164
10051TIP3   OH251567   2.463   0.915  15.763  0.0813  0.2261  0.2564
10051TIP3    H151568   2.447   0.939  15.855 -2.7671  2.0221 -0.5773
10051TIP3    H251569   2.412   0.836  15.750  0.6873 -0.1723  0.2331
10052TIP3   OH251570   2.279   1.454   3.333 -0.1242  0.3104  0.4310
10052TIP3    H151571   2.194   1.414   3.317  1.0581 -1.7637 -1.1142
10052TIP3    H251572   2.311   1.410   3.412  0.0971  0.0759  0.2110
10053TIP3   OH251573   0.315   1.374  14.881  0.2860  0.1616  0.1338
10053TIP3    H151574   0.242   1.352  14.938  0.8555  0.0485  0.8361
10053TIP3    H251575   0.275   1.390  14.796 -0.5784  0.3364  0.5608
10054TIP3   OH251576   5.105   0.987  17.142  0.7328  0.3705 -0.2398
10054TIP3    H151577   5.019   1.026  17.125  0.2858 -0.4121  0.1699
10054TIP3    H251578   5.135   1.028  17.223 -0.3125 -1.0275  0.9006
10055TIP3   OH251579   2.575   1.711   2.921 -0.7672  1.0677  0.0385
10055TIP3    H151580   2.535   1.711   2.834 -0.8869 -0.5123  0.0619
10055TIP3    H251581   2.510   1.669   2.977  0.2093 -0.0282  0.4086
10056TIP3   OH251582   5.858   3.308   4.084 -0.1826 -0.3535 -0.0611
10056TIP3    H151583   5.875   3.359   4.005 -2.0667 -0.2442 -0.4446
10056TIP3    H251584   5.806   3.366   4.139  0.6939 -0.6075  1.0678
10057TIP3   OH251585   1.951   4.709   6.558 -0.3435  0.5066 -0.1269
10057TIP3    H151586   1.871   4.757   6.579 -0.0331  0.6143  0.8741
10057TIP3    H251587   2.009   4.726   6.633  0.2476 -0.3691 -0.3704
10058TIP3   OH251588   2.551   6.179   5.460  0.2172 -1.4827  0.3257
10058TIP3    H151589   2.464   6.219   5.465  1.1165  0.7893 -0.8297
10058TIP3    H251590   2.548   6.123   5.382 -0.4693 -2.2011  0.8505
10059TIP3   OH251591   4.044   0.868  15.428 -0.0930 -0.1448  0.3923
10059TIP3    H151592   4.096   0.787  15.432 -0.4496 -0.3438  1.4589
10059TIP3    H251593   4.026   0.888  15.520  0.1477  1.2566  0.1476
10060TIP3   OH251594   6.368   5.772   4.854 -0.3139 -0.2122 -0.2590
10060TIP3    H151595   6.345   5.857   4.819  0.0613  0.6478  1.4687
10060TIP3    H251596   6.288   5.720   4.848 -0.6922  0.4270 -0.8157
10061TIP3   OH251597   5.139   6.224  15.132 -0.3223 -0.0980  0.1099
10061TIP3    H151598   5.109   6.315  15.135 -0.7630 -0.1930 -0.8663
10061TIP3    H251599   5.128   6.198  15.040 -0.4952 -1.2346  0.4297
10062TIP3   OH251600   1.542   4.789   3.887 -0.7517  0.2178 -0.2774
10062TIP3    H151601   1.516   4.851   3.819 -1.8515 -0.6066 -0.6253
10062TIP3    H251602   1.462   4.740   3.907  0.2653 -1.7215 -0.6845
10063TIP3   OH251603   2.996   6.145   2.522  0.1543 -0.4760 -0.0923
10063TIP3    H151604   2.975   6.237   2.535 -1.2290 -0.8707  0.6654
10063TIP3    H251605   2.963   6.125   2.434 -1.2898 -0.6918  0.4726
10064TIP3   OH251606   6.506   0.132   0.885 -0.2713 -0.4917 -0.1369
10064TIP3    H151607   6.528   0.075   0.958 -0.8877 -1.1353 -0.4467
10064TIP3    H251608   6.510   0.076   0.808  1.4559  0.4173 -0.7664
10065TIP3   OH251609   2.051   2.104   0.694  0.3520  0.1759 -0.2014
10065TIP3    H151610   1.976   2.086   0.637  0.5451 -0.8716 -0.1325
10065TIP3    H251611   2.088   2.018   0.713  1.0069  0.6135  0.5380
10066TIP3   OH251612   0.601   0.165  10.859 -0.3126 -0.2417  0.2215
10066TIP3    H151613   0.573   0.097  10.920  2.2766 -2.1200 -0.5262
10066TIP3    H251614   0.569   0.136  10.774 -1.5452  0.9454  0.2515
10067TIP3   OH251615   3.068   6.570   0.351  0.1835  1.0125  0.1494
10067TIP3    H151616   3.126   6.566   0.276  1.0554  1.9192  0.7510
10067TIP3    H251617   3.051   6.478   0.373  1.9609  0.7012  0.3836
10068TIP3   OH251618   5.059   3.877  11.268  0.1060  0.0485  0.0720
10068TIP3    H151619   5.128   3.824  11.228 -0.5873 -0.2730 -0.7502
10068TIP3    H251620   4.990   3.879  11.202 -1.0763 -0.4685  1.2365
10069TIP3   OH251621   3.846   1.375   0.865  0.4354  0.0137 -0.4189
10069TIP3    H151622   3.858   1.455   0.915  0.3183 -0.8512  1.0529
10069TIP3    H251623   3.753   1.354   0.876  0.8073 -1.1881  0.5999
10070TIP3   OH251624   4.177   5.983  11.974  0.0998 -0.2679  0.3205
10070TIP3    H151625   4.184   5.888  11.983  1.8116 -0.3957 -1.4994
10070TIP3    H251626   4.137   5.996  11.888 -0.6066  0.6775  0.7755
10071TIP3   OH251627   2.372   2.747  15.548  0.0700  0.1349 -0.2229
10071TIP3    H151628   2.307   2.779  15.611  1.1468  0.0413  0.9893
10071TIP3    H251629   2.339   2.775  15.463 -1.0543  0.9295  0.4406
10072TIP3   OH251630   5.693   2.828  11.548  0.3473 -0.0215  0.2764
10072TIP3    H151631   5.613   2.823  11.497  0.7050  1.7736 -0.5520
10072TIP3    H251632   5.672   2.886  11.621  0.0216 -2.0720  1.9046
10073TIP3   OH251633   1.337   3.908  11.997  0.1916 -0.4271 -0.0895
10073TIP3    H151634   1.424   3.920  12.036  0.3693 -0.0998 -0.5776
10073TIP3    H251635   1.291   3.990  12.013 -0.1905 -0.7616  0.5620
10074TIP3   OH251636   2.382   2.508  11.543  0.4311  0.1171  0.2449
10074TIP3    H151637   2.367   2.488  11.451  2.6575  0.7240 -0.3092
10074TIP3    H251638   2.372   2.603  11.549 -1.8439 -0.1017  1.1399
10075TIP3   OH251639   5.812   1.860  13.427  0.2236 -0.3997 -0.1629
10075TIP3    H151640   5.757   1.803  13.373  1.5566 -1.7544 -0.1357
10075TIP3    H251641   5.824   1.812  13.509 -2.1271  1.7919  1.6586
10076TIP3   OH251642   4.684   4.631   2.697 -0.1349  0.1306  0.2498
10076TIP3    H151643   4.628   4.660   2.625  0.1694  0.6430  0.2127
10076TIP3    H251644   4.773   4.654   2.669 -0.1257  1.5728  1.3629
10077TIP3   OH251645   0.419   0.372   3.570  0.0084  0.4337 -0.0458
10077TIP3    H151646   0.433   0.320   3.648  0.6510  1.7658  0.7598
10077TIP3    H251647   0.324   0.372   3.558 -0.0016 -1.0033 -0.1604
10078TIP3   OH251648   6.046   2.517  16.871  0.0560 -0.2967  0.1754
10078TIP3    H151649   6.025   2.480  16.785 -3.0408  0.6612  0.4174
10078TIP3    H251650   6.031   2.445  16.932 -1.1592 -0.0284  0.2057
10079TIP3   OH251651   2.081   0.699  11.188 -0.2622  0.7293 -0.2773
10079TIP3    H151652   1.990   0.670  11.194 -0.1430  0.5808  1.3567
10079TIP3    H251653   2.081   0.788  11.223  0.2981  0.5273  0.2605
10080TIP3   OH251654   3.516   2.400  13.273 -0.2784  0.2967 -0.1551
10080TIP3    H151655   3.577   2.469  13.247  0.3418 -0.2649 -0.2131
10080TIP3    H251656   3.432   2.445  13.283  0.1711  1.1068  0.0684
10081TIP3   OH251657   2.907   3.212  12.180 -0.3457  0.3762  0.3882
10081TIP3    H151658   2.896   3.183  12.270 -0.2552 -0.7160  0.0707
10081TIP3    H251659   2.845   3.284  12.170  0.4374  1.2677  1.6241
10082TIP3   OH251660   3.036   6.762  16.309  0.1034  0.0737 -0.0181
10082TIP3    H151661   3.084   6.679  16.317  1.1636  0.1953 -3.6475
10082TIP3    H251662   3.089   6.815  16.250 -1.2615  2.8831  1.0863
10083TIP3   OH251663   3.946   5.933   1.267 -0.2484  0.0092 -0.3421
10083TIP3    H151664   3.982   5.892   1.345  1.1013  2.0502  0.2007
10083TIP3    H251665   3.975   5.878   1.194  0.0042 -0.9314  0.4604
10084TIP3   OH251666   1.606   6.097   3.861  0.6574 -0.6214 -0.5281
10084TIP3    H151667   1.647   6.039   3.925  0.2774  0.9514  1.2232
10084TIP3    H251668   1.602   6.182   3.904 -3.0590 -0.3141 -1.1270
10085TIP3   OH251669   0.630   0.941   0.667  0.3233 -0.6037  0.0362
10085TIP3    H151670   0.623   1.013   0.729  1.0834 -0.6441  0.1852
10085TIP3    H251671   0.691   0.879   0.709  0.1240 -1.0625 -0.3398
10086TIP3   OH251672   2.840   4.002  16.819 -0.5588 -0.7975 -0.1507
10086TIP3    H151673   2.906   3.985  16.886 -0.3096 -1.6476 -0.6028
10086TIP3    H251674   2.889   4.041  16.746 -0.8983  0.5711  0.3111
10087TIP3   OH251675   6.000   3.204  15.675  0.4463  0.6168 -0.1815
10087TIP3    H151676   5.918   3.247  15.652 -0.1334  0.1991  1.0040
10087TIP3    H251677   6.031   3.252  15.752  0.3533 -0.3796  0.4945
10088TIP3   OH251678   4.018   1.316  16.258 -0.1411 -0.3719  0.7573
10088TIP3    H151679   3.999   1.409  16.244  1.5870  0.0759  1.1511
10088TIP3    H251680   3.968   1.293  16.336 -0.9473  0.0844  0.3921
10089TIP3   OH251681   1.220   0.979   6.147  0.1448 -0.8272  0.3813
10089TIP3    H151682   1.130   0.979   6.115  0.4261  1.1781 -0.5532
10089TIP3    H251683   1.229   1.063   6.193  1.9263 -0.2880 -0.8308
10090TIP3   OH251684   5.746   6.358   5.105 -0.3334  0.1269 -0.2490
10090TIP3    H151685   5.815   6.307   5.147  0.3550  1.1978 -0.0274
10090TIP3    H251686   5.792   6.433   5.067 -1.0858 -0.2476 -2.0077
10091TIP3   OH251687   6.525   6.520   5.402 -0.1410  0.3746  0.5141
10091TIP3    H151688   6.500   6.516   5.495 -1.0613  0.9057  0.2991
10091TIP3    H251689   6.505   6.609   5.376  2.6345  1.0700  0.4701
10092TIP3   OH251690   3.523   3.360  15.499  0.2788  0.2611  0.1458
10092TIP3    H151691   3.505   3.267  15.484  1.2359  0.0944 -0.0294
10092TIP3    H251692   3.570   3.363  15.582 -0.2728  0.6572  0.4507
10093TIP3   OH251693   3.564   5.329  16.875  0.0972 -0.0547  0.2681
10093TIP3    H151694   3.555   5.254  16.935 -0.4774  1.1942  1.7975
10093TIP3    H251695   3.491   5.386  16.897  1.3130  1.6337  0.1162
10094TIP3   OH251696   6.067   0.688  13.049 -0.7122  0.1291  0.7180
10094TIP3    H151697   6.054   0.668  12.956 -1.1509  1.6904  0.4223
10094TIP3    H251698   6.053   0.604  13.093  3.0049 -1.5044 -0.8426
10095TIP3   OH251699   3.773   0.830  14.183 -0.4167  0.8050 -0.2351
10095TIP3    H151700   3.783   0.792  14.270 -1.0138  0.1432 -0.4412
10095TIP3    H251701   3.858   0.817  14.141 -0.8525 -1.1380 -0.6094
10096TIP3   OH251702   3.742   1.614  12.880  0.1901  0.2257 -1.1126
10096TIP3    H151703   3.696   1.592  12.961 -0.6989 -2.4454 -2.2110
10096TIP3    H251704   3.722   1.541  12.821  1.7842  1.4714 -3.3500
10097TIP3   OH251705   6.166   3.071   0.761  0.3955  0.2145 -0.2722
10097TIP3    H151706   6.241   3.116   0.722 -1.3093  2.4355 -1.2108
10097TIP3    H251707   6.178   3.082   0.855  1.6786 -0.2875 -0.3470
10098TIP3   OH251708   2.375   1.252  11.358  0.0363  0.3671 -0.4504
10098TIP3    H151709   2.364   1.346  11.374 -0.3867  0.0585  1.1997
10098TIP3    H251710   2.469   1.240  11.349  0.0538  1.0315 -1.2989
10099TIP3   OH251711   1.213   2.241   6.064 -0.0629  0.1411  0.9424
10099TIP3    H151712   1.275   2.278   6.127 -1.6756  2.3579  1.3438
10099TIP3    H251713   1.142   2.207   6.117 -1.1986  1.5697  0.4135
10100TIP3   OH251714   0.469   5.655  16.135 -0.2044 -0.4351  0.2529
10100TIP3    H151715   0.448   5.576  16.183 -1.1572 -0.4591 -0.1849
10100TIP3    H251716   0.561   5.644  16.110 -0.2125 -1.2169  0.5437
10101TIP3   OH251717   1.589   1.430   3.095  0.2332  0.3334  0.1207
10101TIP3    H151718   1.497   1.413   3.076  0.1485  0.3352  0.5244
10101TIP3    H251719   1.622   1.474   3.017  0.3201 -1.1746 -0.7236
10102TIP3   OH251720   6.415   1.566  13.695 -0.2839  0.0603  0.2600
10102TIP3    H151721   6.358   1.638  13.723  0.4722  0.5344  0.5856
10102TIP3    H251722   6.504   1.600  13.704  0.0302 -0.2400 -1.4553
10103TIP3   OH251723   5.544   3.630   4.872  0.0408 -0.3317 -0.6940
10103TIP3    H151724   5.620   3.639   4.816  0.5534  0.4937  0.1017
10103TIP3    H251725   5.580   3.619   4.960 -0.7291  1.0038 -0.1725
10104TIP3   OH251726   0.482   1.806   2.784 -0.3249 -0.6488 -0.1565
10104TIP3    H151727   0.442   1.891   2.766 -0.3827 -0.0577  2.3841
10104TIP3    H251728   0.573   1.826   2.806 -0.2691 -1.2612  0.2049
10105TIP3   OH251729   6.408   3.107  12.641 -0.9324  0.1640  0.8311
10105TIP3    H151730   6.368   3.150  12.717 -2.8701  0.1014 -0.0992
10105TIP3    H251731   6.437   3.022  12.675 -0.2060  0.8146  1.8847
10106TIP3   OH251732   5.815   3.907  12.652  0.2497  0.1006  0.2357
10106TIP3    H151733   5.876   3.850  12.604  1.6722 -0.2272  2.3363
10106TIP3    H251734   5.869   3.948  12.720 -2.0062 -0.8615  2.7494
10107TIP3   OH251735   0.743   2.871   0.751  0.1005 -0.0088 -0.0491
10107TIP3    H151736   0.787   2.936   0.696  0.7927 -1.1246 -0.8648
10107TIP3    H251737   0.663   2.850   0.702  1.2855 -1.8752 -1.3151
10108TIP3   OH251738   0.984   6.134   5.687 -0.2809  0.4795 -0.0574
10108TIP3    H151739   0.978   6.060   5.626 -0.3799 -1.5446  2.2425
10108TIP3    H251740   0.932   6.107   5.763 -0.0529  2.8018  1.0111
10109TIP3   OH251741   3.539   2.325  12.082 -0.6827  0.3513 -0.0854
10109TIP3    H151742   3.577   2.346  11.997 -0.6781  0.1335 -0.1369
10109TIP3    H251743   3.609   2.346  12.145 -0.8728  1.0114 -0.0931
10110TIP3   OH251744   3.153   2.152  17.265  0.4273 -0.5349 -0.2074
10110TIP3    H151745   3.151   2.057  17.256 -0.1778 -0.5492  0.0018
10110TIP3    H251746   3.068   2.181  17.233 -0.1329 -0.2397  1.4075
10111TIP3   OH251747   5.235   1.353  12.448 -0.0935  0.1033  0.0922
10111TIP3    H151748   5.251   1.263  12.475  0.1992 -0.0658 -0.6207
10111TIP3    H251749   5.210   1.346  12.356 -1.2741  0.6430  0.3586
10112TIP3   OH251750   6.200   0.016  12.311 -0.3873  0.2009 -0.2894
10112TIP3    H151751   6.137   0.075  12.270  0.6097  2.1652  0.8659
10112TIP3    H251752   6.177  -0.071  12.278 -3.4723  0.8654 -0.1839
10113TIP3   OH251753   5.832   3.263  11.166 -0.0933 -0.0714  0.3050
10113TIP3    H151754   5.738   3.244  11.164  0.3650 -2.7257  0.7878
10113TIP3    H251755   5.871   3.202  11.104  1.3101  1.3134 -0.2597
10114TIP3   OH251756   2.820   3.646  15.960  0.2392  0.4545 -0.6695
10114TIP3    H151757   2.814   3.710  16.032  1.1401 -1.0248  0.7876
10114TIP3    H251758   2.855   3.696  15.886  1.1786  1.5902  0.5056
10115TIP3   OH251759   5.177   6.015   3.306 -0.3373  0.2547  0.5039
10115TIP3    H151760   5.262   5.998   3.266 -0.4807  0.3404  0.1497
10115TIP3    H251761   5.152   5.932   3.346 -1.3458 -0.6564 -1.7986
10116TIP3   OH251762   3.725   0.818   6.238 -0.3002 -0.7644  0.4142
10116TIP3    H151763   3.639   0.795   6.273 -0.4693  1.6774  1.8019
10116TIP3    H251764   3.708   0.887   6.174  0.5200 -1.3165 -0.4285
10117TIP3   OH251765   2.150   1.735  15.223  0.2350 -0.9278 -0.0097
10117TIP3    H151766   2.146   1.707  15.314 -0.3684  1.8059  0.8830
10117TIP3    H251767   2.059   1.753  15.200  0.4342 -1.1385 -1.0201
10118TIP3   OH251768   6.394   5.238   4.238  0.0720  0.9363  0.1555
10118TIP3    H151769   6.446   5.197   4.307  1.4390 -2.3969 -2.6142
10118TIP3    H251770   6.306   5.244   4.275  0.2399 -2.7436  1.5654
10119TIP3   OH251771   2.321   3.742   1.272 -0.8350 -0.1558 -0.3216
10119TIP3    H151772   2.250   3.785   1.225 -0.0132  0.7476 -0.7666
10119TIP3    H251773   2.398   3.795   1.253 -0.4920  0.3640  2.2101
10120TIP3   OH251774   3.887   2.592  11.364 -0.1006 -0.5557  0.7866
10120TIP3    H151775   3.893   2.546  11.447  1.2409  0.1695  1.1119
10120TIP3    H251776   3.836   2.671  11.384 -0.4521 -0.7616  0.7260
10121TIP3   OH251777   5.868   5.323   3.718 -0.2291 -0.4727 -0.0328
10121TIP3    H151778   5.933   5.375   3.672 -0.4558 -0.4390 -0.3220
10121TIP3    H251779   5.831   5.266   3.650 -1.3545  0.3573 -0.1465
10122TIP3   OH251780   5.590   1.103  12.792 -0.0942 -0.4671  0.3092
10122TIP3    H151781   5.668   1.157  12.790 -0.6954  0.5040  1.7540
10122TIP3    H251782   5.613   1.025  12.740  0.4420  1.5840 -2.7892
10123TIP3   OH251783   3.049   0.539   2.726 -0.0703 -0.6804  0.3156
10123TIP3    H151784   3.112   0.532   2.654  2.4363 -0.4356  2.3139
10123TIP3    H251785   3.031   0.632   2.733 -0.3307 -0.7058  0.0139
10124TIP3   OH251786   3.367   5.478  16.966 -0.5058 -0.5756  0.4793
10124TIP3    H151787   3.275   5.483  16.940 -0.6986  1.2931  1.3563
10124TIP3    H251788   3.397   5.569  16.966  1.3413 -1.1496  0.2617
10125TIP3   OH251789   4.127   1.944   5.856 -0.1913  0.1021 -0.3908
10125TIP3    H151790   4.078   2.001   5.915 -1.1055  0.1311 -1.1499
10125TIP3    H251791   4.153   1.870   5.910 -3.1742 -1.1355 -0.4043
10126TIP3   OH251792   2.819   1.657   2.803  0.4039  0.0754  0.3635
10126TIP3    H151793   2.883   1.609   2.857 -1.1172 -1.7202  0.7074
10126TIP3    H251794   2.767   1.706   2.867  0.2379 -0.0102  0.2961
10127TIP3   OH251795   3.798   1.005   4.243  0.4843  0.2080 -0.2836
10127TIP3    H151796   3.753   1.038   4.165 -0.5786  1.2833  0.7404
10127TIP3    H251797   3.856   1.075   4.269 -1.3871  1.1772  1.5908
10128TIP3   OH251798   5.753   2.927   4.582  0.1545  0.0641 -0.1771
10128TIP3    H151799   5.843   2.897   4.595 -0.1726 -0.4075  1.1207
10128TIP3    H251800   5.701   2.878   4.646 -0.8559  1.1792 -0.0987
10129TIP3   OH251801   2.880   0.685  16.074 -0.0548 -0.0548  0.0910
10129TIP3    H151802   2.855   0.758  16.018 -0.7548 -0.3944 -0.0493
10129TIP3    H251803   2.801   0.665  16.125  0.6633  0.4891  1.4752
10130TIP3   OH251804   4.453   1.025   0.688  0.1227 -0.1134  0.0101
10130TIP3    H151805   4.507   0.946   0.696  0.8693  0.5207  1.8634
10130TIP3    H251806   4.428   1.045   0.778 -0.7231  1.3163 -0.5208
10131TIP3   OH251807   2.161   4.489  16.954  0.6964  0.4290 -0.0008
10131TIP3    H151808   2.115   4.408  16.975  0.6427  0.9850  2.3317
10131TIP3    H251809   2.253   4.465  16.954  0.7571  0.5094  1.7694
10132TIP3   OH251810   2.193   4.335   5.658 -1.1927 -0.2232 -0.2624
10132TIP3    H151811   2.238   4.343   5.742 -0.0974  1.0955 -0.9333
10132TIP3    H251812   2.253   4.283   5.604 -2.1796 -1.6134 -0.0614
10133TIP3   OH251813   1.326   3.953  10.876 -0.3866 -0.2616  0.4581
10133TIP3    H151814   1.256   4.010  10.845 -1.0118 -1.1863  0.1104
10133TIP3    H251815   1.401   3.975  10.822 -1.0639 -0.8537 -0.7658
10134TIP3   OH251816   3.914   1.203   2.069 -0.2184 -0.1518  0.4481
10134TIP3    H151817   3.918   1.227   2.162  0.3446 -1.2923  0.7371
10134TIP3    H251818   3.915   1.286   2.023  2.5734  0.4094  1.3538
10135TIP3   OH251819   0.140   2.695   2.491 -0.3537 -0.1751 -0.2971
10135TIP3    H151820   0.220   2.722   2.536  0.1386  0.9666 -1.7795
10135TIP3    H251821   0.169   2.629   2.428 -0.1023  1.7918 -2.3922
10136TIP3   OH251822   2.078   0.450  12.767  0.0255 -0.1381 -0.3267
10136TIP3    H151823   2.090   0.435  12.673  1.0594  2.0519 -0.5966
10136TIP3    H251824   2.159   0.418  12.807 -0.0637 -0.2937 -0.2692
10137TIP3   OH251825   0.786   4.355   5.751 -0.3321 -0.3532  0.0062
10137TIP3    H151826   0.710   4.407   5.775 -0.6532 -0.2898 -1.0816
10137TIP3    H251827   0.859   4.394   5.800 -0.6243  0.9131 -0.5354
10138TIP3   OH251828   4.891   0.677  12.075  0.5400  0.1519 -0.1531
10138TIP3    H151829   4.936   0.599  12.042 -0.1909 -0.2609 -0.1940
10138TIP3    H251830   4.833   0.703  12.003 -0.5689 -0.3592  0.5315
10139TIP3   OH251831   2.645   1.625   4.656  0.1462 -0.1797  0.5938
10139TIP3    H151832   2.589   1.607   4.732  1.5249  0.8053  1.9115
10139TIP3    H251833   2.602   1.581   4.583 -0.1981 -2.8600  2.2992
10140TIP3   OH251834   4.605   1.718  16.804  0.0102 -0.8477  0.3480
10140TIP3    H151835   4.633   1.629  16.783 -0.0671 -1.0535  1.0773
10140TIP3    H251836   4.644   1.735  16.890  1.4988  0.4874 -0.5314
10141TIP3   OH251837   4.180   2.762  12.497  0.4504  0.1679  0.6164
10141TIP3    H151838   4.239   2.827  12.458 -0.4168  0.2779 -0.5604
10141TIP3    H251839   4.103   2.813  12.522  1.3371  0.2942  3.4593
10142TIP3   OH251840   1.328   5.744   0.490  0.2039 -0.3210  0.0264
10142TIP3    H151841   1.236   5.757   0.514  0.2096 -1.5394  0.7829
10142TIP3    H251842   1.352   5.661   0.532  1.6796  0.0363 -0.0730
10143TIP3   OH251843   3.000   5.941   1.819 -0.4172 -0.1396  0.5569
10143TIP3    H151844   2.996   6.036   1.821 -0.6853 -0.1182 -0.5241
10143TIP3    H251845   2.979   5.917   1.729  1.2312 -1.1449  0.3949
10144TIP3   OH251846   3.637   1.685   4.198 -0.1470 -0.1369  0.0831
10144TIP3    H151847   3.619   1.684   4.292  1.3634 -0.0900  0.3911
10144TIP3    H251848   3.722   1.728   4.189  0.0345 -0.6996 -1.2523
10145TIP3   OH251849   4.680   0.723   4.668 -0.1450 -0.7652  0.3929
10145TIP3    H151850   4.594   0.691   4.640 -0.2891  0.7266 -1.0446
10145TIP3    H251851   4.685   0.812   4.633  1.0950  0.0040  2.3602
10146TIP3   OH251852   5.830   6.591   6.435  0.4080  0.1963 -0.0217
10146TIP3    H151853   5.915   6.626   6.461 -0.4370  0.6688  2.4237
10146TIP3    H251854   5.768   6.631   6.497 -1.4829 -0.7197 -1.2359
10147TIP3   OH251855   5.440   3.675   6.590 -0.0919 -0.3639 -0.2811
10147TIP3    H151856   5.423   3.580   6.593 -1.0138 -0.1947  0.2073
10147TIP3    H251857   5.353   3.715   6.595  0.3463  0.5322  0.4570
10148TIP3   OH251858   2.339   1.567   0.132  0.3970 -0.4336  0.2437
10148TIP3    H151859   2.244   1.559   0.124  0.3388  1.0265 -0.8231
10148TIP3    H251860   2.364   1.491   0.185 -1.5338  0.0402  1.9942
10149TIP3   OH251861   4.719   4.371  13.373  0.0297  0.1946  0.3511
10149TIP3    H151862   4.784   4.347  13.439  1.4644  1.4606 -0.5307
10149TIP3    H251863   4.655   4.425  13.421 -0.1340 -0.6730  1.1342
10150TIP3   OH251864   3.341   1.371  13.619  0.1753 -0.6975 -0.3171
10150TIP3    H151865   3.387   1.405  13.696 -0.3539 -0.1157 -0.2444
10150TIP3    H251866   3.329   1.447  13.562  1.0891 -1.2437 -1.2595
10151TIP3   OH251867   0.737   1.735   3.358  0.1308 -0.2294 -0.2781
10151TIP3    H151868   0.643   1.751   3.346 -0.1337  0.4561  2.1130
10151TIP3    H251869   0.741   1.658   3.415  0.9971  0.1370  0.1717
10152TIP3   OH251870   3.795   3.993   2.210 -0.0020  0.0972  0.2190
10152TIP3    H151871   3.732   3.971   2.141  0.8536 -0.5256 -0.4022
10152TIP3    H251872   3.754   3.966   2.291  0.1648 -1.9767 -0.3415
10153TIP3   OH251873   0.537   2.541   2.231 -0.3432  0.2086 -0.2218
10153TIP3    H151874   0.598   2.579   2.294  0.3626  0.4701 -1.0509
10153TIP3    H251875   0.451   2.574   2.258 -0.0020  0.6311  0.3652
10154TIP3   OH251876   6.187   4.663  13.332  0.2255  0.7379 -0.3672
10154TIP3    H151877   6.188   4.753  13.365  1.2093  0.5178  0.2549
10154TIP3    H251878   6.152   4.611  13.404 -0.5449  0.6412 -0.8038
10155TIP3   OH251879   4.923   0.988  15.770  0.1259 -0.1823  0.0022
10155TIP3    H151880   4.975   1.066  15.751  1.0323 -0.4788  1.1718
10155TIP3    H251881   4.917   0.985  15.866 -1.3335 -0.6356 -0.0733
10156TIP3   OH251882   3.622   6.068   0.769  0.0712  0.1496 -0.0945
10156TIP3    H151883   3.703   6.065   0.719 -0.3636  0.5568 -0.8291
10156TIP3    H251884   3.557   6.027   0.712 -0.1986 -0.4226  0.5952
10157TIP3   OH251885   1.898   2.304  16.258  0.3007  0.1452  0.0062
10157TIP3    H151886   1.821   2.339  16.215 -0.8704 -0.8186  1.2378
10157TIP3    H251887   1.969   2.318  16.195 -0.9992  0.3544 -1.4751
10158TIP3   OH251888   1.583   3.082  17.173 -0.0595 -0.1539 -0.1032
10158TIP3    H151889   1.537   3.164  17.161 -2.1119 -1.0426  1.1610
10158TIP3    H251890   1.523   3.015  17.140 -0.0503 -1.4085  2.1726
10159TIP3   OH251891   0.591   5.293  14.606  0.4963  0.3187 -0.4069
10159TIP3    H151892   0.645   5.290  14.685 -0.7040 -0.2535  0.4299
10159TIP3    H251893   0.613   5.377  14.565  2.0889  0.0423 -0.1864
10160TIP3   OH251894   5.759   0.886   4.974 -0.2116  0.5574 -0.0833
10160TIP3    H151895   5.727   0.896   4.884  1.8001  1.9784 -0.7041
10160TIP3    H251896   5.811   0.806   4.972  0.6481  1.1026 -0.4919
10161TIP3   OH251897   5.863   6.090  11.717  0.5703  0.1099  0.0604
10161TIP3    H151898   5.843   6.061  11.628 -1.9704  1.2345  0.1698
10161TIP3    H251899   5.943   6.141  11.708  0.2352  0.4061 -1.6394
10162TIP3   OH251900   1.830   0.765  10.925  0.0458 -0.0446  0.0426
10162TIP3    H151901   1.815   0.753  11.019  0.4849 -1.5708 -0.0564
10162TIP3    H251902   1.873   0.684  10.897 -0.8645  0.0251 -1.6492
10163TIP3   OH251903   6.255   3.989  12.386  0.1973  0.2526  0.3381
10163TIP3    H151904   6.247   4.053  12.457 -1.7561 -1.0162  1.3399
10163TIP3    H251905   6.315   3.923  12.421  1.1926  0.8446 -0.1985
10164TIP3   OH251906   0.937   5.372  10.800  0.0111  0.4868  0.3604
10164TIP3    H151907   0.926   5.414  10.715 -0.9516  0.3847  0.4208
10164TIP3    H251908   0.859   5.398  10.850  0.3693  0.2221  1.0717
10165TIP3   OH251909   2.311   4.723  16.040  0.4343 -0.1151  0.0314
10165TIP3    H151910   2.270   4.660  15.980 -0.3352  0.7953 -0.4387
10165TIP3    H251911   2.317   4.677  16.123  2.0982 -1.6387 -0.8610
10166TIP3   OH251912   0.577   0.461   5.055 -0.0838  0.3825 -0.0424
10166TIP3    H151913   0.654   0.457   5.110  0.3933  1.6234 -0.5756
10166TIP3    H251914   0.504   0.474   5.116  0.3312  0.8989  0.3492
10167TIP3   OH251915   3.793   0.915   0.020  0.1206 -0.0617 -0.7184
10167TIP3    H151916   3.801   1.000  -0.025  0.9779  0.8798  1.1269
10167TIP3    H251917   3.791   0.937   0.113 -1.4513 -1.9737 -0.2400
10168TIP3   OH251918   3.466   2.673   1.696 -0.3843 -0.4071  0.2770
10168TIP3    H151919   3.528   2.712   1.635 -1.3563  0.8620  0.0724
10168TIP3    H251920   3.436   2.593   1.651  0.7007 -0.7701  0.1659
10169TIP3   OH251921   3.543   0.012   0.084  0.7200  0.8574  0.3745
10169TIP3    H151922   3.595   0.080   0.041  2.0413  0.0919  0.7357
10169TIP3    H251923   3.606  -0.040   0.133 -0.0778 -1.3871 -0.8342
10170TIP3   OH251924   5.488   2.889  14.797 -0.1010 -0.0452  0.4315
10170TIP3    H151925   5.432   2.875  14.874  0.0334 -1.5905  0.2846
10170TIP3    H251926   5.526   2.803  14.779  2.0899  0.8681  0.3255
10171TIP3   OH251927   6.192   6.028   0.133 -0.0805 -0.1528  0.0808
10171TIP3    H151928   6.287   6.032   0.124 -0.1704  0.4313 -0.8116
10171TIP3    H251929   6.162   6.116   0.110 -0.7210  0.2399  2.1787
10172TIP3   OH251930   4.265   5.093   3.873 -0.1973  0.3422 -0.5126
10172TIP3    H151931   4.322   5.071   3.947  1.5152  0.0581 -1.8490
10172TIP3    H251932   4.252   5.010   3.827 -1.1054  0.5454 -0.6492
10173TIP3   OH251933   1.227   4.813   5.821 -0.3972 -0.3128 -0.0733
10173TIP3    H151934   1.165   4.774   5.883  0.6750  0.9155  1.9131
10173TIP3    H251935   1.313   4.794   5.859  0.4362 -1.1410 -2.2422
10174TIP3   OH251936   5.593   5.868   0.963 -0.0384 -0.2222 -0.1787
10174TIP3    H151937   5.561   5.942   0.912  2.5469  0.1587 -1.3965
10174TIP3    H251938   5.681   5.893   0.989 -0.5017 -1.2975  2.7983
10175TIP3   OH251939   3.375   2.843   2.522 -1.0901  0.1561  0.1259
10175TIP3    H151940   3.415   2.791   2.452 -0.8540 -0.0106  0.3806
10175TIP3    H251941   3.288   2.864   2.490 -1.5839 -1.3014  0.4568
10176TIP3   OH251942   0.004   6.490   2.748  0.0099 -0.1752  0.0674
10176TIP3    H151943   0.056   6.411   2.762  1.0493  0.5726  0.4493
10176TIP3    H251944   0.040   6.529   2.668  0.3200  0.5673  0.5623
10177TIP3   OH251945   0.343   1.448   3.884  0.2877 -0.0010 -0.4573
10177TIP3    H151946   0.281   1.378   3.904  0.3067  0.5758  1.9286
10177TIP3    H251947   0.426   1.403   3.868  0.8709 -0.6015  3.2693
10178TIP3   OH251948   1.421   0.782   6.946  0.4415  0.2637  0.1567
10178TIP3    H151949   1.478   0.751   6.876  1.2188  1.5985  0.1542
10178TIP3    H251950   1.480   0.826   7.007 -0.5188  1.2749  0.3982
10179TIP3   OH251951   1.636   3.419  16.651 -0.0041 -0.0580 -0.1023
10179TIP3    H151952   1.663   3.330  16.674 -1.2901 -0.0772  1.4767
10179TIP3    H251953   1.655   3.471  16.728  0.0864  0.9181 -0.7635
10180TIP3   OH251954   5.457   0.473   5.935  0.1149  0.2359 -0.7662
10180TIP3    H151955   5.396   0.426   5.991 -1.8373  1.3983 -1.7951
10180TIP3    H251956   5.515   0.520   5.995 -0.6016 -0.1730  0.2600
10181TIP3   OH251957   5.064   5.776   4.557  0.0782 -0.3947  0.5009
10181TIP3    H151958   5.145   5.808   4.517 -0.6702  0.2754 -0.5080
10181TIP3    H251959   5.054   5.687   4.522 -0.4655  0.1139 -0.6949
10182TIP3   OH251960   1.491   0.356  16.231  0.5350 -0.6676 -0.6638
10182TIP3    H151961   1.584   0.332  16.235  0.8851  0.6662 -0.2328
10182TIP3    H251962   1.451   0.308  16.303  0.8694 -1.3082 -0.8960
10183TIP3   OH251963   5.100   2.951   0.672 -0.7236  0.8120  0.0366
10183TIP3    H151964   5.046   2.976   0.747 -0.6613 -0.7329  0.6482
10183TIP3    H251965   5.170   3.015   0.670 -0.9652  1.1272  1.0535
10184TIP3   OH251966   0.618   2.081  14.515 -0.6978  0.1255  0.3409
10184TIP3    H151967   0.574   2.022  14.577 -0.3980 -0.9618 -0.4534
10184TIP3    H251968   0.635   2.027  14.438  1.0989  0.7923  0.2169
10185TIP3   OH251969   0.669   4.280  16.453  0.0711  0.4489  0.0006
10185TIP3    H151970   0.715   4.213  16.505 -0.5096  1.0237  1.3073
10185TIP3    H251971   0.633   4.232  16.379  1.5395 -0.2717 -0.2843
10186TIP3   OH251972   0.210   4.166   2.933  0.3136 -0.6221  0.1022
10186TIP3    H151973   0.227   4.151   2.840  1.8887 -1.5243  0.4881
10186TIP3    H251974   0.195   4.260   2.940 -0.9180 -0.6844 -1.1913
10187TIP3   OH251975   2.467   3.854   4.659 -0.2293  0.1196 -0.4909
10187TIP3    H151976   2.485   3.926   4.598 -1.2292  1.9601  1.2737
10187TIP3    H251977   2.383   3.818   4.629 -0.4119  0.5970 -0.5544
10188TIP3   OH251978   4.946   3.150  16.158 -0.0830  0.1874  0.5535
10188TIP3    H151979   4.936   3.117  16.069 -2.1389 -1.6442  1.3957
10188TIP3    H251980   4.945   3.245  16.148 -0.8647  0.0279 -1.3304
10189TIP3   OH251981   2.278   1.457   2.695 -0.7115  0.6830 -0.0867
10189TIP3    H151982   2.261   1.402   2.618 -2.3585  2.0744 -0.7861
10189TIP3    H251983   2.281   1.395   2.768 -0.6473 -0.5145 -1.0602
10190TIP3   OH251984   1.525   4.725   5.872 -0.0978  0.0483  0.0120
10190TIP3    H151985   1.602   4.701   5.923  0.4852  1.3006 -0.2270
10190TIP3    H251986   1.490   4.642   5.839 -0.3113 -0.7666  2.1481
10191TIP3   OH251987   5.663   2.021  16.823  0.1225 -0.5029 -0.0597
10191TIP3    H151988   5.742   1.995  16.776  1.3421  0.0319  1.5783
10191TIP3    H251989   5.645   1.948  16.882 -0.8053 -0.7463 -0.6235
10192TIP3   OH251990   6.645   1.673   0.480 -0.1098 -0.0968  0.0337
10192TIP3    H151991   6.614   1.730   0.550 -1.4619 -0.2488 -0.4174
10192TIP3    H251992   6.619   1.585   0.507  0.9500 -0.3876  0.1756
10193TIP3   OH251993   2.147   2.396   2.008  0.0690  0.1815 -0.0353
10193TIP3    H151994   2.067   2.402   1.956 -0.0686 -2.5425 -0.2767
10193TIP3    H251995   2.216   2.379   1.944  0.0951 -1.8958  0.4527
10194TIP3   OH251996   5.056   6.627   4.253 -0.0532  0.3782 -0.3078
10194TIP3    H151997   5.092   6.640   4.341  0.9953  2.1305 -0.9286
10194TIP3    H251998   4.963   6.607   4.268  0.8212 -3.3505  1.3107
10195TIP3   OH251999   1.655   5.555  14.016  0.8608 -0.1113  0.3566
10195TIP3    H152000   1.568   5.521  13.994  1.1621 -1.5161  1.1826
10195TIP3    H252001   1.638   5.627  14.077  0.2812 -1.0312  1.3165
10196TIP3   OH252002   2.760   4.984  17.108 -0.0759 -0.2572 -0.5678
10196TIP3    H152003   2.715   4.954  17.029 -0.5259  1.0861 -0.8492
10196TIP3    H252004   2.848   4.947  17.101 -0.5219 -1.2623 -1.0177
10197TIP3   OH252005   4.222   5.744   4.903 -0.0622  0.6986 -0.0930
10197TIP3    H152006   4.204   5.651   4.888  1.3522  0.0953  1.5853
10197TIP3    H252007   4.135   5.783   4.914 -0.6563 -0.6053  0.0750
10198TIP3   OH252008   3.173   0.966   1.874  0.2881  0.3278 -0.0024
10198TIP3    H152009   3.231   0.890   1.863  1.1388  0.8454  0.7210
10198TIP3    H252010   3.232   1.036   1.903 -0.6112  1.0504  0.1083
10199TIP3   OH252011   3.041   0.880   0.364  0.3035 -0.8425 -0.4801
10199TIP3    H152012   2.983   0.903   0.437 -1.2608 -0.3089 -1.8544
10199TIP3    H252013   2.985   0.834   0.302  1.3084 -0.1698 -1.9336
10200TIP3   OH252014   5.401   1.201   4.193  0.2300 -0.2421 -0.0740
10200TIP3    H152015   5.347   1.276   4.168  1.3140  0.1760 -1.2958
10200TIP3    H252016   5.477   1.239   4.236  0.0520 -0.7612  0.7273
10201TIP3   OH252017   4.373   1.866  15.714  0.0452 -0.3238  0.7080
10201TIP3    H152018   4.384   1.927  15.787 -1.7183 -0.3194  1.0164
10201TIP3    H252019   4.435   1.795  15.733  2.9448  1.7835 -0.2401
10202TIP3   OH252020   4.436   1.734  12.609  0.7945  0.0895  0.0981
10202TIP3    H152021   4.373   1.787  12.658  1.1969  0.2793  0.4263
10202TIP3    H252022   4.453   1.785  12.529  0.3590 -0.0769 -0.1027
10203TIP3   OH252023   2.934   2.529  14.542  0.0542  0.5892 -0.0456
10203TIP3    H152024   2.972   2.501  14.625  2.8535  0.7983 -1.1478
10203TIP3    H252025   2.933   2.625  14.547  0.3647  0.6064 -0.3229
10204TIP3   OH252026   1.924   0.326   5.691 -0.0803  0.1142 -0.6605
10204TIP3    H152027   1.968   0.276   5.622  1.1942  2.2546 -1.5339
10204TIP3    H252028   1.893   0.405   5.646 -3.1135 -0.3432  0.3831
10205TIP3   OH252029   6.496   5.287  14.940 -0.3407  0.3595  0.4633
10205TIP3    H152030   6.558   5.358  14.956 -0.6869  1.1873 -1.5098
10205TIP3    H252031   6.546   5.221  14.891 -0.4366 -0.0318  0.8818
10206TIP3   OH252032   3.660   3.251  16.799  0.1921 -0.6814  0.1170
10206TIP3    H152033   3.732   3.313  16.786  0.3784 -0.9023  0.0995
10206TIP3    H252034   3.605   3.262  16.721 -0.2747  0.1293  0.5464
10207TIP3   OH252035   3.375   1.764   4.306  0.1196  0.6444 -0.0942
10207TIP3    H152036   3.351   1.776   4.215 -0.0732  0.5017 -0.0633
10207TIP3    H252037   3.412   1.848   4.332  0.6686  0.5150 -0.4531
10208TIP3   OH252038   1.452   1.400   0.500  0.5497  0.3345 -0.2838
10208TIP3    H152039   1.440   1.495   0.500 -0.5718  0.1996 -0.3525
10208TIP3    H252040   1.496   1.381   0.417  0.7252  0.7772 -0.2963
10209TIP3   OH252041   6.408   4.418  15.167 -0.3357  0.3028 -0.1460
10209TIP3    H152042   6.365   4.473  15.233 -0.6252 -0.5006  0.3515
10209TIP3    H252043   6.335   4.378  15.119 -0.1863 -1.1039  0.7340
10210TIP3   OH252044   3.253   0.169  11.671  0.5676  0.6703  0.0851
10210TIP3    H152045   3.346   0.188  11.678  0.0802  3.9575 -0.9834
10210TIP3    H252046   3.240   0.146  11.579  0.2926  0.1562  0.2454
10211TIP3   OH252047   4.168   2.485  12.384 -0.7161 -0.3220  0.2688
10211TIP3    H152048   4.160   2.566  12.434  0.1631 -0.2872  0.3748
10211TIP3    H252049   4.135   2.417  12.444 -0.5381 -0.1649  0.5460
10212TIP3   OH252050   0.455   0.824   1.574 -0.1041  0.0886  0.6408
10212TIP3    H152051   0.397   0.763   1.529 -1.4422  2.2702 -0.7232
10212TIP3    H252052   0.501   0.870   1.504  1.4791  0.1596  1.6625
10213TIP3   OH252053   5.264   6.374  16.544 -0.1347  0.2474 -0.2285
10213TIP3    H152054   5.320   6.326  16.605 -2.1651 -0.8234  0.8916
10213TIP3    H252055   5.223   6.442  16.598 -0.7436  0.3246 -0.7814
10214TIP3   OH252056   2.848   5.300  11.300  0.3243  0.2243 -0.3607
10214TIP3    H152057   2.861   5.339  11.386  2.9952 -0.0524 -0.5532
10214TIP3    H252058   2.859   5.374  11.239  0.1328  0.1066 -0.5393
10215TIP3   OH252059   6.718   2.013  14.426 -0.2634  0.1007  0.2715
10215TIP3    H152060   6.806   1.990  14.396  0.1541 -0.1430  1.5914
10215TIP3    H252061   6.708   1.965  14.508 -1.4400  0.5265  0.3936
10216TIP3   OH252062   2.379   5.821  11.596 -0.3677 -0.4808 -0.3237
10216TIP3    H152063   2.338   5.855  11.517  0.6582 -0.1125 -0.7113
10216TIP3    H252064   2.345   5.876  11.667  0.3044  0.5594 -0.7853
10217TIP3   OH252065   5.781   1.006   2.971  0.2327  0.1323 -0.3400
10217TIP3    H152066   5.737   1.059   3.038  0.3300 -2.5234  2.0743
10217TIP3    H252067   5.711   0.952   2.934  0.7585 -1.5670  0.9576
10218TIP3   OH252068   6.153   4.552  15.697 -0.0391 -0.8120  0.7800
10218TIP3    H152069   6.240   4.520  15.718 -0.4215 -1.6354  1.1265
10218TIP3    H252070   6.158   4.647  15.713  0.4735 -1.0126  1.8883
10219TIP3   OH252071   0.797   2.212   1.471 -0.7585  0.1279 -0.4749
10219TIP3    H152072   0.718   2.172   1.507  0.4921 -3.1498 -1.0995
10219TIP3    H252073   0.774   2.233   1.380 -1.0835 -0.2833 -0.4875
10220TIP3   OH252074   1.275   1.168   5.668 -0.2704 -0.0963  0.2387
10220TIP3    H152075   1.301   1.259   5.679 -1.6215  0.4331 -0.7059
10220TIP3    H252076   1.180   1.171   5.661 -0.2224 -1.3384 -1.9081
10221TIP3   OH252077   2.419   1.888   4.844 -0.3067  0.1840 -0.4470
10221TIP3    H152078   2.511   1.894   4.817 -0.4654  0.9866 -0.8498
10221TIP3    H252079   2.419   1.822   4.913  0.1456 -1.8808 -2.2870
10222TIP3   OH252080   3.771   1.861  11.749 -0.2003  0.0780  0.3409
10222TIP3    H152081   3.808   1.773  11.755 -1.4067 -0.4618  0.2789
10222TIP3    H252082   3.697   1.860  11.810  0.4290  1.4225  1.1861
10223TIP3   OH252083   0.730   6.558  13.977 -0.0128  0.3520 -0.6165
10223TIP3    H152084   0.774   6.643  13.969  1.3450 -0.4621 -2.4395
10223TIP3    H252085   0.641   6.574  13.945 -0.0710  1.2863 -0.0285
10224TIP3   OH252086   4.079   2.691   1.645 -0.4785 -0.2247 -0.2051
10224TIP3    H152087   4.056   2.714   1.735  1.2567  0.2114  0.1689
10224TIP3    H252088   4.133   2.612   1.654 -2.1419 -1.5258 -1.0756
10225TIP3   OH252089   0.378   6.713   5.611  0.7706 -0.8122 -0.5460
10225TIP3    H152090   0.454   6.757   5.650 -0.9114  1.5785  0.2520
10225TIP3    H252091   0.342   6.777   5.549 -0.7694 -1.7557 -0.6686
10226TIP3   OH252092   4.684   2.284   0.351  0.3415  0.5867  0.1428
10226TIP3    H152093   4.701   2.375   0.326 -0.0694  0.5920 -0.1262
10226TIP3    H252094   4.699   2.282   0.445  0.9316  0.7974  0.0544
10227TIP3   OH252095   4.620   6.599  11.544 -0.4248 -0.2774  1.4171
10227TIP3    H152096   4.586   6.663  11.606 -0.6588  0.8494  0.1610
10227TIP3    H252097   4.662   6.651  11.475  2.6976 -1.5304  2.1583
10228TIP3   OH252098   0.921   2.122   3.682  0.3332  0.1192  0.3276
10228TIP3    H152099   0.827   2.133   3.697 -0.4381 -1.4966 -2.6270
10228TIP3    H252100   0.941   2.036   3.719  0.7849  0.6122  1.2733
10229TIP3   OH252101   5.967   2.038  11.778  0.5813 -0.6337  0.1657
10229TIP3    H152102   5.935   2.014  11.691  1.0971 -1.5223  0.2045
10229TIP3    H252103   5.919   2.118  11.800 -0.8316 -1.3471 -0.2072
10230TIP3   OH252104   5.406   4.140   1.816 -0.1464  0.2459  0.6551
10230TIP3    H152105   5.405   4.235   1.828  1.2361  0.1902  1.3781
10230TIP3    H252106   5.495   4.120   1.789 -0.3311 -0.8879  0.8432
10231TIP3   OH252107   3.769   0.054  13.803  0.8358  0.3025  0.4363
10231TIP3    H152108   3.769   0.101  13.720  0.9023  0.5765  0.5921
10231TIP3    H252109   3.778   0.122  13.870 -1.2542  0.3015  0.7830
10232TIP3   OH252110   5.833   5.544   2.991 -0.2341 -0.3536 -0.1901
10232TIP3    H152111   5.767   5.475   2.982 -0.7283 -0.1637  1.6081
10232TIP3    H252112   5.913   5.505   2.956 -0.5728 -1.7639  0.5357
10233TIP3   OH252113   0.583   6.351  12.499  0.0075  0.5380  0.2383
10233TIP3    H152114   0.586   6.399  12.582  0.9238  0.9955 -0.0429
10233TIP3    H252115   0.574   6.259  12.525 -1.9805  0.8412  0.7786
10234TIP3   OH252116   3.500   2.826  12.927 -0.1271  0.1478  0.1068
10234TIP3    H152117   3.564   2.878  12.976 -0.1852 -0.7782  1.1980
10234TIP3    H252118   3.549   2.788  12.855  0.4073 -0.0484  0.5716
10235TIP3   OH252119   1.771   6.430   6.090  0.0724 -0.0172 -0.2895
10235TIP3    H152120   1.739   6.355   6.140 -0.0046  0.7876  0.8959
10235TIP3    H252121   1.714   6.432   6.013 -1.2199 -0.0377  0.6215
10236TIP3   OH252122   5.711   0.436   4.375 -0.0325 -0.1032  0.2318
10236TIP3    H152123   5.656   0.489   4.432  0.9873  1.3409 -0.0870
10236TIP3    H252124   5.650   0.392   4.316 -0.8317  2.6029 -1.1188
10237TIP3   OH252125   1.639   5.470   5.968 -0.6043  0.1444 -0.3998
10237TIP3    H152126   1.735   5.466   5.966 -0.6370 -2.2358 -2.5033
10237TIP3    H252127   1.612   5.399   6.026 -1.1122  0.5137 -0.1729
10238TIP3   OH252128   0.228   4.518  17.244  0.6244  0.3817 -0.2874
10238TIP3    H152129   0.289   4.501  17.172  0.0297  0.1074 -0.7340
10238TIP3    H252130   0.219   4.434  17.289  1.4133  0.6779  0.4491
10239TIP3   OH252131   0.695   3.560  11.653  0.1289 -0.3895  0.1184
10239TIP3    H152132   0.766   3.505  11.688 -0.6742 -1.1901  0.5278
10239TIP3    H252133   0.703   3.642  11.702  1.1887 -0.2101 -0.3211
10240TIP3   OH252134   0.840   0.658  12.845  0.0382 -0.1194  0.3679
10240TIP3    H152135   0.809   0.697  12.927  2.4263 -0.5141  1.5655
10240TIP3    H252136   0.933   0.679  12.842  0.8307 -3.1493 -0.3795
10241TIP3   OH252137   5.175   2.645  12.923 -0.3066  0.0262 -0.7251
10241TIP3    H152138   5.097   2.611  12.966  0.2009 -0.2406  0.0096
10241TIP3    H252139   5.199   2.723  12.973  1.6231 -1.5658  1.0262
10242TIP3   OH252140   4.196   3.042  12.420  0.3194  0.1214 -0.0283
10242TIP3    H152141   4.251   3.119  12.404  0.5070 -0.1135 -0.5229
10242TIP3    H252142   4.170   3.012  12.332 -0.0089 -0.1957  0.1726
10243TIP3   OH252143   3.951   5.359   1.606  0.3146  0.0731 -0.2343
10243TIP3    H152144   4.040   5.344   1.572  0.1330 -0.2433 -0.5754
10243TIP3    H252145   3.899   5.380   1.528  0.3629  1.6032  0.1173
10244TIP3   OH252146   1.741   5.799  12.921  0.3242 -0.2180 -0.1211
10244TIP3    H152147   1.647   5.778  12.921  0.1670  0.3812 -1.2036
10244TIP3    H252148   1.776   5.751  12.846  0.6367  0.5458 -0.4732
10245TIP3   OH252149   4.548   6.324   4.472  0.1552 -0.2640  0.4317
10245TIP3    H152150   4.580   6.316   4.561 -0.8834 -0.6912  0.7835
10245TIP3    H252151   4.472   6.265   4.468 -0.3261  0.3862 -0.4774
10246TIP3   OH252152   3.541   5.327  13.142 -0.2179 -0.2918 -0.1704
10246TIP3    H152153   3.469   5.289  13.192  0.3473 -1.0971  0.0549
10246TIP3    H252154   3.587   5.382  13.205 -1.0675  0.8443 -0.5113
10247TIP3   OH252155   5.202   5.449  14.335 -0.2925  0.3064  1.1334
10247TIP3    H152156   5.161   5.482  14.255  1.9309  0.8565  0.1332
10247TIP3    H252157   5.153   5.369  14.356 -0.1497 -0.6049 -1.5694
10248TIP3   OH252158   1.668   6.107  15.913  0.0691  0.7832 -0.2176
10248TIP3    H152159   1.631   6.072  15.994  0.0090 -1.9794 -1.3589
10248TIP3    H252160   1.755   6.068  15.907 -0.0703  0.6639 -1.6761
10249TIP3   OH252161   1.771   0.348   2.764  0.6477 -0.3956  0.4076
10249TIP3    H152162   1.814   0.388   2.840  0.7181  2.1517 -0.8774
10249TIP3    H252163   1.764   0.418   2.700 -3.5326 -1.1717 -0.3115
10250TIP3   OH252164   1.136   3.542   3.254 -0.2485  0.3313  0.3361
10250TIP3    H152165   1.192   3.506   3.323  0.5795  0.1039 -0.4295
10250TIP3    H252166   1.047   3.533   3.288  0.0424 -0.9995  0.8289
10251TIP3   OH252167   3.499   5.591  11.286  0.0842 -0.2094  0.1950
10251TIP3    H152168   3.558   5.560  11.218 -0.9806 -2.1358  0.0896
10251TIP3    H252169   3.468   5.676  11.254  0.6872 -0.4303 -1.0234
10252TIP3   OH252170   1.843   3.918  15.090 -0.0759 -0.3327 -0.3372
10252TIP3    H152171   1.841   3.985  15.159 -2.6616 -1.5124  0.8847
10252TIP3    H252172   1.756   3.923  15.050  0.3669 -1.6726 -1.5232
10253TIP3   OH252173   4.656   1.779  14.102 -0.4780  0.6677  0.5264
10253TIP3    H152174   4.702   1.862  14.092  1.6913 -0.7139 -2.0321
10253TIP3    H252175   4.710   1.728  14.163  1.1956 -0.6761 -1.9039
10254TIP3   OH252176   6.582   5.876  15.399  0.2457  0.7350  0.0694
10254TIP3    H152177   6.579   5.804  15.336  1.4927  0.9785 -0.2948
10254TIP3    H252178   6.499   5.870  15.446 -0.5190  0.2546 -1.2666
10255TIP3   OH252179   6.656   5.608   1.419  0.2880  0.8454  0.2963
10255TIP3    H152180   6.711   5.546   1.467 -0.9363  0.8811  1.7974
10255TIP3    H252181   6.618   5.557   1.348 -0.4835 -0.0697  1.3515
10256TIP3   OH252182   3.492   1.369  11.287  0.0564 -0.4255  0.2936
10256TIP3    H152183   3.531   1.331  11.208 -1.5841 -0.4852 -0.5301
10256TIP3    H252184   3.463   1.293  11.338 -0.1818 -0.3626  0.2547
10257TIP3   OH252185   2.894   6.724  13.473  0.3006  0.1236 -0.3537
10257TIP3    H152186   2.833   6.666  13.429  0.2558 -0.3874  0.3585
10257TIP3    H252187   2.849   6.750  13.554  1.1056 -0.4589  0.3010
10258TIP3   OH252188   3.927   2.203   5.576 -0.0538  0.3128  0.1014
10258TIP3    H152189   3.921   2.198   5.481 -1.0411 -1.3088  0.2029
10258TIP3    H252190   3.993   2.137   5.600 -1.6908 -1.2297  0.6418
10259TIP3   OH252191   4.380   3.789  12.375  0.4818 -0.2049 -0.3619
10259TIP3    H152192   4.403   3.727  12.306 -0.1901  0.0073 -0.7900
10259TIP3    H252193   4.304   3.837  12.340  0.1442 -0.0776  0.5092
10260TIP3   OH252194   2.990   0.034  11.395 -0.3606 -0.1955 -0.0794
10260TIP3    H152195   3.080   0.065  11.383 -0.6259  0.4498 -0.4904
10260TIP3    H252196   2.936   0.113  11.385 -0.9879 -0.6135 -0.0677
10261TIP3   OH252197   0.238   0.133  12.592 -0.2254  0.7523 -0.2780
10261TIP3    H152198   0.242   0.215  12.642  0.2825  1.5681 -1.5932
10261TIP3    H252199   0.163   0.145  12.534 -0.8331 -0.2003  0.2887
10262TIP3   OH252200   4.402   0.233  13.450 -0.1718 -0.1575  0.0166
10262TIP3    H152201   4.345   0.175  13.501 -0.1871  0.2927  0.5353
10262TIP3    H252202   4.487   0.228  13.494 -0.8500  2.3429  1.8832
10263TIP3   OH252203   0.958   1.673  12.630 -0.3523  0.6330  0.0126
10263TIP3    H152204   0.874   1.716  12.613 -0.9660  0.5137  2.4641
10263TIP3    H252205   1.009   1.738  12.677  0.3215  0.1197  0.0001
10264TIP3   OH252206   5.326   4.376   6.225 -0.1637  0.8647  0.1183
10264TIP3    H152207   5.231   4.374   6.226 -0.2075  0.4362 -1.8820
10264TIP3    H252208   5.352   4.311   6.291 -1.2390  0.6995  0.3915
10265TIP3   OH252209   2.343   2.450   0.497 -0.0767  0.2202  0.6148
10265TIP3    H152210   2.411   2.393   0.460  0.6833 -0.0883  2.3939
10265TIP3    H252211   2.323   2.511   0.426  1.3057 -0.3463 -0.3135
10266TIP3   OH252212   5.185   3.060  14.256  0.0500  0.6412 -0.1703
10266TIP3    H152213   5.269   3.022  14.280  0.9898  1.9633 -1.2478
10266TIP3    H252214   5.138   3.068  14.339  1.2742  0.5677  0.5531
10267TIP3   OH252215   2.148   0.993   5.990 -0.2102  0.0865 -1.0708
10267TIP3    H152216   2.139   0.967   6.081  0.5290 -0.5329 -1.1697
10267TIP3    H252217   2.241   1.011   5.979  0.0256 -1.5918 -2.1614
10268TIP3   OH252218   5.845   1.132   3.913  0.2429 -0.3740  0.8939
10268TIP3    H152219   5.895   1.204   3.875  0.2179 -0.3667  0.8743
10268TIP3    H252220   5.828   1.073   3.840 -1.6222  0.6606  0.4042
10269TIP3   OH252221   2.172   4.427  15.093  0.1401  0.1194  0.0113
10269TIP3    H152222   2.254   4.471  15.070 -0.0318 -0.5168 -2.0459
10269TIP3    H252223   2.129   4.411  15.009 -1.6442 -0.4385  0.9775
10270TIP3   OH252224   1.600   1.599   5.009  0.0340 -0.2656 -0.1222
10270TIP3    H152225   1.600   1.681   4.960 -1.1481 -0.2598 -0.1577
10270TIP3    H252226   1.518   1.602   5.059 -0.2473 -1.6132 -0.4583
10271TIP3   OH252227   6.067   3.413   1.419  0.1589  0.1473 -0.5818
10271TIP3    H152228   6.069   3.321   1.392  0.1083  0.5030 -1.8401
10271TIP3    H252229   6.059   3.462   1.337  3.5544  1.4447 -0.2892
10272TIP3   OH252230   2.387   3.074   6.344  0.3475  0.1946  0.2605
10272TIP3    H152231   2.311   3.032   6.304  0.5981  0.6946 -0.7869
10272TIP3    H252232   2.452   3.078   6.273  1.1046  0.3964  0.9444
10273TIP3   OH252233   2.390   6.121   3.108  0.0503 -0.6954  0.1280
10273TIP3    H152234   2.461   6.157   3.161 -1.3258  3.4402 -0.5405
10273TIP3    H252235   2.338   6.070   3.170  1.3280 -0.3883  1.5242
10274TIP3   OH252236   2.926   3.173   3.121 -0.8358  0.2411  0.1456
10274TIP3    H152237   2.949   3.261   3.092 -1.6448  0.7619  1.0334
10274TIP3    H252238   3.004   3.142   3.167  0.5616 -0.6997 -2.6623
10275TIP3   OH252239   2.294   6.562   1.419  0.0196 -0.7652 -0.1382
10275TIP3    H152240   2.274   6.492   1.482 -1.5855 -1.1183 -0.9876
10275TIP3    H252241   2.348   6.520   1.352  0.3598 -0.7866  0.1437
10276TIP3   OH252242   1.242   0.374  15.373 -0.2252  0.1707  0.1648
10276TIP3    H152243   1.264   0.465  15.352 -1.1428  0.0870 -1.2991
10276TIP3    H252244   1.317   0.323  15.343  0.2707  0.4207  0.9459
10277TIP3   OH252245   4.927   5.237   5.321  0.5646  0.4851  0.2906
10277TIP3    H152246   4.897   5.205   5.236 -0.3317  0.7113  0.5090
10277TIP3    H252247   5.017   5.265   5.306  0.1976  1.1705 -0.7640
10278TIP3   OH252248   0.738   4.731  12.978 -0.3615 -0.2709  0.0317
10278TIP3    H152249   0.718   4.804  13.038 -0.4027  0.2017 -0.5466
10278TIP3    H252250   0.685   4.749  12.901  1.4580  0.4327 -1.1222
10279TIP3   OH252251   2.962   4.428  11.249  0.7143  0.2161 -0.1024
10279TIP3    H152252   2.877   4.471  11.238  1.8388  2.8664  0.6636
10279TIP3    H252253   3.008   4.446  11.166  1.0354  0.0564  0.0400
10280TIP3   OH252254   0.672   5.384   5.538  0.3344  0.0383  0.6382
10280TIP3    H152255   0.602   5.449   5.548 -0.6390 -1.0368  1.1473
10280TIP3    H252256   0.683   5.347   5.626  1.3395 -0.0225  0.4932
10281TIP3   OH252257   0.662   6.125  15.817 -0.0307  0.0683  0.5517
10281TIP3    H152258   0.735   6.138  15.877 -0.3233 -1.0665  1.1996
10281TIP3    H252259   0.651   6.209  15.773  1.2400  0.4448  0.9093
10282TIP3   OH252260   4.168   2.579   2.175 -0.4261 -0.4445 -0.2236
10282TIP3    H152261   4.108   2.524   2.225  1.2844 -3.2565 -1.0326
10282TIP3    H252262   4.169   2.541   2.087  1.3994  0.4009 -0.6342
10283TIP3   OH252263   6.755   6.214   2.795  0.4108 -0.1951 -0.3557
10283TIP3    H152264   6.693   6.253   2.857  0.3721 -0.2769 -0.3430
10283TIP3    H252265   6.771   6.126   2.829  1.0381  0.0467  0.0074
10284TIP3   OH252266   1.954   2.293   0.121 -0.6323 -0.2561  0.3815
10284TIP3    H152267   2.050   2.287   0.118 -0.6338 -0.3493  0.5028
10284TIP3    H252268   1.932   2.355   0.052 -0.3705  1.0279  1.4073
10285TIP3   OH252269   2.587   4.029   3.438 -0.8230  0.2205  0.2699
10285TIP3    H152270   2.622   4.101   3.386  1.0810 -1.9919 -1.7250
10285TIP3    H252271   2.651   4.016   3.508  0.7538 -1.6118 -1.3823
10286TIP3   OH252272   1.444   1.601  13.120  0.1709 -0.6128  0.0666
10286TIP3    H152273   1.537   1.578  13.113  0.0112 -1.2375 -0.0765
10286TIP3    H252274   1.433   1.674  13.060  0.4850 -0.8110 -0.2388
10287TIP3   OH252275   1.401   0.784  15.391  0.5827 -0.4854 -0.1007
10287TIP3    H152276   1.488   0.765  15.355 -0.1641  0.8462 -2.8950
10287TIP3    H252277   1.415   0.859  15.449  1.3179 -0.2690 -0.5480
10288TIP3   OH252278   4.866   4.944  10.886  0.5238  0.1573  0.0849
10288TIP3    H152279   4.926   4.977  10.819  0.1944  0.4919 -0.0521
10288TIP3    H252280   4.781   4.939  10.841  0.4337 -0.2406  0.2961
10289TIP3   OH252281   1.594   5.786  12.572 -0.3546  0.1942  0.2664
10289TIP3    H152282   1.686   5.760  12.566 -0.5545 -0.3193 -0.8322
10289TIP3    H252283   1.546   5.710  12.538 -1.0972  1.0143 -0.5479
10290TIP3   OH252284   1.799   1.748  11.849  0.0893  0.1929 -0.2356
10290TIP3    H152285   1.842   1.666  11.874  1.2409  1.1285  0.9518
10290TIP3    H252286   1.732   1.761  11.916  0.5130  0.6686  0.1036
10291TIP3   OH252287   1.574   0.244  12.250  0.2255  0.1617 -0.1320
10291TIP3    H152288   1.667   0.234  12.269 -0.1561 -1.3709  1.2180
10291TIP3    H252289   1.554   0.175  12.186  0.0687  0.6246 -0.5830
10292TIP3   OH252290   2.773   1.062   3.472  0.3925  0.4448  0.1758
10292TIP3    H152291   2.715   1.136   3.452 -0.8593 -0.5474 -0.0029
10292TIP3    H252292   2.859   1.102   3.484 -0.1421  1.8682 -0.4418
10293TIP3   OH252293   0.995   3.267  16.391 -0.1877  0.2847  0.3879
10293TIP3    H152294   0.968   3.181  16.360  0.8642  0.2210 -0.3854
10293TIP3    H252295   1.089   3.272  16.372 -0.1027  1.3630  0.9734
10294TIP3   OH252296   3.312   2.526   0.653  0.3937 -0.3641  0.4033
10294TIP3    H152297   3.379   2.559   0.713  0.3439 -0.6965  0.6421
10294TIP3    H252298   3.329   2.432   0.648  0.5377 -0.3089 -0.2764
10295TIP3   OH252299   4.748   5.466   0.329 -0.1901  0.0457 -0.0227
10295TIP3    H152300   4.663   5.444   0.292 -0.2953 -0.6746  0.6336
10295TIP3    H252301   4.802   5.488   0.253 -0.6673 -0.4899 -0.5278
10296TIP3   OH252302   2.385   1.913  12.481 -0.1415  0.4633  0.4494
10296TIP3    H152303   2.393   1.924  12.386  0.7472 -0.2492  0.4259
10296TIP3    H252304   2.427   1.991  12.517  0.9992 -0.0280  0.2492
10297TIP3   OH252305   6.036   1.662  13.812 -0.2028  0.9132  0.3065
10297TIP3    H152306   5.999   1.636  13.897 -0.8184  0.5928 -0.0541
10297TIP3    H252307   6.032   1.582  13.759  2.0192  0.5507  0.5795
10298TIP3   OH252308   3.037   2.954  16.642  0.0919  0.1472  0.3479
10298TIP3    H152309   3.034   2.963  16.737 -0.6451 -0.0242  0.3469
10298TIP3    H252310   3.066   3.040  16.610  0.2664  0.2281  0.7209
10299TIP3   OH252311   5.076   2.646  14.347 -0.1421 -0.5989 -0.1642
10299TIP3    H152312   5.095   2.553  14.355 -2.9511 -1.2721 -0.2334
10299TIP3    H252313   5.155   2.684  14.307  1.0047 -2.9362 -0.2709
10300TIP3   OH252314   0.378   6.453   0.692 -0.0548 -1.2063  0.0345
10300TIP3    H152315   0.406   6.368   0.725  0.3663 -1.0679  0.0330
10300TIP3    H252316   0.458   6.504   0.683 -0.5008  0.2300  2.9079
10301TIP3   OH252317   3.079   5.141   5.776 -0.3748 -0.1539  0.6143
10301TIP3    H152318   3.081   5.113   5.867 -0.7811  0.0344  0.6835
10301TIP3    H252319   3.026   5.075   5.731  0.2550 -0.5258  0.4160
10302TIP3   OH252320   6.388   0.499  11.118 -0.1548  0.5966 -0.1715
10302TIP3    H152321   6.306   0.548  11.112 -0.4030  0.1163 -0.7269
10302TIP3    H252322   6.372   0.433  11.186  0.3323  1.5565  0.9093
10303TIP3   OH252323   4.679   6.197   3.987  0.0482  0.0560  0.1359
10303TIP3    H152324   4.691   6.102   3.993 -0.4686 -0.0515 -0.4841
10303TIP3    H252325   4.720   6.231   4.067  1.7404 -0.5384 -0.4215
10304TIP3   OH252326   3.055   0.974  13.568 -0.0024 -0.3604 -0.3579
10304TIP3    H152327   3.068   0.894  13.620  1.7519 -0.8567 -1.4879
10304TIP3    H252328   2.968   1.005  13.594  0.2404 -1.3211  1.8458
10305TIP3   OH252329   3.560   2.075  16.247 -0.1474 -0.3431  0.1626
10305TIP3    H152330   3.638   2.070  16.192 -0.9020  2.3413 -1.3248
10305TIP3    H252331   3.589   2.118  16.327  0.6714 -3.0852  1.4671
10306TIP3   OH252332   1.222   6.501   0.588 -0.3227 -0.6077  0.2472
10306TIP3    H152333   1.292   6.456   0.637 -0.9796 -0.7217  1.1016
10306TIP3    H252334   1.267   6.569   0.539  0.3213 -0.2679  1.2798
10307TIP3   OH252335   4.578   4.958   2.408 -0.6581 -0.5190  0.1573
10307TIP3    H152336   4.530   5.027   2.362 -0.0419 -0.3926 -0.3070
10307TIP3    H252337   4.663   4.954   2.364 -0.0989 -0.4941  1.1939
10308TIP3   OH252338   1.812   0.918  10.683 -0.3753 -0.1049  0.1272
10308TIP3    H152339   1.809   0.862  10.760  0.7714  1.1290  1.0963
10308TIP3    H252340   1.832   0.858  10.611  1.6983 -0.8773  1.2558
10309TIP3   OH252341   4.024   5.825   2.177  0.2353  0.3112  0.3635
10309TIP3    H152342   3.970   5.759   2.219  1.3281 -0.1103  1.1380
10309TIP3    H252343   3.974   5.850   2.099 -0.4519 -1.0076  0.3533
10310TIP3   OH252344   4.106   2.909  12.852 -0.0111 -0.1683 -0.2172
10310TIP3    H152345   4.186   2.861  12.830 -1.7601 -2.4215 -2.1617
10310TIP3    H252346   4.107   2.986  12.795  0.1617 -0.8864 -1.2080
10311TIP3   OH252347   5.510   4.357   1.989 -0.4292 -0.7334 -1.0438
10311TIP3    H152348   5.588   4.391   2.033 -0.0784 -2.7989  0.0160
10311TIP3    H252349   5.440   4.416   2.017  0.5196  0.4126 -1.0119
10312TIP3   OH252350   6.675   2.712   0.566 -0.3581  0.1049 -0.2266
10312TIP3    H152351   6.579   2.713   0.565 -0.3572  0.8876 -0.5938
10312TIP3    H252352   6.699   2.785   0.622  0.0136  1.3476 -1.9099
10313TIP3   OH252353   2.241   2.161   0.403 -0.0815 -0.6890  0.1556
10313TIP3    H152354   2.269   2.165   0.312 -0.5593 -0.0720  0.0309
10313TIP3    H252355   2.173   2.227   0.411 -0.1493 -0.8333  0.9289
10314TIP3   OH252356   2.301   0.589  13.777 -0.9824 -0.3744  0.4963
10314TIP3    H152357   2.318   0.527  13.706 -1.6873 -1.9000  1.5810
10314TIP3    H252358   2.268   0.667  13.734 -0.5939 -0.9485 -0.8994
10315TIP3   OH252359   5.783   1.295  13.932 -0.6718  0.6242  0.9255
10315TIP3    H152360   5.779   1.212  13.980 -1.0387  1.7881  3.0256
10315TIP3    H252361   5.707   1.345  13.963 -2.2667  0.6452 -2.5983
10316TIP3   OH252362   2.271   1.768  14.670 -0.2073  0.3969  0.4063
10316TIP3    H152363   2.175   1.767  14.665 -0.1778 -0.6092 -0.2067
10316TIP3    H252364   2.290   1.824  14.745 -1.3351 -0.5630  1.4650
10317TIP3   OH252365   4.486   5.916   4.197 -0.1008 -0.1379  0.4950
10317TIP3    H152366   4.452   5.876   4.277 -0.6953 -2.2400 -0.7172
10317TIP3    H252367   4.570   5.871   4.181  0.3695  0.7766  0.3195
10318TIP3   OH252368   2.163   0.209   1.967  0.5258 -1.0305  0.4004
10318TIP3    H152369   2.128   0.128   2.005  0.0508 -0.7305  0.6201
10318TIP3    H252370   2.109   0.223   1.889  0.5435 -0.8724  0.4173
10319TIP3   OH252371   2.105   6.594   3.907  0.3695  0.2092  0.0922
10319TIP3    H152372   2.056   6.568   3.985  0.8360  0.7712  0.5883
10319TIP3    H252373   2.195   6.608   3.939  0.6045  0.2774 -0.5786
10320TIP3   OH252374   6.751   5.930   2.829 -0.5830  0.2895  0.2831
10320TIP3    H152375   6.729   5.904   2.739  0.3430  1.5020 -0.3259
10320TIP3    H252376   6.826   5.875   2.852 -0.0991  0.7622 -0.1298
10321TIP3   OH252377   2.302   4.752   6.183  0.7619 -0.2446 -0.2410
10321TIP3    H152378   2.310   4.802   6.264  0.4311 -0.0376 -0.3335
10321TIP3    H252379   2.240   4.682   6.203 -0.1732  0.4605 -0.6224
10322TIP3   OH252380   5.689   5.528   3.809 -0.0341 -0.1416  0.0784
10322TIP3    H152381   5.682   5.573   3.725 -1.8741 -0.3623  0.0729
10322TIP3    H252382   5.734   5.446   3.789  1.7025  0.8456 -0.2291
10323TIP3   OH252383   5.235   2.705   1.518 -0.3459  0.3440 -0.4679
10323TIP3    H152384   5.209   2.727   1.607 -1.2145  0.0230 -0.6371
10323TIP3    H252385   5.330   2.693   1.524 -0.2815  1.0761  0.2494
10324TIP3   OH252386   5.780   0.597  12.503  0.3229 -0.4729 -0.2689
10324TIP3    H152387   5.836   0.526  12.473  3.3549  0.1495  3.2547
10324TIP3    H252388   5.835   0.675  12.500 -1.9676  1.2485 -1.1961
10325TIP3   OH252389   4.671   2.414   1.458 -0.2635 -0.1216  0.1863
10325TIP3    H152390   4.735   2.459   1.404 -0.9640  1.3451  0.5237
10325TIP3    H252391   4.609   2.375   1.396 -0.8182  1.1809 -0.1042
10326TIP3   OH252392   6.725   3.785   5.120 -0.0780 -0.0946 -0.1855
10326TIP3    H152393   6.642   3.820   5.154 -0.3435 -0.1549 -0.7597
10326TIP3    H252394   6.737   3.830   5.036 -1.9079 -3.3785 -2.4151
10327TIP3   OH252395   1.674   2.327  11.525 -0.1009  0.4791  0.8881
10327TIP3    H152396   1.631   2.261  11.580 -1.5277  0.0969 -0.6151
10327TIP3    H252397   1.670   2.291  11.437  1.3983  1.4598  0.3833
10328TIP3   OH252398   5.143   5.280  17.225  0.5609  0.6692  0.2963
10328TIP3    H152399   5.048   5.271  17.220  0.7267 -2.0503  0.8564
10328TIP3    H252400   5.161   5.289  17.318  0.9552 -1.2497  0.4496
10329TIP3   OH252401   3.802   0.660   2.049  0.1833  0.3146  0.1456
10329TIP3    H152402   3.895   0.652   2.027  0.2423 -1.5840  0.8522
10329TIP3    H252403   3.793   0.747   2.087  1.2612  1.2979 -1.7168
10330TIP3   OH252404   3.186   5.179   4.323 -0.0580  0.0576  0.3038
10330TIP3    H152405   3.256   5.195   4.386  0.4492  0.4561 -0.3423
10330TIP3    H252406   3.215   5.224   4.243 -0.3598 -1.0072 -0.4245
10331TIP3   OH252407   3.123   4.034  12.176  0.1539  0.1378  0.2784
10331TIP3    H152408   3.179   4.098  12.220  1.8652 -0.9900 -0.1281
10331TIP3    H252409   3.141   4.047  12.083 -0.8241  0.2369  0.1025
10332TIP3   OH252410   3.759   0.718   2.405  0.1906  0.3476  0.0673
10332TIP3    H152411   3.729   0.739   2.493  1.6423  0.6298  0.5260
10332TIP3    H252412   3.731   0.792   2.351  3.0878  2.4685  1.1863
10333TIP3   OH252413   6.467   4.823  12.685 -0.9115  0.4139 -0.3425
10333TIP3    H152414   6.542   4.882  12.699  1.2736 -2.1274 -0.5325
10333TIP3    H252415   6.495   4.767  12.613 -2.1446 -1.9410  0.9101
10334TIP3   OH252416   3.760   6.759   0.521 -0.1696 -0.2593 -0.9214
10334TIP3    H152417   3.713   6.693   0.469  1.2378  0.1788 -2.8426
10334TIP3    H252418   3.724   6.842   0.490  1.4800  0.0596 -2.0906
10335TIP3   OH252419   2.927   2.281  17.170  0.1582  0.2582  0.3732
10335TIP3    H152420   2.947   2.332  17.249 -1.3419 -1.3961  1.9488
10335TIP3    H252421   2.844   2.318  17.138  0.6081  0.7284 -0.2607
10336TIP3   OH252422   1.132   0.346   3.302  0.0718 -0.4054 -0.4322
10336TIP3    H152423   1.163   0.336   3.392 -0.6672 -0.4767 -0.1715
10336TIP3    H252424   1.168   0.270   3.256  2.5201  0.9117 -0.8332
10337TIP3   OH252425   1.038   1.449  12.147  0.2894  0.5645  0.2517
10337TIP3    H152426   0.958   1.432  12.197  0.7081 -0.2939  0.6533
10337TIP3    H252427   1.047   1.373  12.090  0.1793  1.2220 -0.6539
10338TIP3   OH252428   6.699   1.732  13.923 -0.2439 -0.1316  0.5175
10338TIP3    H152429   6.784   1.745  13.964  0.3537 -1.4262 -0.2537
10338TIP3    H252430   6.636   1.739  13.995  0.4585  1.1279  1.0456
10339TIP3   OH252431   4.008   4.990  13.306  0.2577 -0.0521 -0.2243
10339TIP3    H152432   4.086   5.041  13.328 -1.2814  2.2156  0.3709
10339TIP3    H252433   4.017   4.909  13.357  1.6358  0.6707  0.7542
10340TIP3   OH252434   0.251   4.279  12.398  0.0382 -0.0198  0.1602
10340TIP3    H152435   0.284   4.220  12.466  2.2526  0.2306 -0.6244
10340TIP3    H252436   0.163   4.246  12.377 -0.0658 -1.0217  2.0176
10341TIP3   OH252437   1.702   1.658  17.040 -0.3543  0.1275 -0.1379
10341TIP3    H152438   1.606   1.658  17.041 -0.3938 -1.8662 -0.5421
10341TIP3    H252439   1.725   1.706  16.960 -1.1484 -2.4918 -2.0584
10342TIP3   OH252440   2.475   5.091  14.746 -0.6705  0.2966 -0.4663
10342TIP3    H152441   2.502   5.003  14.721  1.3718 -0.2497  3.0310
10342TIP3    H252442   2.507   5.147  14.676  1.3004 -1.4087 -1.0155
10343TIP3   OH252443   6.711   4.866   3.913  0.8009  0.8050  0.0755
10343TIP3    H152444   6.785   4.816   3.948 -0.2004 -0.5309  0.3296
10343TIP3    H252445   6.637   4.841   3.968 -0.3587  0.2943 -1.6630
10344TIP3   OH252446   0.665   0.447  16.381 -0.4224  0.1892 -0.2334
10344TIP3    H152447   0.646   0.388  16.453 -2.1174  0.3646 -0.4804
10344TIP3    H252448   0.582   0.491  16.364  0.8441  2.9547  0.1915
10345TIP3   OH252449   3.135   2.019  15.189  0.4890  0.2868  0.0547
10345TIP3    H152450   3.060   1.961  15.176  1.0593 -0.5633  0.4212
10345TIP3    H252451   3.159   2.006  15.281  1.1960  0.4084 -0.1097
10346TIP3   OH252452   2.463   4.516  13.193 -0.2877 -0.1024 -0.4081
10346TIP3    H152453   2.439   4.560  13.274  1.1205  0.4663 -0.2724
10346TIP3    H252454   2.437   4.425  13.206  0.2972 -0.1153  0.8677
10347TIP3   OH252455   1.984   6.756  15.873  0.2943  0.2255  0.0850
10347TIP3    H152456   1.996   6.760  15.967 -1.7647 -0.0056  0.3930
10347TIP3    H252457   2.050   6.693  15.843  1.1475  0.4984  1.3030
10348TIP3   OH252458   2.671   5.096  11.329 -0.0581 -0.2358 -0.4101
10348TIP3    H152459   2.642   5.105  11.238  0.4668  0.2654 -0.5333
10348TIP3    H252460   2.746   5.154  11.336  3.2522 -4.0177 -1.0447
10349TIP3   OH252461   3.424   6.028  16.114  0.1401 -0.1915 -0.5353
10349TIP3    H152462   3.447   5.960  16.051 -1.8508 -0.7112 -0.7752
10349TIP3    H252463   3.389   5.981  16.189  1.3512  0.4790  0.4859
10350TIP3   OH252464   3.378   5.482   3.942 -0.0514 -0.0513 -0.1725
10350TIP3    H152465   3.379   5.453   3.851  0.7617  0.5171 -0.3613
10350TIP3    H252466   3.341   5.570   3.939  2.3768  1.0510 -0.3475
10351TIP3   OH252467   1.569   5.718  15.369 -0.5869  0.3724  0.7113
10351TIP3    H152468   1.601   5.630  15.390  0.7407  0.8441  0.7601
10351TIP3    H252469   1.619   5.744  15.292 -0.8280  1.1572  0.8109
10352TIP3   OH252470   1.778   4.850   4.649  0.1466  0.1338 -0.3456
10352TIP3    H152471   1.700   4.801   4.672 -0.3409  1.8445  1.9256
10352TIP3    H252472   1.773   4.860   4.554 -1.1537 -1.7582 -0.5204
10353TIP3   OH252473   0.938   1.779  12.327  0.0621 -0.8340  0.3998
10353TIP3    H152474   0.936   1.809  12.236  0.1921 -0.3384  0.5540
10353TIP3    H252475   0.881   1.703  12.329 -0.9070 -0.1329  0.1532
10354TIP3   OH252476   2.163   0.519  17.052  0.1209  0.1740  0.1537
10354TIP3    H152477   2.146   0.488  17.141 -0.8916  1.7576  0.5477
10354TIP3    H252478   2.219   0.451  17.013 -1.8185 -2.0163  0.9889
10355TIP3   OH252479   1.052   0.684   3.728  0.2402 -0.1955  0.3208
10355TIP3    H152480   1.002   0.617   3.775  0.2228 -0.5376 -0.1826
10355TIP3    H252481   1.099   0.732   3.797 -0.3227 -0.2466  0.7451
10356TIP3   OH252482   2.376   1.992   5.261 -0.0884  0.1940 -0.2584
10356TIP3    H152483   2.329   1.929   5.206  0.2513 -0.1279 -0.1820
10356TIP3    H252484   2.431   1.938   5.318 -0.0110  0.5485  0.0045
10357TIP3   OH252485   5.978   3.232   2.741 -0.3076  0.4976  0.0791
10357TIP3    H152486   5.903   3.289   2.757 -1.3803 -1.6040  3.3292
10357TIP3    H252487   5.943   3.143   2.744  1.8158 -0.5269 -1.7305
10358TIP3   OH252488   3.966   6.389   5.483  0.4007  0.5834 -0.7876
10358TIP3    H152489   4.029   6.427   5.422  2.8189 -0.7011  0.7158
10358TIP3    H252490   4.020   6.339   5.544 -2.1112 -0.3814  0.7991
10359TIP3   OH252491   4.819   3.388  16.897  0.6662  0.3079 -0.1053
10359TIP3    H152492   4.743   3.365  16.843 -0.6874  0.6699  1.5543
10359TIP3    H252493   4.807   3.481  16.917  1.7778  0.4732 -0.1538
10360TIP3   OH252494   5.467   5.322  12.958 -0.6660 -0.0111  0.2592
10360TIP3    H152495   5.530   5.284  13.019 -0.5063 -1.7565 -0.9287
10360TIP3    H252496   5.497   5.412  12.945 -0.3756  0.2213  2.2560
10361TIP3   OH252497   4.620   5.781   2.980 -0.6237 -0.6212 -0.3302
10361TIP3    H152498   4.674   5.856   2.955  0.1435 -0.9924  0.1672
10361TIP3    H252499   4.537   5.820   3.009 -1.0135 -0.1027 -2.0337
10362TIP3   OH252500   3.730   4.679  11.858 -0.5472 -0.1360 -0.1397
10362TIP3    H152501   3.664   4.623  11.899  0.2553 -0.6707  0.4646
10362TIP3    H252502   3.788   4.618  11.812  1.7827 -0.1711  2.5362
10363TIP3   OH252503   6.458   3.679   3.085 -0.3045 -0.0670  0.5589
10363TIP3    H152504   6.552   3.686   3.070 -0.2447  1.2122  1.3641
10363TIP3    H252505   6.446   3.592   3.122  0.7237  0.1439  1.4531
10364TIP3   OH252506   0.141   1.468   0.124  0.2849 -0.1850  0.3554
10364TIP3    H152507   0.127   1.427   0.209 -0.5890 -1.6077 -0.4403
10364TIP3    H252508   0.122   1.561   0.138 -1.4117 -0.6435  1.3608
10365TIP3   OH252509   0.305   1.988  11.760 -0.1371 -0.2343 -0.2918
10365TIP3    H152510   0.319   2.032  11.844  1.8593 -0.8463 -0.2650
10365TIP3    H252511   0.284   2.059  11.699  0.9227  0.5074  0.1938
10366TIP3   OH252512   2.088   5.668   1.638  0.2514  0.1063 -0.2221
10366TIP3    H152513   2.104   5.574   1.639 -0.9237 -0.1216 -0.8150
10366TIP3    H252514   2.057   5.689   1.726  1.1605  0.0748  0.1157
10367TIP3   OH252515   6.010   2.163  11.506 -0.2082  0.4638 -0.1112
10367TIP3    H152516   5.985   2.073  11.484  0.0189  0.1810  0.7467
10367TIP3    H252517   6.062   2.192  11.431  2.2834 -1.1773  0.8188
10368TIP3   OH252518   6.697   4.838   1.142  0.0937  0.0959  0.4694
10368TIP3    H152519   6.720   4.745   1.140  0.8948  0.2605  1.3235
10368TIP3    H252520   6.716   4.865   1.232 -0.5316  0.9900  0.3429
10369TIP3   OH252521   1.260   1.111   0.024 -0.3093 -0.3479  0.0868
10369TIP3    H152522   1.201   1.039   0.044  1.9386 -2.6747 -1.0149
10369TIP3    H252523   1.346   1.082   0.055  0.9360  1.2725 -1.5462
10370TIP3   OH252524   4.724   1.811   3.715 -0.6344 -0.0641 -0.5385
10370TIP3    H152525   4.720   1.777   3.626  1.3059 -1.1094 -0.2824
10370TIP3    H252526   4.709   1.735   3.770  1.5890 -0.1639  0.0270
10371TIP3   OH252527   2.977   5.254  16.961  0.1969 -0.4291  0.5603
10371TIP3    H152528   2.890   5.215  16.958  0.7855 -1.7008 -1.2008
10371TIP3    H252529   3.023   5.205  17.030 -0.0678 -0.6550  0.5759
10372TIP3   OH252530   0.468   5.410  15.551  0.5258 -0.2328  0.0481
10372TIP3    H152531   0.491   5.329  15.506 -0.1460 -0.1980 -0.3707
10372TIP3    H252532   0.379   5.429  15.522  0.5844  0.5182  0.3454
10373TIP3   OH252533   5.024   0.960  16.458 -0.0696 -0.3283 -0.1825
10373TIP3    H152534   4.972   1.033  16.425 -0.9874 -0.7898  0.2036
10373TIP3    H252535   5.035   0.978  16.551  0.7646 -0.0579 -0.3306
10374TIP3   OH252536   3.162   0.647   3.401 -0.2049  0.3696 -0.1136
10374TIP3    H152537   3.152   0.566   3.450  0.2847 -0.1678 -0.8763
10374TIP3    H252538   3.256   0.668   3.407 -0.3390  0.9259  0.1455
10375TIP3   OH252539   3.836   3.265  11.597  0.2942 -0.4595 -0.4816
10375TIP3    H152540   3.790   3.286  11.678 -1.2637  0.2424 -1.4890
10375TIP3    H252541   3.827   3.343  11.543  2.2250 -0.5255 -0.9692
10376TIP3   OH252542   4.778   2.567   6.295  0.1089 -0.1841 -0.4980
10376TIP3    H152543   4.838   2.545   6.366 -1.1666 -1.1831  0.3274
10376TIP3    H252544   4.812   2.649   6.259 -0.1392  1.3701  2.4293
10377TIP3   OH252545   1.507   0.777   4.365  0.0682 -0.2019 -0.1034
10377TIP3    H152546   1.436   0.731   4.321  0.1567  1.2124 -1.8077
10377TIP3    H252547   1.539   0.840   4.301  1.9306  0.1852  1.1153
10378TIP3   OH252548   0.081   5.724   6.005 -0.1269  0.0684 -0.3150
10378TIP3    H152549   0.005   5.679   5.970 -0.2384 -0.9394  1.1175
10378TIP3    H252550   0.047   5.778   6.076  0.4282 -0.0638  0.0650
10379TIP3   OH252551   4.671   3.609   1.149  0.7492  0.0709 -0.1074
10379TIP3    H152552   4.717   3.555   1.213 -0.1278 -1.7027 -0.8944
10379TIP3    H252553   4.624   3.674   1.202 -0.7524 -1.9615  1.1948
10380TIP3   OH252554   0.192   3.965  10.972  0.0846 -0.1246  0.7535
10380TIP3    H152555   0.149   4.030  10.917  1.4582  0.6431  0.5362
10380TIP3    H252556   0.149   3.974  11.057  0.0670  0.8876  0.6489
10381TIP3   OH252557   4.221   6.095   4.218 -0.2319  0.7004 -0.1859
10381TIP3    H152558   4.188   6.105   4.128 -0.7544 -2.2377 -0.4277
10381TIP3    H252559   4.311   6.063   4.206  0.3960  2.1720  0.4065
10382TIP3   OH252560   1.423   6.337   0.679  0.0599 -0.0184 -0.3061
10382TIP3    H152561   1.512   6.362   0.703 -0.1985  0.0847  0.5687
10382TIP3    H252562   1.421   6.242   0.690 -0.2216  0.0913  0.6656
10383TIP3   OH252563   5.237   2.556  17.218  0.1825 -0.2136  0.3077
10383TIP3    H152564   5.306   2.498  17.250 -0.6280 -0.2351  2.1153
10383TIP3    H252565   5.245   2.635  17.272 -1.4836 -0.4043  0.8770
10384TIP3   OH252566   3.445   1.658  11.382 -0.0634 -0.1578  0.8780
10384TIP3    H152567   3.462   1.567  11.356  1.0050  0.0133  0.9124
10384TIP3    H252568   3.532   1.693  11.403 -0.4035  0.9994  0.4361
10385TIP3   OH252569   0.599   5.187   0.813  0.0679  0.1466 -0.0126
10385TIP3    H152570   0.693   5.198   0.797 -0.0262  3.0650  0.8934
10385TIP3    H252571   0.579   5.100   0.779  3.4317 -1.3373  1.4104
10386TIP3   OH252572   0.473   4.631   5.467  0.4767 -0.1379  0.1159
10386TIP3    H152573   0.409   4.640   5.537 -2.1050  1.3951 -2.2048
10386TIP3    H252574   0.498   4.721   5.446  1.7121 -0.5995 -0.5046
10387TIP3   OH252575   3.232   4.263  11.813 -0.0784 -0.3739 -0.1236
10387TIP3    H152576   3.309   4.321  11.807  0.3915 -0.8516  1.0776
10387TIP3    H252577   3.255   4.199  11.880 -1.4684 -0.6380  0.1243
10388TIP3   OH252578   3.405   5.160   4.472 -0.8137 -0.4541 -0.3493
10388TIP3    H152579   3.434   5.248   4.496 -1.9555 -0.3991  0.9506
10388TIP3    H252580   3.421   5.107   4.550 -0.7810 -1.2508 -0.8805
10389TIP3   OH252581   1.731   4.466  14.925  0.6699  0.4454  0.7292
10389TIP3    H152582   1.810   4.500  14.965  0.7054 -0.3679  1.3823
10389TIP3    H252583   1.715   4.383  14.970  0.3397 -0.1740 -0.4799
10390TIP3   OH252584   2.466   5.152  16.962  0.6814  0.6556  0.0041
10390TIP3    H152585   2.510   5.183  16.883 -0.2387  0.3399 -0.6506
10390TIP3    H252586   2.521   5.080  16.993  0.4635  0.0271 -1.0028
10391TIP3   OH252587   3.959   1.012  14.407 -0.4582  0.0718  0.0176
10391TIP3    H152588   3.994   0.923  14.414  1.1766  0.7642  1.6405
10391TIP3    H252589   3.974   1.050  14.494 -0.8420  2.0295 -0.7263
10392TIP3   OH252590   5.459   1.950   0.738 -0.2205  0.1002  0.1512
10392TIP3    H152591   5.483   1.887   0.670 -0.4187  0.0481  0.1307
10392TIP3    H252592   5.540   1.962   0.789 -0.5058 -1.1278  0.9340
10393TIP3   OH252593   0.148   1.663  14.516 -0.1387  0.5858  0.8916
10393TIP3    H152594   0.153   1.747  14.560 -0.9052  1.3011 -0.3275
10393TIP3    H252595   0.103   1.681  14.433  2.5755 -0.3822 -0.9479
10394TIP3   OH252596   1.709   5.039   3.315  0.4314 -0.0603 -0.0317
10394TIP3    H152597   1.638   5.097   3.287  1.4718  0.9581 -0.6464
10394TIP3    H252598   1.668   4.981   3.379 -1.3837 -0.7083 -1.6723
10395TIP3   OH252599   6.443   3.250  13.598 -0.2880 -0.1405 -0.1798
10395TIP3    H152600   6.348   3.235  13.599 -0.3662  0.3036 -0.7497
10395TIP3    H252601   6.479   3.170  13.558 -0.5454  0.2961 -1.3271
10396TIP3   OH252602   4.192   1.716  16.137 -0.0520  0.4965 -0.1484
10396TIP3    H152603   4.226   1.683  16.054 -1.6167 -0.4590 -0.4552
10396TIP3    H252604   4.127   1.650  16.164  1.1615  0.2286  2.3674
10397TIP3   OH252605   1.824   2.855   3.323  0.2494 -0.0934  0.3996
10397TIP3    H152606   1.880   2.899   3.258  2.4611  1.3836  3.0948
10397TIP3    H252607   1.736   2.888   3.306  1.2544  2.6451 -0.0041
10398TIP3   OH252608   1.673   0.802  13.461  0.4109  0.4974  0.0824
10398TIP3    H152609   1.611   0.758  13.403  1.5405  0.3188 -1.0426
10398TIP3    H252610   1.680   0.744  13.537 -1.5018  1.0010  0.6950
10399TIP3   OH252611   3.198   5.362  13.686 -0.0386  0.4938  0.1727
10399TIP3    H152612   3.177   5.338  13.777 -1.2592 -0.2759 -0.2872
10399TIP3    H252613   3.289   5.392  13.690  0.8811 -2.0889  1.2321
10400TIP3   OH252614   2.387   1.910   3.476 -0.2359  0.4727 -0.1659
10400TIP3    H152615   2.435   1.900   3.394 -2.0461 -0.0382 -1.2397
10400TIP3    H252616   2.412   1.996   3.509  1.4354  0.1822 -0.6109
10401TIP3   OH252617   4.240   1.190  15.007  0.2659 -0.2175 -1.0126
10401TIP3    H152618   4.271   1.232  15.087 -0.8391 -1.1031 -0.1105
10401TIP3    H252619   4.251   1.258  14.940  0.9811  0.6160 -0.0839
10402TIP3   OH252620   2.721   6.291   4.815 -1.1235 -1.2759 -1.0110
10402TIP3    H152621   2.714   6.246   4.731  1.0111 -0.0617 -1.9030
10402TIP3    H252622   2.744   6.381   4.793  0.2323 -1.0913  0.8823
10403TIP3   OH252623   5.593   5.328   2.220  0.0638 -0.0747 -0.1931
10403TIP3    H152624   5.684   5.304   2.202  0.8710  0.7028  2.4325
10403TIP3    H252625   5.543   5.250   2.195  1.4961 -0.7722 -1.0387
10404TIP3   OH252626   6.215   5.760   5.499  0.6000  1.0629 -0.1960
10404TIP3    H152627   6.266   5.841   5.502  0.2676  1.3989 -2.3837
10404TIP3    H252628   6.231   5.724   5.413 -0.4941 -0.4085  0.1764
10405TIP3   OH252629   5.325   2.029   2.576  0.0079  0.1463 -0.0593
10405TIP3    H152630   5.376   2.085   2.635  0.0732  0.6782 -0.6130
10405TIP3    H252631   5.314   1.947   2.624  2.5132 -0.4874 -0.4289
10406TIP3   OH252632   5.948   2.086  13.445  0.2904 -0.3162  0.2056
10406TIP3    H152633   5.893   2.007  13.451  1.6919 -1.2577  1.4833
10406TIP3    H252634   5.979   2.086  13.355 -0.6040 -0.5874 -0.1231
10407TIP3   OH252635   0.366   3.828  10.322 -0.1216  0.2372 -0.0885
10407TIP3    H152636   0.361   3.788  10.409 -2.5964 -0.2581 -0.3931
10407TIP3    H252637   0.419   3.766  10.271  1.2752  0.4861  0.9860
10408TIP3   OH252638   2.395   6.147  12.893  0.6067 -0.5039 -0.0512
10408TIP3    H152639   2.489   6.129  12.884  0.5319 -0.2051 -1.7920
10408TIP3    H252640   2.352   6.070  12.855  0.1156 -0.7771  1.0083
10409TIP3   OH252641   6.667   6.055   3.398 -0.4513 -0.1285 -0.2223
10409TIP3    H152642   6.735   6.090   3.340 -0.4565 -0.6463 -0.5482
10409TIP3    H252643   6.654   5.965   3.368 -1.4876  0.0508 -0.3636
10410TIP3   OH252644   6.658   6.703  16.490  0.0008 -0.4769 -0.0092
10410TIP3    H152645   6.733   6.762  16.482 -0.3931  0.0845  0.3739
10410TIP3    H252646   6.588   6.746  16.440 -1.4520  1.3590  3.2274
10411TIP3   OH252647   4.730   5.776  10.785 -0.7966  0.4958  0.9430
10411TIP3    H152648   4.799   5.823  10.832 -0.7091  0.5570  0.7533
10411TIP3    H252649   4.679   5.845  10.742 -0.5411  0.4025  0.4902
10412TIP3   OH252650   2.086   5.622   4.283  0.4309  0.1822  0.0003
10412TIP3    H152651   2.082   5.713   4.312  1.8976 -0.1640  1.4766
10412TIP3    H252652   2.171   5.615   4.238 -0.2742 -0.1599 -1.3287
10413TIP3   OH252653   0.823   6.390  13.609  0.0181  0.3239 -0.5004
10413TIP3    H152654   0.875   6.470  13.620 -0.4738  0.6582 -0.5525
10413TIP3    H252655   0.828   6.370  13.515  1.1872 -0.4364 -0.2917
10414TIP3   OH252656   1.850   0.266  12.271 -0.2504  0.0095  0.0956
10414TIP3    H152657   1.856   0.361  12.264 -0.1971 -0.0825 -1.5068
10414TIP3    H252658   1.939   0.235  12.258 -0.0724 -0.2266  1.7482
10415TIP3   OH252659   4.156   1.433   5.865 -0.0644 -0.3679  0.1684
10415TIP3    H152660   4.125   1.372   5.797  0.3114 -0.9689  0.5267
10415TIP3    H252661   4.251   1.428   5.860 -0.0001  1.0490 -0.5474
10416TIP3   OH252662   3.672   2.421   4.654 -0.5226  0.1285  0.1884
10416TIP3    H152663   3.751   2.405   4.706 -0.2958 -0.9522 -0.4673
10416TIP3    H252664   3.703   2.464   4.575 -0.4780 -0.9989 -0.4212
10417TIP3   OH252665   2.692   5.886   6.042 -0.4027 -0.2207  0.0548
10417TIP3    H152666   2.625   5.951   6.023 -0.6768 -1.0243 -1.9506
10417TIP3    H252667   2.774   5.926   6.014 -0.3242 -0.0908  0.4551
10418TIP3   OH252668   0.140   5.721   0.909  0.3549 -0.0747 -0.4600
10418TIP3    H152669   0.090   5.703   0.988  1.5299 -0.7001  0.1590
10418TIP3    H252670   0.218   5.768   0.939 -0.1093  1.4527 -1.4753
10419TIP3   OH252671   4.332   4.377  12.380  0.3087 -0.4023 -0.0026
10419TIP3    H152672   4.364   4.466  12.363  1.9299 -1.0577 -0.6464
10419TIP3    H252673   4.337   4.333  12.295  0.5916 -1.4133  0.5193
10420TIP3   OH252674   4.554   0.298   1.768 -0.2253  0.4024  0.1753
10420TIP3    H152675   4.480   0.335   1.815 -0.4948  2.2233 -1.5247
10420TIP3    H252676   4.583   0.369   1.710  1.2187 -1.1054 -1.0472
10421TIP3   OH252677   4.044   6.740   2.092 -0.7600 -0.1230 -0.0132
10421TIP3    H152678   4.099   6.671   2.128  0.1017  0.8518  0.5786
10421TIP3    H252679   4.019   6.708   2.005  1.4708 -0.2373 -0.6656
10422TIP3   OH252680   0.126   6.329  11.960 -0.3867 -0.1383  0.5558
10422TIP3    H152681   0.180   6.375  11.896  0.1816 -1.1343  0.2995
10422TIP3    H252682   0.141   6.377  12.042  0.3162  0.0386  0.3355
10423TIP3   OH252683   5.859   1.316   2.293  0.2009 -0.9231 -0.2053
10423TIP3    H152684   5.904   1.263   2.228 -0.4912 -1.5644 -0.1683
10423TIP3    H252685   5.802   1.374   2.242 -1.4512 -2.4323 -0.1543
10424TIP3   OH252686   1.565   1.559  12.224  0.4861 -0.7285 -0.3353
10424TIP3    H152687   1.611   1.641  12.242  2.2639 -1.5224 -1.0139
10424TIP3    H252688   1.574   1.508  12.305 -0.1873 -0.4748 -0.0885
10425TIP3   OH252689   1.195   5.738   1.017 -0.3169  0.3607 -0.2146
10425TIP3    H152690   1.197   5.797   1.093 -0.6640 -1.5986  1.3795
10425TIP3    H252691   1.287   5.727   0.993 -0.0150 -0.6931  1.3279
10426TIP3   OH252692   6.045   6.523  16.190  1.0603  0.0795 -0.3073
10426TIP3    H152693   6.034   6.453  16.254  0.6138  0.5867  0.1863
10426TIP3    H252694   6.118   6.494  16.135 -0.6555 -1.8806 -1.6575
10427TIP3   OH252695   2.330   4.277  13.220  0.3438 -0.4283 -0.2392
10427TIP3    H152696   2.366   4.221  13.290  0.1117  1.6594  1.6698
10427TIP3    H252697   2.261   4.224  13.181  1.6298 -2.3183 -0.0757
10428TIP3   OH252698   2.322   2.534   2.670  0.0642 -0.4630  0.3886
10428TIP3    H152699   2.247   2.518   2.728 -1.4726 -1.8423 -1.7949
10428TIP3    H252700   2.283   2.574   2.592  1.9391  0.6324 -0.0474
10429TIP3   OH252701   6.743   4.927   1.400 -0.2433 -0.2406  0.0046
10429TIP3    H152702   6.826   4.935   1.446  1.2588 -1.7510 -2.2111
10429TIP3    H252703   6.693   4.863   1.451  0.3391 -0.0356  0.8519
10430TIP3   OH252704   5.683   1.381  15.330 -0.0244  0.0771  0.2359
10430TIP3    H152705   5.723   1.462  15.299  2.6312 -1.7367 -1.5078
10430TIP3    H252706   5.639   1.405  15.411  0.2816  3.3019 -0.4274
10431TIP3   OH252707   0.360   0.586  16.436  0.1761 -0.6232 -0.0268
10431TIP3    H152708   0.346   0.681  16.439  2.7570 -0.1472 -0.7025
10431TIP3    H252709   0.301   0.551  16.503 -0.4369  1.5084  0.6265
10432TIP3   OH252710   3.908   3.382   5.601 -0.4247  0.2772 -0.3985
10432TIP3    H152711   3.887   3.326   5.526  0.6659  0.0830 -0.5766
10432TIP3    H252712   3.834   3.371   5.661 -2.2226  1.8035 -2.1771
10433TIP3   OH252713   3.083   2.600   3.986 -0.3221 -0.2678 -0.0707
10433TIP3    H152714   3.119   2.512   3.994  1.4391  0.3016 -1.2276
10433TIP3    H252715   3.105   2.643   4.068 -0.1590 -0.5544  0.0355
10434TIP3   OH252716   1.589   2.572   5.049 -0.0487  0.7602  0.4036
10434TIP3    H152717   1.675   2.551   5.012  0.0108  1.1592  0.3159
10434TIP3    H252718   1.573   2.663   5.024 -0.4249  0.7398  0.5591
10435TIP3   OH252719   5.464   2.799  12.074  0.0337  0.1067 -0.0895
10435TIP3    H152720   5.450   2.893  12.068 -0.9679 -0.0753 -0.8859
10435TIP3    H252721   5.477   2.783  12.168  0.1651  1.0222  0.0580
10436TIP3   OH252722   3.675   5.043   3.541  0.0009 -0.1672 -0.1536
10436TIP3    H152723   3.630   4.960   3.554 -1.9060  0.9501  0.8723
10436TIP3    H252724   3.636   5.079   3.461  0.4279 -0.0039 -0.2915
10437TIP3   OH252725   4.621   5.790   2.534 -0.4361 -0.2469 -0.3504
10437TIP3    H152726   4.624   5.865   2.593  0.4015  0.1356 -0.8670
10437TIP3    H252727   4.569   5.820   2.459  1.8743  0.6832 -1.6818
10438TIP3   OH252728   6.032   2.541  15.069  0.0923 -0.4161 -0.1542
10438TIP3    H152729   6.121   2.567  15.094 -0.1998  1.8414 -1.2279
10438TIP3    H252730   6.028   2.557  14.975 -0.7316 -2.8507 -0.5951
10439TIP3   OH252731   2.227   2.708   3.948 -0.6924 -0.0917  0.0291
10439TIP3    H152732   2.173   2.786   3.933 -1.2851 -0.2243  1.3746
10439TIP3    H252733   2.224   2.694   4.043  1.4874 -0.2752  0.1093
10440TIP3   OH252734   4.064   6.733   0.508  0.2827  0.4976  0.4763
10440TIP3    H152735   3.969   6.723   0.507  0.1059  2.0100 -0.2358
10440TIP3    H252736   4.097   6.646   0.484 -0.9034 -0.0714  0.8232
10441TIP3   OH252737   3.983   4.697   4.782  0.0141  0.1225  0.0234
10441TIP3    H152738   3.948   4.637   4.847 -1.5887  2.0061  1.0078
10441TIP3    H252739   4.003   4.777   4.831 -2.0208  1.9117 -1.8294
10442TIP3   OH252740   5.525   0.831  16.831 -0.1425  0.2956 -0.3495
10442TIP3    H152741   5.495   0.822  16.740 -1.6329  1.2246  0.0030
10442TIP3    H252742   5.458   0.886  16.872  0.1054 -0.7189  1.5148
10443TIP3   OH252743   0.154   0.631   5.373 -0.3916  0.0036 -0.6542
10443TIP3    H152744   0.121   0.670   5.292  0.0863 -0.4200 -1.0637
10443TIP3    H252745   0.231   0.581   5.345  0.1176  0.3263  0.1512
10444TIP3   OH252746   5.706   4.399  11.706  0.6004  0.3653 -0.7769
10444TIP3    H152747   5.732   4.321  11.659  0.7248  0.9347 -1.6743
10444TIP3    H252748   5.665   4.366  11.786  1.3106 -0.5919 -0.7893
10445TIP3   OH252749   5.080   6.484   3.501 -0.3724  0.0131  0.4225
10445TIP3    H152750   5.041   6.445   3.580 -1.5208 -1.9043 -1.0109
10445TIP3    H252751   5.023   6.456   3.430 -0.1005  2.7417 -0.9983
10446TIP3   OH252752   5.318   0.066   2.324 -0.3169  0.0206 -0.9396
10446TIP3    H152753   5.253   0.069   2.394  0.0250  0.8497 -0.6494
10446TIP3    H252754   5.397   0.105   2.363 -0.4343  1.5273 -2.1194
10447TIP3   OH252755   6.366   6.650   1.283 -0.3522  0.4678 -0.4437
10447TIP3    H152756   6.408   6.613   1.361  1.0032  1.0121 -0.8853
10447TIP3    H252757   6.282   6.605   1.278  0.4340 -1.1436  0.1099
10448TIP3   OH252758   4.567   5.755  16.688 -0.4320 -0.4569 -0.8795
10448TIP3    H152759   4.628   5.826  16.668 -0.7947 -0.1926 -1.0569
10448TIP3    H252760   4.525   5.734  16.604 -1.9529  0.6486 -0.4327
10449TIP3   OH252761   0.755   6.763  12.709  0.4618 -0.4295 -0.0640
10449TIP3    H152762   0.791   6.783  12.795  0.4150 -0.5776 -0.0094
10449TIP3    H252763   0.773   6.670  12.697  0.3585 -0.4369 -0.1619
10450TIP3   OH252764   6.339   5.806  10.320  0.0575 -0.3347  0.1398
10450TIP3    H152765   6.274   5.841  10.258  0.3201  0.9765  0.5628
10450TIP3    H252766   6.315   5.845  10.404 -1.6244 -3.8007  1.4377
10451TIP3   OH252767   5.065   6.593   2.252 -0.3272 -0.0769 -0.7464
10451TIP3    H152768   5.119   6.598   2.330 -1.0633 -0.7579 -0.1829
10451TIP3    H252769   4.976   6.583   2.284 -0.6161 -0.6468 -1.6645
10452TIP3   OH252770   0.167   6.082  13.586  0.4491  0.3568 -0.3525
10452TIP3    H152771   0.097   6.042  13.534 -0.0031  1.3295 -0.5133
10452TIP3    H252772   0.141   6.066  13.677  0.8451 -0.6657 -0.4014
10453TIP3   OH252773   0.467   5.534   3.234 -0.5402  0.5520 -0.1100
10453TIP3    H152774   0.547   5.556   3.188 -0.8179  2.7156  0.3404
10453TIP3    H252775   0.492   5.464   3.294  0.7847  0.5634 -0.6218
10454TIP3   OH252776   4.804   2.309  12.514  0.4273 -0.3441 -0.1700
10454TIP3    H152777   4.728   2.331  12.460  1.5600  0.4207 -1.5453
10454TIP3    H252778   4.862   2.260  12.455  0.8328 -1.2733  0.9647
10455TIP3   OH252779   0.548   2.052  15.347 -0.1526 -0.2448  0.0947
10455TIP3    H152780   0.626   2.009  15.379  0.8642 -0.5561 -2.5494
10455TIP3    H252781   0.558   2.144  15.373  0.8464 -0.3785  0.1899
10456TIP3   OH252782   0.494   4.175  13.272 -0.7628  0.6086 -0.3759
10456TIP3    H152783   0.470   4.238  13.204  1.8119  2.0216 -0.0963
10456TIP3    H252784   0.525   4.229  13.345 -1.4322 -0.9304  1.1165
10457TIP3   OH252785   1.737   3.436  14.073  0.0430  0.5889  0.0818
10457TIP3    H152786   1.778   3.368  14.020  1.5042  0.7076  1.0071
10457TIP3    H252787   1.807   3.468  14.130 -1.6027 -0.0470  2.6374
10458TIP3   OH252788   3.245   2.421  13.209 -0.1221  0.5057  0.1408
10458TIP3    H152789   3.154   2.397  13.193 -0.7420  1.9397  1.2015
10458TIP3    H252790   3.270   2.475  13.134  0.8632 -2.2241 -1.6105
10459TIP3   OH252791   6.073   2.546  13.600 -0.3278  0.1034  0.4591
10459TIP3    H152792   6.140   2.597  13.645 -0.7458  0.7073  0.4012
10459TIP3    H252793   5.990   2.588  13.622 -0.5096  0.7757 -1.2986
10460TIP3   OH252794   0.877   3.255  11.293  0.4366  0.4023 -0.0598
10460TIP3    H152795   0.921   3.274  11.210 -0.8194 -1.7788 -1.3159
10460TIP3    H252796   0.809   3.323  11.300  1.4603  1.4533 -0.0574
10461TIP3   OH252797   0.734   1.495   3.498 -0.2790 -0.3618 -0.2601
10461TIP3    H152798   0.799   1.464   3.434 -1.2131 -3.2738  0.0627
10461TIP3    H252799   0.665   1.429   3.496 -0.8472 -0.0243  3.0043
10462TIP3   OH252800   6.545   2.611   2.789 -0.1181 -0.0809 -0.1067
10462TIP3    H152801   6.574   2.702   2.795 -2.1444  0.6452 -0.6136
10462TIP3    H252802   6.623   2.560   2.810  1.0264  1.7604  0.3623
10463TIP3   OH252803   2.592   2.945   4.836 -0.3712  0.0294  0.0832
10463TIP3    H152804   2.564   2.857   4.812 -1.2158  0.7378 -1.6918
10463TIP3    H252805   2.585   2.947   4.931 -0.1833 -1.8607  0.1708
10464TIP3   OH252806   2.777   4.249  13.989  0.2507 -0.4696 -0.2023
10464TIP3    H152807   2.703   4.245  14.048 -1.4431 -1.1644 -2.2525
10464TIP3    H252808   2.823   4.165  14.002  0.1588 -0.4265  0.4149
10465TIP3   OH252809   4.191   2.178   4.256  0.6348  0.0844 -0.0584
10465TIP3    H152810   4.096   2.170   4.252  0.5229  1.2589  0.0574
10465TIP3    H252811   4.221   2.090   4.280 -0.5199  0.0990  1.6198
10466TIP3   OH252812   0.339   3.054   5.651 -0.1933  0.2975  0.1336
10466TIP3    H152813   0.285   3.072   5.728 -0.6707 -0.2058 -0.0702
10466TIP3    H252814   0.366   2.963   5.663  2.2138  1.0699  1.1853
10467TIP3   OH252815   4.948   6.231   3.365  0.0138  0.0741 -0.3319
10467TIP3    H152816   4.867   6.203   3.322 -1.1252  0.1236  1.6225
10467TIP3    H252817   4.976   6.154   3.415  0.5973  0.3846 -0.1737
10468TIP3   OH252818   3.356   3.484  12.995  0.4309 -0.4599  0.1717
10468TIP3    H152819   3.429   3.436  12.955  0.7782 -1.4274  1.8696
10468TIP3    H252820   3.286   3.420  13.003  0.1807 -0.1371  0.6260
10469TIP3   OH252821   3.297   1.684  13.156  0.2241 -0.2989  0.0498
10469TIP3    H152822   3.286   1.588  13.153  0.7260 -0.3429 -2.1025
10469TIP3    H252823   3.226   1.718  13.102  0.3594  0.5269  0.3758
10470TIP3   OH252824   6.098   4.057  16.120 -0.0817 -0.2758  0.0390
10470TIP3    H152825   6.173   4.111  16.095  0.6032 -0.8993  0.6764
10470TIP3    H252826   6.021   4.107  16.092  0.5580  0.6304 -0.1313
10471TIP3   OH252827   1.279   3.041  13.772  0.3060 -0.4238 -0.4678
10471TIP3    H152828   1.260   2.972  13.835 -1.2263  0.5444  0.1850
10471TIP3    H252829   1.197   3.055  13.724 -0.5731  3.1005  1.6476
10472TIP3   OH252830   5.202   0.391  16.827  0.2880 -0.6118 -0.2818
10472TIP3    H152831   5.195   0.415  16.920 -0.7670  0.1852 -0.5488
10472TIP3    H252832   5.203   0.295  16.828  0.6739 -0.6166  0.5665
10473TIP3   OH252833   5.286   0.888   0.222 -0.1321 -0.7002  0.0362
10473TIP3    H152834   5.198   0.921   0.206 -0.8747 -2.0214  1.1576
10473TIP3    H252835   5.344   0.962   0.202 -1.5610  0.5545  0.3819
10474TIP3   OH252836   2.279   4.459  12.731  0.1425 -0.1833 -0.0725
10474TIP3    H152837   2.310   4.368  12.737  0.3934 -0.0311  1.3826
10474TIP3    H252838   2.355   4.512  12.753  0.5427  0.5270 -2.8393
10475TIP3   OH252839   3.107   2.613   4.276 -0.0108  0.3578  0.2665
10475TIP3    H152840   3.028   2.655   4.312 -0.1302 -0.8258  1.4278
10475TIP3    H252841   3.179   2.656   4.321 -0.0892  0.0718  0.6743
10476TIP3   OH252842   1.731   3.239  11.314 -0.6357  0.1480  0.2034
10476TIP3    H152843   1.686   3.249  11.231 -0.3144  0.4197  0.0554
10476TIP3    H252844   1.714   3.321  11.361 -1.8224 -0.4751  0.9177
10477TIP3   OH252845   4.808   2.479   3.337 -0.0995  0.7644 -0.4571
10477TIP3    H152846   4.893   2.464   3.296  0.3916  1.0181  0.4378
10477TIP3    H252847   4.769   2.392   3.344 -0.0513  0.6802 -1.1355
10478TIP3   OH252848   0.193   6.741  13.790  0.4633 -0.4525 -0.2565
10478TIP3    H152849   0.155   6.801  13.726  0.7635 -0.4505 -0.4350
10478TIP3    H252850   0.126   6.674  13.803 -1.0966  1.3690  2.0548
10479TIP3   OH252851   3.726   1.400   2.788 -0.4063 -0.0756  1.2118
10479TIP3    H152852   3.782   1.458   2.839  0.5170  0.9890 -0.9402
10479TIP3    H252853   3.766   1.396   2.702 -3.2454  0.1728 -0.2212
10480TIP3   OH252854   2.404   4.638   5.596 -0.2908  0.0757 -0.1186
10480TIP3    H152855   2.463   4.571   5.562  0.9965  1.3345 -0.4179
10480TIP3    H252856   2.359   4.672   5.519 -0.8216 -0.3193  0.0131
10481TIP3   OH252857   5.048   1.858  15.232 -0.2943  0.1712 -0.6091
10481TIP3    H152858   5.055   1.806  15.312  0.1338  0.2594 -0.5915
10481TIP3    H252859   5.031   1.947  15.263 -0.1925  0.1936 -0.6174
10482TIP3   OH252860   6.186   4.732   2.854 -0.1135 -0.6049 -0.2605
10482TIP3    H152861   6.116   4.694   2.907  0.0041 -0.3327  0.0895
10482TIP3    H252862   6.262   4.733   2.912 -0.0220 -0.1666 -0.3879
10483TIP3   OH252863   1.445   4.584   0.681 -0.4242  0.5051 -0.1412
10483TIP3    H152864   1.516   4.523   0.657 -1.1102 -0.7813  0.9815
10483TIP3    H252865   1.487   4.670   0.680  1.1491 -0.2057  0.3717
10484TIP3   OH252866   0.204   4.939  13.644  0.0689  0.2860 -0.6241
10484TIP3    H152867   0.146   4.953  13.719  2.0879 -1.4144  1.3612
10484TIP3    H252868   0.261   5.016  13.643  0.0251  0.3215 -0.4409
10485TIP3   OH252869   6.295   3.434   4.798 -0.1429 -0.2374 -0.1757
10485TIP3    H152870   6.220   3.463   4.746  0.5285 -0.2113 -1.1595
10485TIP3    H252871   6.364   3.497   4.777  0.1074 -0.1473  0.8673
10486TIP3   OH252872   6.123   2.458   4.367  0.2201  0.0341  0.3196
10486TIP3    H152873   6.054   2.402   4.403 -0.5057  0.9075  0.3411
10486TIP3    H252874   6.205   2.418   4.396 -0.2978 -0.6433  0.8722
10487TIP3   OH252875   6.460   4.456  14.306 -0.2148  0.0328  0.4065
10487TIP3    H152876   6.519   4.449  14.381  0.4224 -0.9479 -0.1597
10487TIP3    H252877   6.398   4.384  14.319  0.0253 -0.2695 -0.1016
10488TIP3   OH252878   3.587   3.499   4.898 -0.1512  0.2204  0.0546
10488TIP3    H152879   3.502   3.476   4.935  0.5895 -0.2022  1.5956
10488TIP3    H252880   3.576   3.489   4.804 -2.0790  1.1699  0.1435
10489TIP3   OH252881   0.791   2.991  10.751  0.0794  0.1819  0.6824
10489TIP3    H152882   0.806   2.977  10.658  0.6936  0.7751  0.6854
10489TIP3    H252883   0.759   2.906  10.783  2.4060 -0.8425  0.4526
10490TIP3   OH252884   0.797   6.779   1.953 -0.3076  0.7121  0.5795
10490TIP3    H152885   0.867   6.774   1.888  0.3663  2.5492  1.0794
10490TIP3    H252886   0.788   6.873   1.971 -2.2219  0.4487  1.2833
10491TIP3   OH252887   1.494   2.840   3.450  0.6787 -0.8463 -0.1912
10491TIP3    H152888   1.462   2.900   3.383  0.7082 -1.2035 -0.5328
10491TIP3    H252889   1.500   2.755   3.405 -1.1205 -1.5331  0.7378
10492TIP3   OH252890   2.030   5.847   1.834 -0.2704 -0.1411 -0.2838
10492TIP3    H152891   2.004   5.939   1.825 -0.3145 -0.1083  0.1461
10492TIP3    H252892   2.078   5.844   1.917 -1.5993 -0.7831  0.5115
10493TIP3   OH252893   3.446   6.554   2.821 -0.2698  0.1722 -0.3746
10493TIP3    H152894   3.439   6.460   2.803 -0.0915  0.3507 -1.4828
10493TIP3    H252895   3.495   6.588   2.746 -0.9795  1.2641 -0.3523
10494TIP3   OH252896   6.561   4.415   5.630 -0.0383 -0.4188  0.4251
10494TIP3    H152897   6.562   4.502   5.671 -0.0108 -0.4176  0.4219
10494TIP3    H252898   6.587   4.431   5.539  0.1172 -0.4523  0.4648
10495TIP3   OH252899   2.440   4.159  15.756 -0.1890  0.2076  0.1864
10495TIP3    H152900   2.469   4.068  15.755  0.2255  0.2699  2.2830
10495TIP3    H252901   2.518   4.209  15.731  0.2077  0.0833  1.1179
10496TIP3   OH252902   4.304   5.680   2.971  0.1192  0.5213  0.3158
10496TIP3    H152903   4.364   5.742   3.013  0.8088  0.4253 -0.5025
10496TIP3    H252904   4.314   5.697   2.877  0.6537 -1.1134  0.0377
10497TIP3   OH252905   2.485   3.065   5.096  0.2558 -0.4842 -0.1944
10497TIP3    H152906   2.434   3.144   5.115  2.2706  0.8478 -0.0693
10497TIP3    H252907   2.448   2.999   5.155  0.6824  1.2668  2.2003
10498TIP3   OH252908   2.747   4.705  13.232 -0.3576 -0.1872  0.0432
10498TIP3    H152909   2.775   4.785  13.187 -1.9367  0.5800  0.3664
10498TIP3    H252910   2.674   4.733  13.288 -0.5091 -1.7321  0.6718
10499TIP3   OH252911   1.176   0.517  14.544 -0.4150 -0.5675 -0.3552
10499TIP3    H152912   1.163   0.568  14.464 -0.2126  2.9677  1.6865
10499TIP3    H252913   1.270   0.521  14.560 -0.4049 -1.5668 -0.0895
10500TIP3   OH252914   3.392   6.455  13.377 -0.4133 -0.2031 -0.4584
10500TIP3    H152915   3.297   6.443  13.384 -0.4647  0.3574 -0.1420
10500TIP3    H252916   3.405   6.496  13.292 -0.2552 -2.1933 -1.4555
10501TIP3   OH252917   1.782   5.616   1.379  0.4754 -0.2016 -0.2774
10501TIP3    H152918   1.717   5.567   1.430 -0.1355 -0.4370 -1.2649
10501TIP3    H252919   1.815   5.683   1.440 -3.3191  2.3784 -0.7626
10502TIP3   OH252920   6.064   5.679  12.852 -0.1263 -0.0873 -0.0097
10502TIP3    H152921   6.125   5.651  12.920  1.7947  0.8451 -1.2474
10502TIP3    H252922   6.049   5.772  12.869 -0.2845 -0.0423 -0.3735
10503TIP3   OH252923   3.772   2.611   4.477  0.1368 -0.3404  0.0261
10503TIP3    H152924   3.829   2.678   4.441 -2.3616  0.5344 -2.6753
10503TIP3    H252925   3.774   2.540   4.412 -1.4409 -0.4757  0.0861
10504TIP3   OH252926   1.872   1.516  14.527  0.3705  0.2959 -0.4484
10504TIP3    H152927   1.918   1.483  14.450  0.8525  1.7636 -0.8189
10504TIP3    H252928   1.914   1.471  14.601 -1.4060 -2.6635 -1.0656
10505TIP3   OH252929   3.640   5.661   2.130  0.1847  0.4722  0.2753
10505TIP3    H152930   3.601   5.575   2.112  1.0631 -0.1193  1.0968
10505TIP3    H252931   3.648   5.702   2.044  0.2461 -0.4922 -0.1961
10506TIP3   OH252932   2.490   1.951  15.210 -0.8944 -1.1260 -0.6306
10506TIP3    H152933   2.527   1.931  15.296  0.6196  0.0019 -0.9764
10506TIP3    H252934   2.453   2.039  15.221  0.9772 -0.1743 -1.5878
10507TIP3   OH252935   4.193   4.214  16.722  0.6676  0.1148 -0.1948
10507TIP3    H152936   4.117   4.260  16.687  1.1139  1.4946  0.5329
10507TIP3    H252937   4.215   4.149  16.656 -1.4113 -0.6438 -0.2086
10508TIP3   OH252938   4.853   0.016  15.433  0.4628 -0.6364 -0.1379
10508TIP3    H152939   4.910  -0.045  15.479  0.4662  0.2981  1.1652
10508TIP3    H252940   4.839   0.088  15.496 -0.3205  0.2275 -1.2551
10509TIP3   OH252941   6.332   2.472  16.743  0.1936  0.1797  0.3974
10509TIP3    H152942   6.406   2.463  16.803  0.8024  0.3722 -0.3179
10509TIP3    H252943   6.273   2.400  16.767  0.8297 -0.2582  0.6629
10510TIP3   OH252944   1.024   3.806   3.918  0.0145  0.4154 -0.2383
10510TIP3    H152945   1.118   3.808   3.937 -0.1834 -0.2461  0.9276
10510TIP3    H252946   1.018   3.799   3.823  1.1710 -0.7883 -0.2443
10511TIP3   OH252947   0.420   5.700  12.952  0.2792 -1.2848 -0.2310
10511TIP3    H152948   0.405   5.653  13.034  0.8506 -1.8083 -0.4138
10511TIP3    H252949   0.337   5.743  12.933  0.4479 -0.2930  1.1662
10512TIP3   OH252950   0.551   3.802  15.597 -0.0410  0.2659  0.4260
10512TIP3    H152951   0.631   3.847  15.622  0.4016 -0.4334  0.2989
10512TIP3    H252952   0.525   3.753  15.675 -0.2964  0.4187  0.4397
10513TIP3   OH252953   4.985   0.401  11.962  0.3296  0.1259  0.3994
10513TIP3    H152954   4.957   0.348  12.037  1.9512 -0.9507  0.3023
10513TIP3    H252955   4.968   0.345  11.886  0.5831  0.3846  0.1501
10514TIP3   OH252956   4.394   0.223  14.517 -0.3062  0.3197  0.2915
10514TIP3    H152957   4.454   0.287  14.555 -0.9973 -0.0521  2.1552
10514TIP3    H252958   4.309   0.268  14.513 -0.2613  0.3214 -0.7700
10515TIP3   OH252959   1.575   2.339   0.007  0.1121  0.6101 -0.2001
10515TIP3    H152960   1.628   2.299   0.076 -0.6917  1.2263  0.7989
10515TIP3    H252961   1.500   2.281  -0.003 -0.2207  0.9882  0.0777
10516TIP3   OH252962   1.646   6.632   3.219  0.5683 -0.2746 -0.2024
10516TIP3    H152963   1.693   6.713   3.238  0.4704 -0.3593  0.4255
10516TIP3    H252964   1.636   6.589   3.304  0.1419 -0.6856 -0.4515
10517TIP3   OH252965   3.213   1.036   2.696 -0.1221  0.0263 -0.4097
10517TIP3    H152966   3.267   1.067   2.769 -1.0157 -1.3227  0.8758
10517TIP3    H252967   3.277   1.010   2.629  0.8226 -0.9053  0.8000
10518TIP3   OH252968   0.478   2.448  13.127 -0.0769  0.4812  0.0300
10518TIP3    H152969   0.432   2.435  13.209  0.1104 -0.4591  0.0038
10518TIP3    H252970   0.415   2.493  13.070 -0.6940 -0.0900  0.2470
10519TIP3   OH252971   5.738   6.031   1.628 -0.2369  0.4946 -0.1889
10519TIP3    H152972   5.716   6.121   1.603 -1.8562  0.3227  0.4725
10519TIP3    H252973   5.707   5.978   1.554 -0.4106  0.3885 -0.0400
10520TIP3   OH252974   2.776   6.079  16.964  0.3239  0.6017  0.4129
10520TIP3    H152975   2.832   6.082  17.041  1.1716 -0.3746 -0.1345
10520TIP3    H252976   2.835   6.095  16.890  0.0067 -0.8638 -0.2103
10521TIP3   OH252977   1.584   5.430   6.418  0.1272  0.0380 -0.4643
10521TIP3    H152978   1.536   5.489   6.476 -0.5910 -0.0991 -0.9141
10521TIP3    H252979   1.590   5.477   6.335  2.3801  0.8357  0.0843
10522TIP3   OH252980   0.342   2.011  15.176  0.4375 -0.1687  0.7684
10522TIP3    H152981   0.400   2.041  15.246 -0.7319  0.6222  1.4224
10522TIP3    H252982   0.363   1.918  15.166  0.6384 -0.2907  2.1481
10523TIP3   OH252983   2.675   1.775   6.086  0.3523  0.0744  0.0869
10523TIP3    H152984   2.742   1.798   6.150 -0.0188  0.7596  0.2344
10523TIP3    H252985   2.593   1.775   6.137  0.2687 -1.1326  0.0004
10524TIP3   OH252986   6.577   6.749   0.290  0.6519 -0.0213 -0.4930
10524TIP3    H152987   6.609   6.839   0.292 -0.5373  0.4238  1.6049
10524TIP3    H252988   6.656   6.695   0.300  1.0998  0.9736  2.2833
10525TIP3   OH252989   2.190   5.563   4.959  0.3487  0.2765  0.0143
10525TIP3    H152990   2.140   5.641   4.935 -0.0356  0.9781  2.7524
10525TIP3    H252991   2.131   5.514   5.017  1.4136 -0.8777  0.1594
10526TIP3   OH252992   3.986   0.593  11.425 -0.2297 -0.6597  0.5873
10526TIP3    H152993   4.074   0.628  11.411  0.0092 -1.1047  0.9503
10526TIP3    H252994   3.933   0.669  11.450  0.0214 -0.3721  0.2520
10527TIP3   OH252995   0.848   3.159  15.156  0.3405  0.4570  0.1138
10527TIP3    H152996   0.905   3.223  15.113  0.6794 -0.4421 -0.7961
10527TIP3    H252997   0.907   3.104  15.206  0.3160 -0.6035 -0.9911
10528TIP3   OH252998   6.236   4.537   4.831  0.0144  0.0540  0.2962
10528TIP3    H152999   6.303   4.493   4.883  0.3054 -2.5136 -2.0591
10528TIP3    H253000   6.154   4.520   4.879  0.5761  0.2909  1.3835
10529TIP3   OH253001   3.949   1.122  11.257  0.4317 -0.0623 -0.7847
10529TIP3    H153002   4.027   1.177  11.252  0.6396 -0.3942 -1.2495
10529TIP3    H253003   3.947   1.076  11.173 -0.5895  0.3796 -1.0102
10530TIP3   OH253004   0.277   3.766  13.955 -0.3123  0.3039  0.5076
10530TIP3    H153005   0.263   3.781  13.862 -0.1417  0.1446  0.4558
10530TIP3    H253006   0.323   3.682  13.960 -1.8192 -0.5427  0.8346
10531TIP3   OH253007   0.498   3.136   4.060 -0.6369  0.0542 -0.5763
10531TIP3    H153008   0.561   3.166   3.995  0.0284  0.8636  0.4238
10531TIP3    H253009   0.418   3.120   4.009  0.0982 -0.1308 -1.7170
10532TIP3   OH253010   5.095   2.758  15.543 -0.2831 -0.1526 -0.1232
10532TIP3    H153011   5.191   2.757  15.553 -0.2807 -3.3139  0.5322
10532TIP3    H253012   5.081   2.756  15.448  0.4066 -1.4237 -0.2307
10533TIP3   OH253013   5.878   6.646   3.620  0.1785  0.3105  0.5312
10533TIP3    H153014   5.963   6.607   3.641  1.0232  1.7013 -0.1425
10533TIP3    H253015   5.870   6.720   3.680 -0.6955  0.0488  0.7592
10534TIP3   OH253016   4.198   5.835  12.655 -0.2535  0.2570 -0.4416
10534TIP3    H153017   4.243   5.782  12.589 -0.0130  1.3373 -1.1607
10534TIP3    H253018   4.123   5.781  12.682  0.6055 -0.9332 -0.3193
10535TIP3   OH253019   1.653   4.523  13.667 -0.3325 -0.0896 -0.1857
10535TIP3    H153020   1.658   4.588  13.738  0.2233  1.5796 -1.6727
10535TIP3    H253021   1.559   4.508  13.655 -0.4740  0.4507  0.1932
10536TIP3   OH253022   4.018   2.265   0.425  0.4032  0.1418 -0.4458
10536TIP3    H153023   4.083   2.304   0.367 -0.2612 -0.3557 -1.5668
10536TIP3    H253024   3.936   2.270   0.376 -0.3578  0.4447  0.7944
10537TIP3   OH253025   3.556   3.701   2.751  0.2120 -0.0695 -0.5252
10537TIP3    H153026   3.481   3.645   2.770  0.8680 -0.4444  1.0856
10537TIP3    H253027   3.521   3.769   2.693 -0.7374 -1.7464 -1.9919
10538TIP3   OH253028   2.576   5.674   2.893  0.2555 -0.2804  0.2700
10538TIP3    H153029   2.496   5.633   2.860  1.2207 -1.5958 -0.5269
10538TIP3    H253030   2.615   5.715   2.816  1.3104 -1.3162  0.2239
10539TIP3   OH253031   4.877   4.303   1.002  1.0920  0.1589  0.1901
10539TIP3    H153032   4.905   4.388   1.035 -2.6156  1.8675 -0.4302
10539TIP3    H253033   4.803   4.279   1.057  0.4282 -1.3550 -1.2582
10540TIP3   OH253034   6.219   2.995   3.780  0.1115 -0.1403  0.1973
10540TIP3    H153035   6.165   2.972   3.705  0.5856  0.0848 -0.2157
10540TIP3    H253036   6.199   2.927   3.845 -0.9332  0.1386  0.1947
10541TIP3   OH253037   0.833   0.239   0.904  0.7173  0.4327 -0.3586
10541TIP3    H153038   0.920   0.218   0.869  0.6502 -1.8411  0.6701
10541TIP3    H253039   0.782   0.159   0.892  0.6074 -0.5310  4.5947
10542TIP3   OH253040   1.367   4.070   2.894  0.2457 -0.0431 -0.0454
10542TIP3    H153041   1.388   4.028   2.811 -2.6971 -0.8986 -0.4508
10542TIP3    H253042   1.411   4.155   2.890 -0.1192  0.0892 -2.6227
10543TIP3   OH253043   2.556   1.429  16.710  0.0669  0.6285 -0.0624
10543TIP3    H153044   2.602   1.362  16.658 -2.0153 -1.8277  1.0512
10543TIP3    H253045   2.621   1.456  16.775  1.2471  0.3605 -1.0827
10544TIP3   OH253046   6.240   1.087  13.983  0.0999 -0.7950 -0.2682
10544TIP3    H153047   6.283   1.128  14.058 -1.6340 -1.6761  1.2660
10544TIP3    H253048   6.254   1.148  13.911  0.9901  0.5312  0.9834
10545TIP3   OH253049   3.907   1.577   2.923  0.1907  0.2530 -0.4516
10545TIP3    H153050   3.949   1.654   2.960 -1.5744  0.1959  1.9155
10545TIP3    H253051   3.947   1.503   2.969 -1.9174  0.1717  1.4570
10546TIP3   OH253052   2.637   2.093  12.264 -0.3097  0.5373 -0.3407
10546TIP3    H153053   2.669   2.005  12.247  2.9498  1.3727  0.5741
10546TIP3    H253054   2.574   2.110  12.195 -0.2886 -2.1318 -1.1200
10547TIP3   OH253055   5.817   6.677  15.355 -0.4124  0.2570 -0.3165
10547TIP3    H153056   5.756   6.750  15.367  0.8389  1.2579  0.1370
10547TIP3    H253057   5.877   6.707  15.286  1.4543  0.6083  1.3592
10548TIP3   OH253058   5.270   2.650   3.189 -0.5771  0.3621  1.0845
10548TIP3    H153059   5.319   2.696   3.121  0.3811 -0.2325  1.3699
10548TIP3    H253060   5.238   2.720   3.246  0.0888  0.7431  1.0010
10549TIP3   OH253061   2.469   1.475   4.505 -0.2520  0.1413 -0.5662
10549TIP3    H153062   2.498   1.386   4.522  1.6427  0.9978  1.1491
10549TIP3    H253063   2.455   1.479   4.411 -1.2378 -2.1679 -0.5801
10550TIP3   OH253064   3.977   0.689  14.402 -0.5094  0.0969  0.3670
10550TIP3    H153065   3.965   0.644  14.486 -0.2244  0.0297  0.3709
10550TIP3    H253066   4.004   0.620  14.342  0.6997  0.4010  0.5512
10551TIP3   OH253067   3.809   4.134   5.319 -0.0592 -0.6038  0.0780
10551TIP3    H153068   3.892   4.121   5.273  0.7213  1.4697  0.8118
10551TIP3    H253069   3.821   4.214   5.370 -2.7606  0.2022 -0.3704
10552TIP3   OH253070   3.912   4.806   4.044 -0.0400 -0.0324  0.0514
10552TIP3    H153071   3.995   4.766   4.071  0.4800  1.3043  0.5000
10552TIP3    H253072   3.869   4.738   3.993  1.3966 -0.7103 -0.3120
10553TIP3   OH253073   6.413   3.668   5.649  0.0468 -0.0745  0.3423
10553TIP3    H153074   6.405   3.573   5.659 -0.9414  0.0511  0.8667
10553TIP3    H253075   6.461   3.696   5.727  0.2668 -0.1324  0.2285
10554TIP3   OH253076   0.852   1.673   2.665  0.6841  0.2392  0.3133
10554TIP3    H153077   0.847   1.629   2.580 -0.9776 -0.7491  0.8818
10554TIP3    H253078   0.850   1.766   2.643  0.5483  0.0029 -0.7451
10555TIP3   OH253079   0.668   5.075   1.105  0.0448 -0.0474 -0.4867
10555TIP3    H153080   0.740   5.099   1.047 -0.5064  0.6134 -0.9243
10555TIP3    H253081   0.677   4.981   1.117  2.0264  0.2596  0.9239
10556TIP3   OH253082   5.853   1.967   4.489  0.0247 -0.6205 -0.4352
10556TIP3    H153083   5.881   2.009   4.408  0.7896 -1.6540 -0.7286
10556TIP3    H253084   5.933   1.929   4.525 -0.3431 -0.3393  0.7129
10557TIP3   OH253085   5.061   6.753  13.879  0.3028 -0.2910 -0.0585
10557TIP3    H153086   5.006   6.715  13.948  1.0818 -2.7967 -0.7005
10557TIP3    H253087   5.070   6.683  13.814  3.4680  0.2993 -0.4347
10558TIP3   OH253088   6.429   4.603  15.724 -0.4467 -0.3957 -0.0113
10558TIP3    H153089   6.518   4.609  15.757 -1.1285  1.0749  1.7537
10558TIP3    H253090   6.431   4.643  15.638  0.7371 -1.1878 -0.3705
10559TIP3   OH253091   1.675   6.598   1.959  0.4563  0.0188  0.6326
10559TIP3    H153092   1.668   6.691   1.980 -1.5535  0.3741 -1.1905
10559TIP3    H253093   1.685   6.595   1.864 -2.6228 -1.5892  0.2175
10560TIP3   OH253094   5.652   5.126  16.793  0.5806  0.4834 -0.0936
10560TIP3    H153095   5.579   5.182  16.819 -0.1406  0.1625 -1.3480
10560TIP3    H253096   5.624   5.037  16.815  0.9155  0.4277  0.1177
10561TIP3   OH253097   1.940   0.298  15.547  0.1424 -0.3021 -0.2651
10561TIP3    H153098   2.017   0.289  15.603 -0.2500 -1.0088  0.1719
10561TIP3    H253099   1.876   0.237  15.584 -1.4191  1.8243  0.7459
10562TIP3   OH253100   0.816   0.232   4.069  0.5624 -0.3759 -0.0295
10562TIP3    H153101   0.791   0.311   4.117 -2.9482 -0.6186 -1.1905
10562TIP3    H253102   0.850   0.266   3.985 -0.9508 -0.0390 -0.5335
10563TIP3   OH253103   4.943   1.385  16.824  0.1389 -0.0112 -0.0060
10563TIP3    H153104   4.914   1.477  16.824  0.7175  0.1925 -0.9511
10563TIP3    H253105   4.884   1.341  16.885 -0.8226  0.7844 -0.3281
10564TIP3   OH253106   2.544   5.693   5.800 -0.7356 -0.4567 -0.3669
10564TIP3    H153107   2.636   5.680   5.825 -1.4567 -1.1411  2.2319
10564TIP3    H253108   2.549   5.731   5.713  2.0721  1.0829  0.3077
10565TIP3   OH253109   4.862   3.591   2.202  0.0951  0.1946 -0.2812
10565TIP3    H153110   4.885   3.609   2.110 -1.8228  0.1390 -0.8065
10565TIP3    H253111   4.844   3.677   2.239 -2.2461  0.0164 -0.8747
10566TIP3   OH253112   2.191   3.162  13.634  0.4182 -0.0861  0.0751
10566TIP3    H153113   2.182   3.082  13.583  0.3331 -0.3238  0.4615
10566TIP3    H253114   2.202   3.231  13.568  1.6646 -0.5514 -0.2201
10567TIP3   OH253115   4.993   2.952  12.019 -0.1948  0.3214  0.1344
10567TIP3    H153116   4.955   2.894  11.953 -3.4175  2.3934 -0.0171
10567TIP3    H253117   4.929   2.954  12.090  1.4203  1.1278  1.6704
10568TIP3   OH253118   1.040   5.637   4.450 -0.3772 -0.3941 -0.3072
10568TIP3    H153119   0.978   5.673   4.513  1.1522  0.3027  0.8821
10568TIP3    H253120   0.986   5.595   4.384 -2.1055  0.5354  0.4551
10569TIP3   OH253121   3.154   6.441  15.589 -0.9699 -0.2899  0.2575
10569TIP3    H153122   3.165   6.390  15.509 -0.3354  0.4596 -0.1523
10569TIP3    H253123   3.062   6.429  15.614 -1.2228 -0.3633 -0.6969
10570TIP3   OH253124   4.787   2.956  15.670 -0.5221  0.5626 -0.2392
10570TIP3    H153125   4.774   2.863  15.687  1.0355  0.4135  0.2571
10570TIP3    H253126   4.787   2.997  15.756 -1.0281  1.0111 -0.4447
10571TIP3   OH253127   6.159   4.997  16.556 -0.9455  0.7072  0.3872
10571TIP3    H153128   6.119   5.071  16.511 -0.6835  1.2068  0.9628
10571TIP3    H253129   6.099   4.977  16.627 -1.5233 -0.2923 -0.3608
10572TIP3   OH253130   6.485   2.511  12.047  0.2213 -0.1331 -0.5480
10572TIP3    H153131   6.552   2.479  12.107 -1.0006  0.9868  1.5221
10572TIP3    H253132   6.417   2.442  12.049  0.6356 -0.5906 -1.5189
10573TIP3   OH253133   1.432   6.570  12.015 -0.0367  0.4757 -0.1971
10573TIP3    H153134   1.357   6.512  12.028 -0.3363  1.1063  1.0761
10573TIP3    H253135   1.502   6.531  12.069 -0.0565  0.9610  0.1812
10574TIP3   OH253136   0.848   5.724  15.104 -0.3155 -0.3519  0.1539
10574TIP3    H153137   0.851   5.641  15.152 -0.2496 -1.2901 -1.3888
10574TIP3    H253138   0.924   5.773  15.134  1.0033 -1.8599 -0.6177
10575TIP3   OH253139   5.944   2.204   0.575 -0.5382  0.1637 -0.4670
10575TIP3    H153140   5.877   2.262   0.540 -0.5826  0.7680  0.5792
10575TIP3    H253141   5.954   2.230   0.666 -0.1506 -1.1010 -0.1171
10576TIP3   OH253142   2.594   3.663   0.649  0.0787  0.8339  0.6371
10576TIP3    H153143   2.584   3.575   0.614  1.2351  1.1703 -0.6162
10576TIP3    H253144   2.541   3.718   0.591 -0.2495  1.0402  1.1229
10577TIP3   OH253145   5.409   3.868  12.994  0.2745  0.1976 -0.2580
10577TIP3    H153146   5.418   3.906  13.081  0.1990  1.6711 -0.8643
10577TIP3    H253147   5.498   3.837  12.973  0.2818 -0.2143  0.3454
10578TIP3   OH253148   6.145   6.395   4.180  0.2916  0.0633 -0.0608
10578TIP3    H153149   6.123   6.355   4.264 -0.5879 -2.4224 -1.3498
10578TIP3    H253150   6.241   6.397   4.178  0.3524 -1.4545  0.3385
10579TIP3   OH253151   0.664   1.015   2.735 -0.6764 -0.0440 -0.3871
10579TIP3    H153152   0.749   1.004   2.693 -1.8113  1.0029 -3.1986
10579TIP3    H253153   0.655   0.939   2.792  1.8565 -0.4832 -0.4768
10580TIP3   OH253154   5.913   1.711   0.991 -0.1357  0.6617  0.6076
10580TIP3    H153155   5.947   1.777   1.051  0.6758  0.2410  0.6196
10580TIP3    H253156   5.969   1.634   1.004  1.0200  1.0160 -1.7149
10581TIP3   OH253157   6.402   4.301   5.367 -0.1047 -0.0591  0.7101
10581TIP3    H153158   6.492   4.328   5.351 -0.2023 -0.8874 -1.6066
10581TIP3    H253159   6.353   4.383   5.378  0.3093  0.6021 -1.8851
10582TIP3   OH253160   0.388   3.400   0.942  0.0286  0.2524  0.1406
10582TIP3    H153161   0.336   3.337   0.891 -1.6842  0.7065  1.2570
10582TIP3    H253162   0.332   3.477   0.949  0.9872  0.8809  1.1459
10583TIP3   OH253163   6.416   3.231  12.260 -0.3484 -0.4539 -0.0617
10583TIP3    H153164   6.474   3.294  12.305 -0.8832 -0.9741  1.4228
10583TIP3    H253165   6.370   3.283  12.195 -1.0996  0.8449  1.4266
10584TIP3   OH253166   0.943   2.180  14.166 -0.2911  0.1300 -0.2008
10584TIP3    H153167   1.033   2.198  14.192 -0.3031 -1.3781  1.0380
10584TIP3    H253168   0.892   2.251  14.205  0.3102  0.8433 -0.6854
10585TIP3   OH253169   2.881   1.489   4.450 -0.3041  0.7515  0.6368
10585TIP3    H153170   2.961   1.537   4.429 -0.6053  0.0056 -2.7933
10585TIP3    H253171   2.810   1.550   4.427 -0.6650 -0.5262 -2.1419
10586TIP3   OH253172   3.059   5.659  16.384 -0.0453 -0.1985 -0.2843
10586TIP3    H153173   3.134   5.606  16.358 -0.6593 -0.8831 -0.6987
10586TIP3    H253174   3.053   5.648  16.479  1.1422  0.8962 -0.0623
10587TIP3   OH253175   5.756   5.845  16.390  0.4547 -0.1720 -0.4300
10587TIP3    H153176   5.784   5.797  16.312 -1.3743 -0.0037 -1.2361
10587TIP3    H253177   5.736   5.777  16.455 -0.0273 -0.4039 -0.8202
10588TIP3   OH253178   4.262   5.582   6.061 -0.5175 -0.1717 -0.1628
10588TIP3    H153179   4.224   5.563   6.147  0.7684 -0.2702  0.4091
10588TIP3    H253180   4.327   5.513   6.048 -0.0338  0.3890 -0.7853
10589TIP3   OH253181   5.821   2.667  16.982 -0.0941 -0.4583  0.4076
10589TIP3    H153182   5.833   2.623  17.067 -0.9005 -3.5504 -0.9470
10589TIP3    H253183   5.903   2.650  16.935  0.4089  1.3736  0.5445
10590TIP3   OH253184   0.206   1.692   6.570  0.3583 -0.0432 -0.0788
10590TIP3    H153185   0.201   1.649   6.656 -0.9837 -1.6262 -0.8861
10590TIP3    H253186   0.124   1.741   6.563 -0.0621 -0.8242 -0.8720
10591TIP3   OH253187   3.266   1.852  11.394 -0.4498 -0.2343  0.4926
10591TIP3    H153188   3.321   1.906  11.451 -0.0119  1.1690 -1.1894
10591TIP3    H253189   3.302   1.763  11.404 -0.9033 -0.2181  2.9603
10592TIP3   OH253190   3.630   0.450   0.572  0.1014 -0.1577  0.2212
10592TIP3    H153191   3.540   0.424   0.590 -0.3245  1.0995 -0.0198
10592TIP3    H253192   3.626   0.545   0.558  1.4426 -0.0953  0.0991
10593TIP3   OH253193   5.008   2.470  13.645  0.2241  0.1522  0.0671
10593TIP3    H153194   4.982   2.477  13.737 -0.8890 -2.1281 -0.0188
10593TIP3    H253195   4.927   2.478  13.596  0.3136 -1.9713 -0.5023
10594TIP3   OH253196   0.730   3.423  10.771  0.2487  0.2129 -0.0141
10594TIP3    H153197   0.689   3.490  10.716 -1.0282 -0.7928 -0.3241
10594TIP3    H253198   0.658   3.383  10.820  0.1709 -3.7526 -2.8463
10595TIP3   OH253199   5.333   1.467   0.981 -0.3608 -0.1437  0.2399
10595TIP3    H153200   5.296   1.518   1.053  0.6521  1.7676 -0.5057
10595TIP3    H253201   5.424   1.453   1.007 -0.9341 -2.9516  1.0902
10596TIP3   OH253202   6.184   5.808  14.088  0.0256  0.7458  0.0021
10596TIP3    H153203   6.163   5.893  14.126 -1.1744  0.1108  0.8571
10596TIP3    H253204   6.279   5.809  14.077  0.3471  1.3168  2.2794
10597TIP3   OH253205   1.907   3.457  15.106  0.4387 -0.1160  0.0856
10597TIP3    H153206   1.909   3.539  15.156 -1.6851 -0.0707  0.1773
10597TIP3    H253207   1.819   3.422  15.120  0.6681 -1.4596 -1.4855
10598TIP3   OH253208   1.278   4.350   0.342 -0.8122  0.0704  0.1968
10598TIP3    H153209   1.299   4.283   0.278 -2.1719 -0.7651  0.5799
10598TIP3    H253210   1.293   4.433   0.297  2.7215 -0.3505  0.2707
10599TIP3   OH253211   0.055   5.024  14.114 -0.1181  0.2352 -0.3647
10599TIP3    H153212  -0.030   5.030  14.157  0.3141  1.5683  0.3644
10599TIP3    H253213   0.100   4.953  14.159 -1.0872 -0.9861 -1.2494
10600TIP3   OH253214   5.795   2.786  13.045 -0.1858  0.1795  0.4056
10600TIP3    H153215   5.724   2.795  13.108  0.2179  0.5452  0.8130
10600TIP3    H253216   5.754   2.806  12.960  0.1500  4.2284  0.9813
10601TIP3   OH253217   0.479   5.143  16.249  0.5598  0.0376 -0.6877
10601TIP3    H153218   0.421   5.111  16.319  2.2714 -0.3056  0.6541
10601TIP3    H253219   0.513   5.064  16.208 -0.0957  0.2393 -1.6519
10602TIP3   OH253220   3.161   1.665   5.376  0.6383 -0.2754  0.5611
10602TIP3    H153221   3.112   1.720   5.314  0.6878 -0.0487  0.7237
10602TIP3    H253222   3.101   1.652   5.449  0.2371 -1.3096  0.0628
10603TIP3   OH253223   3.240   5.217   3.429  0.1317 -0.2212  0.0611
10603TIP3    H153224   3.166   5.276   3.444 -0.2694 -0.7471  0.2133
10603TIP3    H253225   3.251   5.171   3.513  0.5502 -0.2416 -0.0018
10604TIP3   OH253226   0.294   1.144  15.826  0.5942  0.2704 -0.1973
10604TIP3    H153227   0.321   1.235  15.814 -1.3078  0.8648 -0.2931
10604TIP3    H253228   0.333   1.118  15.909  0.6068  1.4028  0.1669
10605TIP3   OH253229   0.405   1.144   2.746  0.0487 -0.0357 -0.3914
10605TIP3    H153230   0.491   1.103   2.735 -0.6025 -1.2958 -1.0143
10605TIP3    H253231   0.371   1.107   2.828 -0.2050 -0.1464 -0.5422
10606TIP3   OH253232   4.060   0.447  14.324 -0.3333  0.8323  0.1464
10606TIP3    H153233   4.143   0.439  14.371  0.8206 -0.5065 -1.9685
10606TIP3    H253234   3.998   0.398  14.378  0.6694  0.2734  0.8379
10607TIP3   OH253235   0.407   0.419   5.593 -0.6050 -0.0183 -0.1734
10607TIP3    H153236   0.404   0.324   5.590  3.3182 -0.2750 -1.0841
10607TIP3    H253237   0.404   0.447   5.502  1.1610  0.4409 -0.1391
10608TIP3   OH253238   2.988   0.212  12.437 -0.4239  0.4612  0.2946
10608TIP3    H153239   3.053   0.148  12.408 -0.5356  0.4462  0.0772
10608TIP3    H253240   2.904   0.171  12.419 -0.4998  0.1523  1.2983
10609TIP3   OH253241   3.612   0.328   6.259 -0.4620  0.3711  0.3722
10609TIP3    H153242   3.571   0.402   6.214 -1.4183 -2.0349 -3.0608
10609TIP3    H253243   3.542   0.288   6.310 -1.8602 -1.9097 -3.0439
10610TIP3   OH253244   0.033   3.094  11.634  0.0593 -0.2457  0.3673
10610TIP3    H153245   0.090   3.160  11.673 -0.2912 -0.0885  0.6235
10610TIP3    H253246   0.042   3.017  11.690 -1.3119  0.3434  1.4604
10611TIP3   OH253247   2.354   5.007  12.319  0.0181  0.1082 -0.1310
10611TIP3    H153248   2.282   5.068  12.301 -3.0584 -3.4043 -1.1974
10611TIP3    H253249   2.405   5.006  12.238 -0.6031  0.4638 -0.5436
10612TIP3   OH253250   4.490   1.807   3.095  0.3919  0.1952  0.5051
10612TIP3    H153251   4.401   1.776   3.112  0.2024 -0.2959 -1.1870
10612TIP3    H253252   4.484   1.903   3.101 -0.1326  0.1390  0.9042
10613TIP3   OH253253   6.375   2.242   5.894 -0.0389  0.3199  0.2195
10613TIP3    H153254   6.288   2.261   5.858 -0.8376 -3.6193 -0.4543
10613TIP3    H253255   6.364   2.250   5.988 -0.9042  0.6771  0.1017
10614TIP3   OH253256   0.729   2.611  16.152  1.0123  0.1600 -0.2200
10614TIP3    H153257   0.769   2.525  16.138 -0.1197 -0.2374 -1.2651
10614TIP3    H253258   0.712   2.644  16.064 -1.1557  0.1665  0.1388
10615TIP3   OH253259   0.194   5.518   1.279 -0.2621 -0.5015 -0.2061
10615TIP3    H153260   0.161   5.451   1.339  1.4915 -1.6359 -0.4122
10615TIP3    H253261   0.262   5.563   1.330 -0.5488  0.2773 -0.5040
10616TIP3   OH253262   4.788   0.700   2.942  0.3678  0.5807 -0.1945
10616TIP3    H153263   4.706   0.652   2.926  1.3575 -0.9007 -1.0004
10616TIP3    H253264   4.806   0.743   2.859  2.0139 -1.6888 -1.1193
10617TIP3   OH253265   1.188   3.381   2.276 -0.1003 -0.1118  0.6969
10617TIP3    H153266   1.127   3.391   2.349  1.3802 -2.1965  2.3300
10617TIP3    H253267   1.150   3.311   2.223 -1.1891  1.4195 -0.6331
10618TIP3   OH253268   4.455   3.559  16.238 -0.0443 -0.5203 -0.5738
10618TIP3    H153269   4.403   3.491  16.194  0.6540 -0.6344 -1.2487
10618TIP3    H253270   4.517   3.589  16.171  0.0029  0.4201 -0.1226
10619TIP3   OH253271   3.087   4.028  14.206 -0.1322  0.2484 -0.1777
10619TIP3    H153272   3.010   3.978  14.235  1.4470 -1.3865  1.4782
10619TIP3    H253273   3.158   3.963  14.202  1.3802  1.8596 -0.7600
10620TIP3   OH253274   3.324   1.198   1.314 -0.5976 -0.8100 -0.1317
10620TIP3    H153275   3.330   1.156   1.399  0.5478 -1.2632 -0.4127
10620TIP3    H253276   3.404   1.250   1.306  0.1725 -2.1275 -1.6049
10621TIP3   OH253277   4.773   1.568   2.649  0.0217  0.3413 -0.6455
10621TIP3    H153278   4.740   1.484   2.615 -1.4968  1.5220 -2.2717
10621TIP3    H253279   4.868   1.556   2.654 -0.1890 -1.6305 -0.3135
10622TIP3   OH253280   3.349   4.295   2.186 -0.0633  0.2077 -0.0180
10622TIP3    H153281   3.318   4.261   2.102 -1.7162 -0.5464  0.8651
10622TIP3    H253282   3.367   4.217   2.239  0.2466  0.6857  0.5968
10623TIP3   OH253283   3.692   5.134   1.652  0.1930  0.2499 -0.3026
10623TIP3    H153284   3.633   5.074   1.607  0.8176 -1.1128  0.6508
10623TIP3    H253285   3.665   5.130   1.744  1.7341 -0.3991  0.1511
10624TIP3   OH253286   4.398   1.179  15.441  0.3976  0.0051 -0.1371
10624TIP3    H153287   4.421   1.123  15.516 -0.3605 -0.8615 -0.5334
10624TIP3    H253288   4.306   1.159  15.424 -0.8055  3.3854  1.4369
10625TIP3   OH253289   1.953   0.223   4.507  0.0886  0.2538 -0.4470
10625TIP3    H153290   1.988   0.177   4.583 -0.8854  0.1446 -0.0537
10625TIP3    H253291   2.028   0.233   4.448  0.5879 -0.7084  0.0139
10626TIP3   OH253292   0.604   2.276   1.193 -0.5236 -0.0583 -0.4917
10626TIP3    H153293   0.522   2.227   1.196 -1.2946  1.2233 -0.2664
10626TIP3    H253294   0.601   2.322   1.109 -0.3501  0.5228 -0.1817
10627TIP3   OH253295   6.367   4.529   0.888  0.3151 -0.1941 -0.0780
10627TIP3    H153296   6.310   4.523   0.965  1.8627  0.8688  1.1912
10627TIP3    H253297   6.340   4.454   0.833 -1.4114 -0.4659  1.0493
10628TIP3   OH253298   3.054   1.292  12.993  0.0498 -0.5023  0.1389
10628TIP3    H153299   3.108   1.347  13.050 -0.5356  1.0058 -0.7009
10628TIP3    H253300   3.106   1.284  12.913 -1.0003  1.1708 -0.7716
10629TIP3   OH253301   5.587   2.385  10.980 -1.0573 -0.0019  0.1693
10629TIP3    H153302   5.542   2.300  10.979  0.9638 -1.1356  0.7459
10629TIP3    H253303   5.618   2.397  10.890 -2.2332  0.6586 -0.1667
10630TIP3   OH253304   0.916   5.316  11.662 -0.3112 -0.1205 -0.0934
10630TIP3    H153305   0.998   5.282  11.698 -0.0040  1.6849  1.0251
10630TIP3    H253306   0.938   5.403  11.629 -1.5272 -0.0874 -0.8994
10631TIP3   OH253307   5.335   5.113  11.935 -0.2879 -0.6259  0.8869
10631TIP3    H153308   5.289   5.130  12.016 -0.0770 -2.3339  1.4045
10631TIP3    H253309   5.423   5.150  11.948 -1.2822  2.3525  0.0114
10632TIP3   OH253310   0.375   2.222  11.625  0.3278  0.5696 -0.0497
10632TIP3    H153311   0.426   2.287  11.674 -0.5256 -0.2372  2.0242
10632TIP3    H253312   0.337   2.272  11.553  0.1947  2.2571  1.1066
10633TIP3   OH253313   3.325   6.323   3.772 -0.3382 -0.5358  0.6119
10633TIP3    H153314   3.417   6.350   3.776 -0.5788  1.2280 -2.5258
10633TIP3    H253315   3.326   6.238   3.728 -0.2009 -1.1515  1.7480
10634TIP3   OH253316   0.858   1.160   5.069 -0.1015 -0.2345 -0.1886
10634TIP3    H153317   0.903   1.245   5.065  0.5471 -0.5495  0.3738
10634TIP3    H253318   0.872   1.122   4.982 -0.3863  0.2212 -0.4416
10635TIP3   OH253319   5.495   5.937   4.363  0.2365  0.3479  0.3975
10635TIP3    H153320   5.478   5.846   4.338  0.6537 -0.0011  1.3245
10635TIP3    H253321   5.444   5.989   4.301 -0.7275 -0.5423  0.4198
10636TIP3   OH253322   2.846   2.257   5.924 -0.1277 -0.3100 -0.1544
10636TIP3    H153323   2.780   2.299   5.869  0.9556  0.9199 -0.5517
10636TIP3    H253324   2.831   2.163   5.911 -0.8887 -0.0491 -1.3296
10637TIP3   OH253325   6.358   0.964  15.437 -0.1803 -0.1998 -0.1285
10637TIP3    H153326   6.354   1.034  15.372  1.7652  1.2222  1.1590
10637TIP3    H253327   6.449   0.933  15.434 -0.5781 -1.5142  0.5001
10638TIP3   OH253328   3.125   2.550  13.551 -0.0157 -0.1756  0.4758
10638TIP3    H153329   3.078   2.467  13.538  0.9729 -0.7874  0.7600
10638TIP3    H253330   3.081   2.611  13.492 -1.2032 -0.7206  0.7664
10639TIP3   OH253331   3.085   0.271   3.239 -0.4632 -0.3578  0.2103
10639TIP3    H153332   3.149   0.207   3.270 -0.5385  0.0411  1.2411
10639TIP3    H253333   3.018   0.219   3.195 -0.0815 -0.8980  0.2626
10640TIP3   OH253334   1.561   5.937  13.268 -0.6423  0.3030  0.4981
10640TIP3    H153335   1.593   5.851  13.296 -0.1426 -0.3186 -1.7786
10640TIP3    H253336   1.466   5.926  13.259 -0.6544  0.1684  0.7864
10641TIP3   OH253337   3.459   3.169  15.928 -0.0296 -0.2820 -0.2738
10641TIP3    H153338   3.397   3.231  15.967 -1.7504 -0.5212 -2.4546
10641TIP3    H253339   3.477   3.106  15.998 -0.4033  1.1036  1.1216
10642TIP3   OH253340   0.811   3.360   5.549 -0.4073 -0.3294  0.4535
10642TIP3    H153341   0.863   3.433   5.516 -1.3818  0.1060 -0.1576
10642TIP3    H253342   0.865   3.321   5.618  0.6223  0.2419 -0.0072
10643TIP3   OH253343   0.342   0.667  13.796 -0.1265  0.4629  0.1101
10643TIP3    H153344   0.337   0.755  13.833 -1.1422  0.1460  0.7595
10643TIP3    H253345   0.273   0.664  13.730  0.7672  0.5634 -0.8640
10644TIP3   OH253346   2.817   0.497  13.409  0.3871  0.5022  0.0369
10644TIP3    H153347   2.880   0.455  13.351  1.8412  2.3350  0.2202
10644TIP3    H253348   2.859   0.578  13.437 -0.8780  0.4037  2.4852
10645TIP3   OH253349   0.171   1.970  16.105  0.2389 -0.1384  0.0137
10645TIP3    H153350   0.091   1.959  16.156  0.1592 -0.1532 -0.1133
10645TIP3    H253351   0.212   2.049  16.141 -0.0150  0.0765 -0.1574
10646TIP3   OH253352   3.148   3.287   2.817  0.5679 -0.4809 -0.0730
10646TIP3    H153353   3.172   3.376   2.794  0.5651 -0.7262 -1.0875
10646TIP3    H253354   3.065   3.271   2.772 -0.0515 -0.6070  1.0654
10647TIP3   OH253355   5.031   0.673   4.098 -0.1553 -0.6456  0.6263
10647TIP3    H153356   5.017   0.727   4.176 -1.8820 -0.2107  0.0501
10647TIP3    H253357   4.953   0.686   4.045  0.7765 -1.2946 -0.9858
10648TIP3   OH253358   0.937   2.468  16.413  0.7222  0.0851 -0.0553
10648TIP3    H153359   1.001   2.410  16.372 -0.9761 -1.2833 -0.8505
10648TIP3    H253360   0.872   2.409  16.452  1.1515  1.3604  2.8782
10649TIP3   OH253361   4.443   0.801  16.116  0.3428 -0.1343  0.7107
10649TIP3    H153362   4.407   0.732  16.059  0.7000 -1.0629  1.5831
10649TIP3    H253363   4.524   0.828  16.072 -0.3925  0.5739 -0.2444
10650TIP3   OH253364   4.425   4.549  12.772  0.2142  0.0778 -0.3447
10650TIP3    H153365   4.516   4.574  12.754  0.3075 -0.7358 -1.0470
10650TIP3    H253366   4.398   4.609  12.842  1.9237 -0.9301  1.2871
10651TIP3   OH253367   2.946   4.802   5.437  0.3829 -0.6001 -0.2155
10651TIP3    H153368   2.896   4.878   5.409 -1.3144 -1.0026  1.4788
10651TIP3    H253369   3.010   4.836   5.499  0.9877 -0.3189 -0.9833
10652TIP3   OH253370   4.249   3.673  12.583  0.1702  0.4862 -0.2470
10652TIP3    H153371   4.289   3.721  12.511  1.0241  2.0423  1.1903
10652TIP3    H253372   4.317   3.613  12.614  0.4599  1.1377  0.4125
10653TIP3   OH253373   4.068   2.130  16.815  0.5416 -0.2036  0.3305
10653TIP3    H153374   4.074   2.184  16.893 -0.3853  0.1106  0.1937
10653TIP3    H253375   4.104   2.046  16.841 -0.4651 -0.3447  1.3344
10654TIP3   OH253376   5.623   3.821   0.582 -0.1526  0.2394 -0.3189
10654TIP3    H153377   5.638   3.845   0.491  1.7645 -0.9552 -0.3807
10654TIP3    H253378   5.544   3.869   0.607 -0.8593  0.4126 -2.6570
10655TIP3   OH253379   0.045   4.453   6.507 -0.2713  0.0302 -0.5229
10655TIP3    H153380   0.037   4.489   6.418 -1.1107  0.6999 -0.1834
10655TIP3    H253381  -0.016   4.505   6.560  0.6693  0.0646  0.5805
10656TIP3   OH253382   4.547   1.984   1.560  0.0962  0.8464 -0.6587
10656TIP3    H153383   4.520   2.029   1.640 -0.7312 -1.3528  0.3788
10656TIP3    H253384   4.642   1.975   1.569 -0.0772 -0.0425  0.4762
10657TIP3   OH253385   3.286   6.461  11.390 -0.8565 -0.1149 -0.2449
10657TIP3    H153386   3.262   6.550  11.417 -1.5146  0.1593 -1.6592
10657TIP3    H253387   3.331   6.425  11.467  0.5564  1.8436 -0.0498
10658TIP3   OH253388   3.543   2.856  11.071  0.0717  0.0662 -0.1849
10658TIP3    H153389   3.544   2.880  11.163  0.5016 -2.0494  0.4166
10658TIP3    H253390   3.612   2.790  11.062 -0.7650 -0.6755 -1.7482
10659TIP3   OH253391   1.054   4.256  14.915 -0.0468  0.0667  0.5433
10659TIP3    H153392   1.144   4.234  14.937  0.5764  0.5807 -1.2695
10659TIP3    H253393   1.001   4.192  14.962  1.3230 -0.8830  0.8469
10660TIP3   OH253394   4.447   2.894  11.302  0.2463 -0.2735  0.2814
10660TIP3    H153395   4.358   2.928  11.317  0.0729 -0.7720  0.3878
10660TIP3    H253396   4.491   2.964  11.254 -0.1202  0.0928  0.4654
10661TIP3   OH253397   0.921   3.244   5.770 -0.1810  0.5988 -0.3441
10661TIP3    H153398   0.948   3.198   5.849 -2.2144 -1.0997 -0.5602
10661TIP3    H253399   0.995   3.233   5.710  0.9575  1.0121  0.9065
10662TIP3   OH253400   1.335   1.642   4.815  0.6152 -0.5311 -0.3080
10662TIP3    H153401   1.392   1.700   4.765 -0.2533 -0.4479 -1.2454
10662TIP3    H253402   1.295   1.585   4.749 -0.3348 -0.6208  0.3199
10663TIP3   OH253403   0.155   0.910  16.107  0.0056  0.1485  0.4451
10663TIP3    H153404   0.160   0.846  16.036 -0.5514  0.8876 -0.2839
10663TIP3    H253405   0.242   0.949  16.110 -0.4196  1.3103 -1.0099
10664TIP3   OH253406   4.043   5.306   5.317  0.2188 -0.2168 -0.3923
10664TIP3    H153407   4.016   5.348   5.399  0.1069 -0.3165 -0.3772
10664TIP3    H253408   4.130   5.271   5.336 -0.1856 -1.0565 -0.0147
10665TIP3   OH253409   0.271   0.746  12.024  0.3528  0.1618  0.2596
10665TIP3    H153410   0.294   0.726  12.115  0.5517  0.8224  0.3660
10665TIP3    H253411   0.350   0.787  11.988  0.3723 -0.3509 -0.2977
10666TIP3   OH253412   3.431   2.764  15.736 -0.5805 -0.3866 -0.3881
10666TIP3    H153413   3.373   2.690  15.719 -0.5539  0.0658 -2.8574
10666TIP3    H253414   3.374   2.841  15.731 -0.2147 -0.0914 -0.1515
10667TIP3   OH253415   3.524   0.101  16.632 -0.4414  0.1739 -0.4027
10667TIP3    H153416   3.552   0.192  16.620  0.1928 -0.0001 -0.2962
10667TIP3    H253417   3.446   0.092  16.577  0.8380  0.1292 -2.2851
10668TIP3   OH253418   3.939   5.007   5.893 -0.1438  0.1585  0.1269
10668TIP3    H153419   3.868   4.999   5.830  0.6655  0.7321 -0.8734
10668TIP3    H253420   3.995   5.076   5.859  1.0648 -0.4869  0.7296
10669TIP3   OH253421   6.562   0.505  12.695  0.1064 -0.2866  0.1644
10669TIP3    H153422   6.633   0.463  12.647 -2.1175 -2.6177 -1.4139
10669TIP3    H253423   6.572   0.474  12.785  2.5530  1.6654  0.6831
10670TIP3   OH253424   2.108   0.561   2.798  0.1363 -0.3873  0.2091
10670TIP3    H153425   2.123   0.480   2.847 -1.8313 -1.6054 -1.0447
10670TIP3    H253426   2.060   0.617   2.858 -0.6575 -1.1431  0.2921
10671TIP3   OH253427   6.746   1.193   3.325 -0.0660  0.8478 -0.2161
10671TIP3    H153428   6.786   1.261   3.272 -1.1324  1.1113 -0.7270
10671TIP3    H253429   6.723   1.237   3.407 -1.6557  1.4229 -0.9118
10672TIP3   OH253430   4.702   1.808  15.669  0.2243  0.2294  0.6940
10672TIP3    H153431   4.743   1.800  15.755  1.4932  0.3552  0.1267
10672TIP3    H253432   4.733   1.891  15.635 -2.3054  1.4439  1.1190
10673TIP3   OH253433   5.091   2.078  15.752  0.2263 -0.2149 -0.1983
10673TIP3    H153434   5.023   2.015  15.729  1.0022 -0.5986 -1.5643
10673TIP3    H253435   5.165   2.054  15.696  1.3036  0.5244  0.8681
10674TIP3   OH253436   3.821   2.559  10.641  0.0493 -0.0353 -0.3290
10674TIP3    H153437   3.728   2.536  10.652  0.3373 -1.2487 -0.2531
10674TIP3    H253438   3.867   2.476  10.652  1.0830  0.3900 -1.2509
10675TIP3   OH253439   3.453   6.289  12.221 -0.2688  0.1117 -0.0851
10675TIP3    H153440   3.377   6.335  12.259  1.7243  2.4826  1.3164
10675TIP3    H253441   3.471   6.335  12.139  0.2325  0.2227  0.0833
10676TIP3   OH253442   2.281   2.396   6.451 -0.3955  0.5365 -0.2351
10676TIP3    H153443   2.326   2.458   6.395  1.4379 -0.9716 -0.5322
10676TIP3    H253444   2.349   2.361   6.509 -1.4376 -0.8810  0.2038
10677TIP3   OH253445   0.970   3.678  14.545  0.8582 -0.5328  0.0515
10677TIP3    H153446   0.932   3.756  14.504  0.8750  0.5756  2.0291
10677TIP3    H253447   0.896   3.628  14.578  0.9258 -0.4087  0.3973
10678TIP3   OH253448   4.719   3.321  12.546  0.6346  0.4334  0.1358
10678TIP3    H153449   4.628   3.318  12.574  0.2666  1.2434 -0.9217
10678TIP3    H253450   4.759   3.391  12.599  0.1266  1.4587 -0.8080
10679TIP3   OH253451   2.416   2.656  14.278 -0.0403  0.4327  0.5617
10679TIP3    H153452   2.476   2.613  14.216  0.8984  0.2958  1.5455
10679TIP3    H253453   2.351   2.699  14.222  0.0887 -0.6746 -0.4971
10680TIP3   OH253454   6.451   0.171  13.771 -0.2238  0.3962 -0.0417
10680TIP3    H153455   6.495   0.154  13.854 -1.0242 -0.2587  0.2553
10680TIP3    H253456   6.363   0.198  13.794 -0.1895  1.0807 -0.6595
10681TIP3   OH253457   0.442   0.576   4.641 -0.9186  0.6657  0.4459
10681TIP3    H153458   0.451   0.595   4.734 -1.4446  1.5238  0.3357
10681TIP3    H253459   0.362   0.622   4.615  0.7897  3.0319 -1.0606
10682TIP3   OH253460   5.053   2.380   1.825  0.7335 -0.0735  0.0466
10682TIP3    H153461   5.074   2.290   1.800 -1.7885 -0.9832  0.8854
10682TIP3    H253462   5.020   2.421   1.745 -0.1144 -0.5731  0.1369
10683TIP3   OH253463   3.210   6.179   2.715 -0.3555 -0.5220 -0.5861
10683TIP3    H153464   3.164   6.146   2.638  0.4227 -1.3146 -0.7229
10683TIP3    H253465   3.298   6.199   2.685 -0.4459  0.5296 -0.2130
10684TIP3   OH253466   1.313   2.115  13.561 -0.3840  0.4788  0.1435
10684TIP3    H153467   1.401   2.078  13.555 -0.7128 -0.7392  1.9211
10684TIP3    H253468   1.325   2.209  13.543  1.0830  0.1516 -0.7180
10685TIP3   OH253469   3.959   5.136  11.429 -0.2589 -0.3405  1.0921
10685TIP3    H153470   3.865   5.143  11.412 -0.1386  2.4496  1.1510
10685TIP3    H253471   4.000   5.150  11.344  0.1347 -1.3617  1.1024
10686TIP3   OH253472   0.761   4.438  11.719 -0.0323 -0.1823  0.2897
10686TIP3    H153473   0.840   4.392  11.747 -0.7214 -1.0693  0.8326
10686TIP3    H253474   0.693   4.370  11.717 -0.7384  0.5195 -0.3696
10687TIP3   OH253475   2.586   2.269  14.122 -0.4993 -0.3143 -0.0709
10687TIP3    H153476   2.662   2.219  14.094  0.9587  1.6965  0.0998
10687TIP3    H253477   2.585   2.259  14.218  1.3800  1.9980  0.2648
10688TIP3   OH253478   0.356   5.623   1.465  0.1197  0.8792  0.3943
10688TIP3    H153479   0.438   5.573   1.466  0.0418  0.6445 -1.7032
10688TIP3    H253480   0.384   5.715   1.474  0.4908  0.7085  1.0614
10689TIP3   OH253481   1.640   6.353   2.617 -0.3005 -0.3939 -0.0737
10689TIP3    H153482   1.638   6.264   2.581  1.1293 -0.8006  0.7850
10689TIP3    H253483   1.579   6.402   2.562 -1.0973 -1.8918 -0.5819
10690TIP3   OH253484   4.462   2.899  15.731 -0.1851 -0.1675  0.2197
10690TIP3    H153485   4.515   2.978  15.744  1.8114 -1.5324  0.8260
10690TIP3    H253486   4.373   2.932  15.721  0.5846  2.1669  0.3270
10691TIP3   OH253487   5.355   2.204   1.539  0.0092  0.4244  0.2708
10691TIP3    H153488   5.381   2.119   1.573  0.5893 -0.0235 -1.2008
10691TIP3    H253489   5.261   2.211   1.559  0.4633  0.5615  2.5880
10692TIP3   OH253490   3.462   5.385  13.630 -0.5554  0.3383 -0.1493
10692TIP3    H153491   3.484   5.298  13.598  0.4293  0.1600  0.9560
10692TIP3    H253492   3.547   5.429  13.641 -1.0679  1.7965 -1.6110
10693TIP3   OH253493   3.370   3.402  14.981  0.5129 -0.7677 -0.0580
10693TIP3    H153494   3.426   3.433  15.052  1.5363 -3.0127  0.2156
10693TIP3    H253495   3.319   3.330  15.019 -1.0134 -0.1800 -0.8801
10694TIP3   OH253496   3.043   2.289   0.812  0.0561 -0.3856 -0.0216
10694TIP3    H153497   2.997   2.224   0.865  1.5502 -1.4172  0.0797
10694TIP3    H253498   3.057   2.246   0.727  0.0583  0.2256 -0.3372
10695TIP3   OH253499   4.553   6.298   2.927  0.7158 -0.3304  0.8377
10695TIP3    H153500   4.637   6.252   2.938 -0.1579 -2.5151 -0.9072
10695TIP3    H253501   4.514   6.295   3.014  2.4645  0.8672  1.7268
10696TIP3   OH253502   5.835   1.783  10.782 -0.1870 -0.1673 -0.0782
10696TIP3    H153503   5.931   1.775  10.779 -0.2636 -0.7275 -1.8435
10696TIP3    H253504   5.803   1.717  10.721 -1.7068  0.2671  0.1995
10697TIP3   OH253505   5.017   2.247  13.181 -0.3461 -0.2792  0.1406
10697TIP3    H153506   5.021   2.180  13.248 -0.6774  0.0945  0.5362
10697TIP3    H253507   4.942   2.223  13.127  0.3944 -1.0335 -0.5975
10698TIP3   OH253508   2.598   0.870   5.765 -0.1190 -0.2802 -0.4938
10698TIP3    H153509   2.636   0.854   5.851  2.2410 -2.2625 -1.7848
10698TIP3    H253510   2.590   0.965   5.759 -0.0492 -0.0836  1.7357
10699TIP3   OH253511   4.829   3.861  11.089  0.5445 -0.2566  0.3696
10699TIP3    H153512   4.819   3.923  11.017 -0.4340 -0.1780  0.5555
10699TIP3    H253513   4.758   3.798  11.076 -0.6527  0.6517  2.1425
10700TIP3   OH253514   2.382   6.641  15.084  0.4368 -0.2230 -0.2684
10700TIP3    H153515   2.369   6.724  15.037 -2.0814 -0.4479 -0.1203
10700TIP3    H253516   2.467   6.610  15.054  0.3784  1.2538 -2.1839
10701TIP3   OH253517   3.760   6.481  14.979  0.2937  0.2805 -0.2448
10701TIP3    H153518   3.673   6.458  15.013  0.8388  0.2339  1.2225
10701TIP3    H253519   3.747   6.562  14.930 -0.4310  0.8130  0.7873
10702TIP3   OH253520   4.996   5.257  11.473  0.4142 -0.5633 -0.1884
10702TIP3    H153521   5.022   5.344  11.443  0.3439 -0.7109 -0.6824
10702TIP3    H253522   5.073   5.225  11.522  0.7749 -0.5852 -0.7650
10703TIP3   OH253523   0.448   1.731   3.367  0.3910 -0.0021 -0.0118
10703TIP3    H153524   0.354   1.733   3.349  0.2232 -2.9717 -0.0092
10703TIP3    H253525   0.454   1.731   3.463  0.6375  3.2476  0.0667
10704TIP3   OH253526   0.748   4.829   0.070  0.0882 -0.3293  0.2066
10704TIP3    H153527   0.822   4.818   0.011 -0.2079  0.0510 -0.2414
10704TIP3    H253528   0.698   4.901   0.032 -0.1267 -0.1087  0.8975
10705TIP3   OH253529   3.238   6.293   2.260  0.2535 -0.5239 -0.5486
10705TIP3    H153530   3.296   6.348   2.313  0.6020 -0.8712 -0.5663
10705TIP3    H253531   3.284   6.282   2.177  0.1591 -0.7977 -0.5660
10706TIP3   OH253532   3.890   2.008   4.521 -0.4454  0.2453 -0.6971
10706TIP3    H153533   3.977   1.968   4.521 -1.5877 -2.4924 -0.8469
10706TIP3    H253534   3.860   1.999   4.611 -0.8993  0.3180 -0.8385
10707TIP3   OH253535   5.683   5.218  13.085  0.1471  0.0365  0.4833
10707TIP3    H153536   5.769   5.181  13.103  0.3464 -1.4503 -2.9263
10707TIP3    H253537   5.622   5.145  13.095 -0.3535  0.4117  0.2350
10708TIP3   OH253538   2.758   2.998  13.736  0.4109  0.1388 -0.2967
10708TIP3    H153539   2.760   3.076  13.790  0.4197  0.4362 -0.7181
10708TIP3    H253540   2.801   2.931  13.788  2.4539  0.9824 -0.7850
10709TIP3   OH253541   5.528   4.974  13.134 -0.9753  0.3665 -0.5785
10709TIP3    H153542   5.533   4.921  13.054 -0.3058  3.2513 -2.6220
10709TIP3    H253543   5.453   4.938  13.181 -0.6371 -2.2505 -1.8551
10710TIP3   OH253544   0.757   5.929  11.807  0.5231  0.1734  0.7953
10710TIP3    H153545   0.707   5.848  11.813 -0.3310  0.5004 -1.1119
10710TIP3    H253546   0.744   5.972  11.892  1.1401 -1.7126  1.9063
10711TIP3   OH253547   6.280   4.983  15.080  0.5050  0.0307 -0.2962
10711TIP3    H153548   6.364   4.963  15.039  0.0519 -1.8173 -0.4450
10711TIP3    H253549   6.244   4.897  15.103 -0.7592  0.8489  0.9518
10712TIP3   OH253550   4.364   3.652  14.023  0.1532  0.2725  0.5733
10712TIP3    H153551   4.435   3.589  14.011  0.6802  1.0235 -0.4668
10712TIP3    H253552   4.404   3.737  14.007 -1.4497  0.5759 -2.6396
10713TIP3   OH253553   2.697   1.197  16.620  0.1528  0.0312  0.1955
10713TIP3    H153554   2.789   1.225  16.617  0.1395  0.3203  1.6824
10713TIP3    H253555   2.685   1.164  16.709 -0.8160 -1.3682 -0.4129
10714TIP3   OH253556   5.070   2.584   4.970  0.0229  0.4085  0.0859
10714TIP3    H153557   5.115   2.640   4.907  1.1317 -1.0314 -0.4615
10714TIP3    H253558   4.994   2.635   4.998  1.8870  2.8951  0.9490
10715TIP3   OH253559   1.378   0.946   1.889 -0.2387  0.6794 -0.1271
10715TIP3    H153560   1.285   0.966   1.902  0.1505  2.4343  0.2858
10715TIP3    H253561   1.396   0.875   1.951 -1.2564  0.4361 -0.0862
10716TIP3   OH253562   2.888   2.962  15.482  0.1555 -0.2117 -0.0393
10716TIP3    H153563   2.940   2.994  15.555 -0.4159 -0.4359  0.4737
10716TIP3    H253564   2.823   2.905  15.522 -2.2738  2.1740 -0.3285
10717TIP3   OH253565   2.006   1.132  13.461 -0.2676 -0.1338  0.0327
10717TIP3    H153566   2.039   1.219  13.480 -1.3617  0.2884  0.1069
10717TIP3    H253567   1.981   1.097  13.546 -2.1216  0.4743 -0.2071
10718TIP3   OH253568   3.642   2.406   0.020 -0.7471 -0.7178 -0.3707
10718TIP3    H153569   3.644   2.424   0.114 -1.0928 -0.7509 -0.3572
10718TIP3    H253570   3.729   2.372   0.001 -0.3730  0.1326 -0.2304
10719TIP3   OH253571   6.341   3.011  14.483 -0.0197 -0.1057  0.2726
10719TIP3    H153572   6.365   2.976  14.569  0.8207  0.9356  0.4797
10719TIP3    H253573   6.418   2.997  14.428  0.8783  2.4877  0.7096
10720TIP3   OH253574   4.425   3.891   1.911  0.2954  0.0452 -0.6468
10720TIP3    H153575   4.395   3.959   1.850  1.1186  1.0207 -0.0124
10720TIP3    H253576   4.444   3.939   1.992 -0.5095 -1.1731  0.3117
10721TIP3   OH253577   6.612   6.373  13.629 -0.1988  0.3309  0.0379
10721TIP3    H153578   6.697   6.387  13.589 -0.4098  0.0042 -0.5370
10721TIP3    H253579   6.553   6.430  13.581 -0.4492 -0.0403 -0.1010
10722TIP3   OH253580   0.043   3.657   1.223  0.4426  0.5907 -0.3476
10722TIP3    H153581  -0.041   3.701   1.238  0.9221  1.5715 -0.4507
10722TIP3    H253582   0.024   3.592   1.155 -0.1371  1.0876 -0.6726
10723TIP3   OH253583   5.700   1.056   0.269  0.4648  0.5893 -0.1272
10723TIP3    H153584   5.705   0.981   0.328 -0.7510  0.5496 -0.0465
10723TIP3    H253585   5.769   1.041   0.205  0.2270 -0.6067 -0.1216
10724TIP3   OH253586   6.340   1.954   3.401  0.1758  0.1758 -0.0723
10724TIP3    H153587   6.248   1.978   3.403  0.5449  1.7677 -0.7628
10724TIP3    H253588   6.360   1.945   3.307  1.4944  3.2782 -0.2046
10725TIP3   OH253589   5.785   3.734   0.930  0.2624 -0.0059 -1.0489
10725TIP3    H153590   5.739   3.809   0.893 -0.5644 -0.3583 -0.7569
10725TIP3    H253591   5.839   3.701   0.859  0.9558  1.1142 -1.0603
10726TIP3   OH253592   5.750   3.751   5.890 -0.2552 -0.2673 -0.3557
10726TIP3    H153593   5.727   3.726   5.979 -1.1277  0.8639 -0.2413
10726TIP3    H253594   5.786   3.839   5.899 -1.6999  0.4483 -1.2689
10727TIP3   OH253595   4.102   2.586   4.998  0.1609  0.4366 -0.3472
10727TIP3    H153596   4.041   2.513   4.990  0.3742  0.3834 -1.6263
10727TIP3    H253597   4.079   2.628   5.082 -3.2124  1.8496 -1.8058
10728TIP3   OH253598   1.460   5.772  16.074 -0.3647  0.2505 -0.6170
10728TIP3    H153599   1.434   5.755  15.984  1.0731 -0.3561 -0.9503
10728TIP3    H253600   1.432   5.862  16.091 -3.7314 -0.7016 -0.4768
10729TIP3   OH253601   6.591   1.151   0.464 -0.5008  0.7947  0.1323
10729TIP3    H153602   6.594   1.056   0.454  2.6688  0.6791  1.2521
10729TIP3    H253603   6.668   1.172   0.516 -1.6680  3.9140  0.7941
10730TIP3   OH253604   4.916   4.931  17.219 -0.1519  0.1168 -0.2425
10730TIP3    H153605   4.903   4.871  17.293  0.2467 -0.1274 -0.3686
10730TIP3    H253606   4.868   4.890  17.147  0.2381 -0.1261 -0.3676
10731TIP3   OH253607   3.290   2.960   5.578  0.1953  0.5967 -1.1243
10731TIP3    H153608   3.259   2.881   5.621  1.0548  0.5188 -0.6106
10731TIP3    H253609   3.295   3.025   5.648  1.5102  0.5014 -1.0996
10732TIP3   OH253610   0.357   6.323   0.232  0.1453  0.0124 -0.0468
10732TIP3    H153611   0.431   6.291   0.283 -0.1843 -0.3400  0.2139
10732TIP3    H253612   0.283   6.269   0.259 -0.1137  0.0574 -0.6327
10733TIP3   OH253613   5.617   5.847   3.905  0.5296 -0.2462  0.0143
10733TIP3    H153614   5.673   5.892   3.842 -0.1560  0.0920 -0.3651
10733TIP3    H253615   5.630   5.894   3.987  2.5109 -1.5539  0.5171
10734TIP3   OH253616   5.832   5.997   1.038  0.5548 -0.4066  0.4548
10734TIP3    H153617   5.801   6.086   1.022  3.4002  0.4158 -1.3852
10734TIP3    H253618   5.878   5.973   0.957  0.8495 -3.1227  1.3130
10735TIP3   OH253619   2.862   3.308  12.731  0.5616 -0.3633 -0.2009
10735TIP3    H153620   2.890   3.219  12.750  0.6541 -0.6578 -1.5772
10735TIP3    H253621   2.767   3.305  12.736  0.5511 -0.6158 -0.4882
10736TIP3   OH253622   3.104   3.779  13.763 -0.2247 -0.5821 -0.0900
10736TIP3    H153623   3.041   3.742  13.824 -0.6040  2.7566  1.8218
10736TIP3    H253624   3.054   3.801  13.685 -1.2603  0.8379  0.9140
10737TIP3   OH253625   4.258   4.551   5.820 -0.5197  0.0824  0.0398
10737TIP3    H153626   4.263   4.467   5.774  1.7360  0.2242 -0.0966
10737TIP3    H253627   4.249   4.527   5.913 -2.1571 -0.2311 -0.1615
10738TIP3   OH253628   4.463   2.867  12.340 -0.5987 -0.1415  0.1118
10738TIP3    H153629   4.389   2.904  12.292 -0.2681  0.4907  0.0761
10738TIP3    H253630   4.484   2.786  12.294 -0.9627 -0.0804 -0.1656
10739TIP3   OH253631   1.841   2.744  15.425  0.4429  0.1974 -0.0806
10739TIP3    H153632   1.821   2.787  15.508 -0.5980 -2.4921  1.1817
10739TIP3    H253633   1.786   2.665  15.425  1.1776 -0.4259 -2.8744
10740TIP3   OH253634   3.814   5.729  16.152  0.5184  0.3286  0.4896
10740TIP3    H153635   3.811   5.762  16.063 -0.5053  0.2695  0.4897
10740TIP3    H253636   3.750   5.658  16.154 -1.3900  1.9588  1.9023
10741TIP3   OH253637   4.499   1.903  17.114 -0.2655 -0.0707  0.4215
10741TIP3    H153638   4.497   1.875  17.206 -0.3667 -0.6129  0.2586
10741TIP3    H253639   4.579   1.864  17.079 -0.7834 -0.7987  0.0018
10742TIP3   OH253640   4.853   2.966  14.408  0.0128  0.2563 -0.1875
10742TIP3    H153641   4.896   2.944  14.491 -0.4169 -0.7239 -0.2128
10742TIP3    H253642   4.861   2.887  14.355 -2.7712 -0.4154  0.2234
10743TIP3   OH253643   1.417   1.822  14.912  0.0823  0.3306 -0.4092
10743TIP3    H153644   1.401   1.914  14.935  2.6448  0.4985  1.0608
10743TIP3    H253645   1.360   1.772  14.970 -0.2880  0.9730 -0.2097
10744TIP3   OH253646   5.427   5.170  11.086 -0.2165 -0.2347  0.1685
10744TIP3    H153647   5.495   5.203  11.027 -0.5372 -0.0024 -0.0770
10744TIP3    H253648   5.356   5.144  11.028  0.3593 -2.2162  0.2905
10745TIP3   OH253649   4.123   2.667  12.060  0.1159  0.2886  0.6725
10745TIP3    H153650   4.060   2.720  12.107  1.2780  0.2423  2.3756
10745TIP3    H253651   4.199   2.725  12.048  0.7541 -0.4508  1.0417
10746TIP3   OH253652   6.166   4.488  16.686  0.6797 -0.3714  0.4299
10746TIP3    H153653   6.102   4.559  16.690  2.2999  1.1450  0.1785
10746TIP3    H253654   6.151   4.447  16.601 -0.1154 -0.2061  0.4817
10747TIP3   OH253655   3.091   4.550   5.999  0.0519 -0.1762  0.1051
10747TIP3    H153656   3.073   4.644   6.000 -0.0090 -0.1904  0.9628
10747TIP3    H253657   3.155   4.538   6.069 -0.5191 -0.8855  0.5089
10748TIP3   OH253658   5.942   4.910  11.619  0.2799 -0.1910 -0.0083
10748TIP3    H153659   5.904   4.920  11.531  1.2195  0.6456 -0.3386
10748TIP3    H253660   5.981   4.823  11.617 -2.1729 -1.4063  0.5955
10749TIP3   OH253661   4.947   5.806   4.857  0.2376  0.0292  0.1176
10749TIP3    H153662   4.878   5.747   4.826 -1.1863  1.8273 -0.2637
10749TIP3    H253663   4.990   5.836   4.777  0.9448 -0.4230  0.3126
10750TIP3   OH253664   3.042   4.622  16.656  0.0413 -0.3860 -0.0265
10750TIP3    H153665   2.982   4.552  16.681  0.7422 -0.5219  1.3930
10750TIP3    H253666   3.006   4.657  16.575 -1.8687 -0.5535  0.7037
10751TIP3   OH253667   5.528   4.091   4.575 -0.3322  0.0180  0.4303
10751TIP3    H153668   5.587   4.059   4.644  1.2321  2.0063  0.0948
10751TIP3    H253669   5.580   4.087   4.495 -0.5289  2.0123  0.1507
10752TIP3   OH253670   0.104   6.539   2.402  0.0005  0.2686  0.4967
10752TIP3    H153671   0.124   6.448   2.424  1.6552  0.2770 -0.8246
10752TIP3    H253672   0.027   6.534   2.346  1.4731 -0.5674 -1.5352
10753TIP3   OH253673   2.881   3.906   2.588  0.2085 -0.5666  0.0534
10753TIP3    H153674   2.844   3.963   2.520  1.8622 -0.9665 -1.2434
10753TIP3    H253675   2.806   3.859   2.624 -0.9119  0.8361 -0.3435
10754TIP3   OH253676   6.580   3.903   4.670 -0.1991 -0.0979 -0.0715
10754TIP3    H153677   6.488   3.928   4.675 -0.4661 -1.2180  1.1504
10754TIP3    H253678   6.605   3.920   4.579 -1.0818  1.9628  0.0133
10755TIP3   OH253679   1.388   0.370   4.727 -0.0853 -0.6753  0.2799
10755TIP3    H153680   1.426   0.283   4.736 -0.5223 -0.8458  0.5117
10755TIP3    H253681   1.306   0.356   4.680 -1.3432 -0.7313  2.3460
10756TIP3   OH253682   3.929   0.340  10.866  0.0462 -0.0045  0.4750
10756TIP3    H153683   3.920   0.310  10.956  2.0508 -1.1427  0.3493
10756TIP3    H253684   3.870   0.282  10.816 -1.1060  0.6601  1.0104
10757TIP3   OH253685   3.900   0.693  16.921  0.3753  0.4535  0.2488
10757TIP3    H153686   3.902   0.788  16.910  1.2271  0.5496  1.1378
10757TIP3    H253687   3.950   0.660  16.847  1.1799  0.7765  0.6350
10758TIP3   OH253688   5.042   6.467   6.752  0.0441  0.1570 -0.1271
10758TIP3    H153689   4.954   6.440   6.725  0.3509 -1.1097  0.0668
10758TIP3    H253690   5.099   6.438   6.681  0.6323 -1.5591  0.9796
10759TIP3   OH253691   5.782   2.604   5.592 -0.0645 -0.5786 -0.0874
10759TIP3    H153692   5.853   2.540   5.583 -0.1558 -0.6792 -0.1017
10759TIP3    H253693   5.793   2.641   5.679  0.5415  0.0507 -0.4184
10760TIP3   OH253694   1.994   1.203  15.450 -0.4632 -1.0317  0.5090
10760TIP3    H153695   2.071   1.235  15.403 -2.1714  0.7997 -1.2598
10760TIP3    H253696   2.013   1.111  15.468  2.2791 -0.5312  0.5544
10761TIP3   OH253697   5.828   2.673  15.219  0.1843  0.1607  0.5018
10761TIP3    H153698   5.859   2.727  15.291  0.1353  1.0554 -0.1394
10761TIP3    H253699   5.904   2.622  15.192  0.6342  1.0043  0.1412
10762TIP3   OH253700   5.112   3.005  11.495 -0.3532 -0.8299  0.2780
10762TIP3    H153701   5.208   3.009  11.495 -0.3449  0.4909  1.9049
10762TIP3    H253702   5.091   2.914  11.476  1.2809 -1.3887  0.9725
10763TIP3   OH253703   3.166   3.012  15.302  0.4194 -0.2286  0.7254
10763TIP3    H153704   3.070   3.017  15.301  0.3318 -0.6928 -2.0695
10763TIP3    H253705   3.194   3.090  15.350 -1.3457  2.2241 -1.8995
10764TIP3   OH253706   5.607   0.639  12.309 -0.5021  0.3319  0.2326
10764TIP3    H153707   5.646   0.614  12.393 -0.5353  1.8913  0.7474
10764TIP3    H253708   5.530   0.583  12.301  0.2853 -0.8355  0.5378
10765TIP3   OH253709   6.528   2.767  16.840  0.6510  0.0317  0.0452
10765TIP3    H153710   6.509   2.683  16.883  0.9802 -0.1906 -0.2386
10765TIP3    H253711   6.459   2.775  16.774  1.0584 -0.3903 -0.4435
10766TIP3   OH253712   3.295   0.274  16.783 -0.0171 -0.2054 -0.0039
10766TIP3    H153713   3.261   0.320  16.859 -0.5104 -0.0437 -0.3163
10766TIP3    H253714   3.342   0.341  16.733  0.3849 -0.3308  0.1982
10767TIP3   OH253715   4.559   4.586   6.180  0.1839 -0.3409  0.4543
10767TIP3    H153716   4.593   4.649   6.244 -0.0877  0.0357  0.2347
10767TIP3    H253717   4.465   4.585   6.196  0.0208  0.2695 -0.3741
10768TIP3   OH253718   0.591   3.194   1.293 -0.1436  0.4815  0.4568
10768TIP3    H153719   0.561   3.187   1.202 -1.4477  2.4242  0.6717
10768TIP3    H253720   0.516   3.230   1.340  1.0869  1.2052  1.9466
10769TIP3   OH253721   4.338   3.268  13.358 -0.1406  0.4169  0.1252
10769TIP3    H153722   4.358   3.241  13.447 -0.4284  0.6081  0.2513
10769TIP3    H253723   4.407   3.230  13.304  0.4740  0.9414  0.5275
10770TIP3   OH253724   5.743   3.147   2.409  0.3918 -0.3655 -0.0932
10770TIP3    H153725   5.826   3.099   2.407 -0.0037 -1.1192  1.0309
10770TIP3    H253726   5.676   3.079   2.414 -0.5289  0.0700 -3.4776
10771TIP3   OH253727   5.846   3.099  12.886  0.0350 -0.5145 -0.0323
10771TIP3    H153728   5.922   3.150  12.859  0.2170  0.2074  1.6969
10771TIP3    H253729   5.863   3.010  12.854  1.0015 -0.0875 -0.7409
10772TIP3   OH253730   6.112   1.994  15.241  0.1116 -0.2701  0.2550
10772TIP3    H153731   6.139   2.072  15.290 -0.4364  1.0255 -1.3690
10772TIP3    H253732   6.194   1.960  15.204  0.4865 -1.0868  1.7461
10773TIP3   OH253733   1.439   2.115   4.296  0.1324 -0.4374 -0.4819
10773TIP3    H153734   1.428   2.196   4.346  0.2917 -1.5691  1.4879
10773TIP3    H253735   1.367   2.059   4.324 -0.3009 -0.8217 -2.2289
10774TIP3   OH253736   5.876   4.589   1.771 -0.4401  0.4366 -0.3569
10774TIP3    H153737   5.825   4.634   1.704 -1.2335  0.9068  0.5473
10774TIP3    H253738   5.944   4.651   1.796 -1.0035  0.8008  0.2726
10775TIP3   OH253739   4.868   5.590  13.815 -0.1145  0.2260  0.0998
10775TIP3    H153740   4.827   5.518  13.768  1.5023 -0.8817  0.3147
10775TIP3    H253741   4.962   5.574  13.808  0.2264  0.5010  2.8804
10776TIP3   OH253742   4.432   4.776  14.160 -0.1936 -0.2847 -0.5894
10776TIP3    H153743   4.464   4.849  14.108  0.9266  0.6830  1.3444
10776TIP3    H253744   4.344   4.802  14.187  1.0197  1.6106  2.0631
10777TIP3   OH253745   3.290   3.984  15.350  0.5182  0.2594  0.1044
10777TIP3    H153746   3.335   3.907  15.316 -0.0275  1.2472 -3.2964
10777TIP3    H253747   3.220   3.950  15.405  0.1101 -1.7395 -1.5516
10778TIP3   OH253748   3.392   5.763   2.884  0.0923 -0.0300 -0.0736
10778TIP3    H153749   3.324   5.828   2.868 -0.5844 -0.8116 -0.4738
10778TIP3    H253750   3.472   5.803   2.849 -0.6934 -0.2439 -2.2622
10779TIP3   OH253751   5.787   6.011   5.746 -0.2827 -0.2969  0.0564
10779TIP3    H153752   5.868   6.060   5.734 -1.2309  1.8398  1.7484
10779TIP3    H253753   5.815   5.925   5.778  1.3434 -0.0565 -0.6366
10780TIP3   OH253754   4.139   0.650   1.671 -0.3143  0.4792 -0.0447
10780TIP3    H153755   4.116   0.670   1.580  0.1596 -0.2170 -0.3270
10780TIP3    H253756   4.125   0.555   1.679  0.9935  0.2938  0.1988
10781TIP3   OH253757   2.669   1.932   4.437 -0.2937 -0.1711  0.1401
10781TIP3    H153758   2.754   1.964   4.405  0.1962 -0.2625  1.3039
10781TIP3    H253759   2.606   1.997   4.407  0.4869  1.0831  1.1143
10782TIP3   OH253760   0.303   1.398  13.381  0.3804 -0.6677 -0.4182
10782TIP3    H153761   0.284   1.408  13.475  0.3116  2.2484 -0.6508
10782TIP3    H253762   0.398   1.388  13.378  0.4501 -0.2115 -0.0359
10783TIP3   OH253763   2.617   3.786   4.913 -0.2762 -0.2182  0.0025
10783TIP3    H153764   2.667   3.707   4.890  0.0355 -0.3880  1.1972
10783TIP3    H253765   2.606   3.832   4.830  1.3884 -0.4484 -0.3820
10784TIP3   OH253766   1.035   2.973   1.399 -0.4496  0.6907  0.0588
10784TIP3    H153767   0.979   3.047   1.375 -1.9633 -0.5791 -0.4970
10784TIP3    H253768   1.084   2.953   1.320 -1.3234  0.0276 -0.3297
10785TIP3   OH253769   6.712   6.361   5.749  0.3527 -0.6836 -0.3779
10785TIP3    H153770   6.618   6.365   5.732  0.2814 -0.3491  0.0862
10785TIP3    H253771   6.751   6.420   5.684  0.1475 -0.0256  0.0812
10786TIP3   OH253772   2.370   6.509  13.725 -0.4071 -0.0389 -0.0582
10786TIP3    H153773   2.354   6.589  13.775 -0.8898  0.4578 -0.9742
10786TIP3    H253774   2.347   6.532  13.635 -0.3838 -1.1633 -0.3702
10787TIP3   OH253775   1.153   2.256   3.783  0.0322  0.0134  0.0786
10787TIP3    H153776   1.072   2.217   3.751  0.5571 -0.1302 -1.1424
10787TIP3    H253777   1.193   2.295   3.705  0.5276  1.1876  0.9027
10788TIP3   OH253778   2.098   2.851   4.591  0.4659 -0.3390  0.4349
10788TIP3    H153779   2.178   2.902   4.604 -0.9340  1.7233  1.6367
10788TIP3    H253780   2.125   2.760   4.599  2.5855  0.3147  1.4130
10789TIP3   OH253781   5.258   5.235   5.663 -0.0473  0.2476 -0.3827
10789TIP3    H153782   5.251   5.167   5.730 -1.0300  1.4170  0.7748
10789TIP3    H253783   5.243   5.190   5.580  0.7020 -1.1595  0.2176
10790TIP3   OH253784   2.535   6.692   3.829 -0.7904  0.7250 -0.1255
10790TIP3    H153785   2.619   6.674   3.786 -0.7947  2.0113 -0.7341
10790TIP3    H253786   2.552   6.770   3.882 -1.2665  0.2080  0.7988
10791TIP3   OH253787   5.517   3.658  13.527  0.3364  0.5430  0.2862
10791TIP3    H153788   5.430   3.619  13.530  0.3862  0.4339  0.3066
10791TIP3    H253789   5.569   3.606  13.588  1.2111 -1.3060 -1.8828
10792TIP3   OH253790   0.131   0.053  16.008  0.9043 -0.2618  0.2289
10792TIP3    H153791   0.114   0.096  15.924  1.2419  0.0499  0.3165
10792TIP3    H253792   0.220   0.081  16.031  0.5923  0.1313  0.9791
10793TIP3   OH253793   1.650   0.306  13.773 -0.7540  0.3832  0.2601
10793TIP3    H153794   1.723   0.294  13.834 -0.7206 -0.8388  0.0155
10793TIP3    H253795   1.675   0.381  13.719  0.1025  0.2740  0.4975
10794TIP3   OH253796   1.456   2.697   2.609  0.4061  0.5508  0.5664
10794TIP3    H153797   1.443   2.668   2.699 -0.7385  0.4135  0.3760
10794TIP3    H253798   1.438   2.620   2.556  1.3294  0.5629  0.2209
10795TIP3   OH253799   4.007   3.858   5.757  0.5381 -0.2036 -0.6516
10795TIP3    H153800   3.976   3.882   5.845  0.8093 -0.2182 -0.5505
10795TIP3    H253801   3.929   3.863   5.702 -0.2291 -2.6240  0.0472
10796TIP3   OH253802   0.305   6.705   0.329  0.4123 -0.2533  0.9112
10796TIP3    H153803   0.246   6.639   0.293  0.7670 -0.1013  0.0124
10796TIP3    H253804   0.333   6.755   0.253  3.1580 -1.4959  0.9760
10797TIP3   OH253805   5.603   4.737   1.250 -0.1194  0.1137 -0.0180
10797TIP3    H153806   5.692   4.749   1.281 -0.2909 -1.5283  1.2591
10797TIP3    H253807   5.555   4.813   1.283  0.3477 -0.1302  1.2941
10798TIP3   OH253808   4.324   0.912  14.960  0.0406  0.6534 -0.0871
10798TIP3    H153809   4.386   0.909  15.032  0.0670  0.1457 -0.1301
10798TIP3    H253810   4.279   0.996  14.970 -0.6085  0.1879  1.0735
10799TIP3   OH253811   5.957   2.941  13.563  0.4593  0.3047  0.7747
10799TIP3    H153812   5.960   2.871  13.499 -2.0239  0.0051  0.8894
10799TIP3    H253813   5.873   2.985  13.547  0.7715  1.6076  2.3974
10800TIP3   OH253814   5.355   4.103  15.385 -0.1494 -0.0798  0.4303
10800TIP3    H153815   5.366   4.168  15.315  0.5160  2.5744  2.8365
10800TIP3    H253816   5.270   4.124  15.424  0.6904  0.3170  2.1235
10801TIP3   OH253817   5.904   1.289   2.930 -0.2370  0.0786  0.3024
10801TIP3    H153818   5.988   1.319   2.896 -1.3960  0.7586 -2.2404
10801TIP3    H253819   5.898   1.198   2.903  0.5837 -0.6772  2.4794
10802TIP3   OH253820   5.202   0.338  13.073  0.8698 -0.2689 -0.2785
10802TIP3    H153821   5.273   0.401  13.058  2.0060 -1.5344 -0.3490
10802TIP3    H253822   5.245   0.262  13.111 -0.5890 -0.7746  0.4177
10803TIP3   OH253823   6.653   4.888   2.507  0.9373 -0.2125 -0.0596
10803TIP3    H153824   6.586   4.913   2.443  0.0021 -2.6104 -0.1216
10803TIP3    H253825   6.685   4.804   2.476  1.4059 -0.7990  1.9161
10804TIP3   OH253826   4.711   3.509  11.453  0.6184 -0.1854 -0.4029
10804TIP3    H153827   4.726   3.426  11.500 -0.6476  0.2934  0.9218
10804TIP3    H253828   4.793   3.557  11.464  1.5324 -1.4009 -1.5639
10805TIP3   OH253829   4.941   3.195  11.397  0.0734  0.0386  0.7996
10805TIP3    H153830   5.003   3.131  11.431  0.1255  0.1270  0.8737
10805TIP3    H253831   4.972   3.279  11.431  1.3700  0.4275 -1.1521
10806TIP3   OH253832   2.903   2.783   4.339  0.8082 -0.0227 -0.2176
10806TIP3    H153833   2.959   2.859   4.355 -0.4377  0.4602  2.3100
10806TIP3    H253834   2.840   2.784   4.410 -1.6702 -1.2632 -2.2450
10807TIP3   OH253835   4.639   5.299   5.313 -0.1043  0.6310  0.0661
10807TIP3    H153836   4.714   5.292   5.253 -0.5570 -0.6372 -0.3897
10807TIP3    H253837   4.563   5.303   5.256 -0.4591  0.7615  0.5448
10808TIP3   OH253838   4.705   1.726   3.451 -0.3378  0.4052  0.2384
10808TIP3    H153839   4.776   1.667   3.474  0.3152  0.8535 -0.5915
10808TIP3    H253840   4.676   1.697   3.364 -2.6065 -1.1130  1.3852
10809TIP3   OH253841   6.050   4.736  16.019  0.3709 -0.6343 -0.2646
10809TIP3    H153842   6.132   4.687  16.016  0.7899  0.0885 -1.2004
10809TIP3    H253843   5.985   4.675  15.984  0.1836 -1.7323  1.8149
10810TIP3   OH253844   5.351   1.414  15.829  0.5274  0.0930 -0.5179
10810TIP3    H153845   5.341   1.472  15.905  1.9081 -0.4319  0.1016
10810TIP3    H253846   5.401   1.339  15.863 -2.1850 -2.0904 -0.9948
10811TIP3   OH253847   4.856   4.216   2.073  0.3404 -0.0983  0.1099
10811TIP3    H153848   4.892   4.128   2.060 -1.1137 -1.1158  2.4357
10811TIP3    H253849   4.934   4.272   2.083  1.3069 -1.4786  0.6480
10812TIP3   OH253850   4.377   0.636   5.606  0.7696  0.1281 -0.0205
10812TIP3    H153851   4.321   0.658   5.532 -0.2478  0.4806  0.8135
10812TIP3    H253852   4.370   0.712   5.664  1.0177 -0.4122  0.7291
10813TIP3   OH253853   2.027   2.460  14.464 -0.2073  0.2981  0.7143
10813TIP3    H153854   2.102   2.452  14.405 -0.7625  0.9963 -0.1191
10813TIP3    H253855   2.030   2.382  14.518  0.4306 -0.2719 -0.1237
10814TIP3   OH253856   2.910   1.071   3.774 -0.1631  0.3909  0.5159
10814TIP3    H153857   2.941   1.150   3.731 -0.5667  1.4336  2.0501
10814TIP3    H253858   2.929   1.000   3.712 -0.9129  1.8060 -1.4108
10815TIP3   OH253859   6.008   0.946   5.582 -0.5010 -0.3600 -0.5341
10815TIP3    H153860   6.027   0.861   5.623 -0.4779  0.3886  1.0998
10815TIP3    H253861   5.965   0.924   5.500 -1.2293 -1.9533  0.2362
10816TIP3   OH253862   2.578   2.320   4.166 -0.8444 -0.3978 -0.3726
10816TIP3    H153863   2.645   2.325   4.099  0.4887  0.0655  0.9520
10816TIP3    H253864   2.599   2.390   4.227 -2.8534  0.1149 -0.1885
10817TIP3   OH253865   5.530   5.937   0.428  0.1809  0.5529  0.2112
10817TIP3    H153866   5.474   6.014   0.433 -1.6602 -0.7532  0.5995
10817TIP3    H253867   5.503   5.892   0.348  0.0868 -0.5200  0.8254
10818TIP3   OH253868   1.587   1.405   0.817  0.7665  0.1160 -0.1398
10818TIP3    H153869   1.628   1.483   0.780  0.8143 -0.0537 -0.4470
10818TIP3    H253870   1.593   1.339   0.747 -1.2390  0.4925 -0.7323
10819TIP3   OH253871   1.159   6.497   1.594 -0.0002 -0.0893  0.3015
10819TIP3    H153872   1.175   6.578   1.642 -1.9617 -0.2062  1.2836
10819TIP3    H253873   1.075   6.510   1.551  0.4078 -1.0308 -0.8303
10820TIP3   OH253874   4.638   3.644   3.098  0.4632  0.2771  0.2866
10820TIP3    H153875   4.655   3.550   3.100  2.1998  0.5084 -1.2875
10820TIP3    H253876   4.724   3.684   3.087 -0.5036  1.8472 -2.7624
10821TIP3   OH253877   5.837   1.446   6.428  1.1302  0.5515  0.0476
10821TIP3    H153878   5.788   1.364   6.431  2.1017 -0.0391  0.2103
10821TIP3    H253879   5.926   1.420   6.407  1.3723  1.6105 -0.3056
10822TIP3   OH253880   3.938   1.424   0.622  0.5580 -0.1257  0.1027
10822TIP3    H153881   4.007   1.484   0.648 -0.5295  1.4057 -0.3915
10822TIP3    H253882   3.875   1.425   0.694  1.2669 -1.9476  0.8083
10823TIP3   OH253883   0.089   0.282  16.819 -0.2267 -0.2211  0.1890
10823TIP3    H153884   0.093   0.192  16.785 -0.5182 -0.3797  0.5645
10823TIP3    H253885   0.021   0.324  16.766  1.3494  0.4190 -1.4358
10824TIP3   OH253886   4.235   2.147  14.721  0.0741 -0.0000 -0.3268
10824TIP3    H153887   4.276   2.087  14.659  0.7410  0.4820 -0.3629
10824TIP3    H253888   4.141   2.143  14.700  0.3813  0.9415 -2.0731
10825TIP3   OH253889   6.477   2.449  15.221 -0.0052 -0.1041  0.6956
10825TIP3    H153890   6.466   2.441  15.316  0.3126 -0.9855  0.6638
10825TIP3    H253891   6.570   2.435  15.206 -0.1073 -0.2870  0.2194
10826TIP3   OH253892   6.102   6.743   2.300 -0.2863 -0.1973  0.6043
10826TIP3    H153893   6.028   6.773   2.353 -1.2045  0.0491 -0.7790
10826TIP3    H253894   6.165   6.815   2.302 -0.7818  0.2389  0.4822
10827TIP3   OH253895   4.073   0.085   5.095 -0.4321 -0.1902 -0.2151
10827TIP3    H153896   4.031   0.065   5.012 -3.1016 -0.7592  1.1672
10827TIP3    H253897   4.158   0.041   5.090 -0.9410 -1.0617 -2.2208
10828TIP3   OH253898   0.832   0.745   0.763  0.0684 -0.3275  0.7631
10828TIP3    H153899   0.773   0.672   0.743  0.0131 -0.3402  0.9687
10828TIP3    H253900   0.919   0.705   0.764  0.3983  0.1199 -1.9644
10829TIP3   OH253901   4.915   6.458  12.856  0.1967 -0.3266 -0.3399
10829TIP3    H153902   5.007   6.446  12.835 -0.1611 -0.7255 -1.7976
10829TIP3    H253903   4.892   6.381  12.909  0.4461 -0.7797 -0.8818
10830TIP3   OH253904   6.781   0.191  15.526  0.6228  0.0984 -0.6795
10830TIP3    H153905   6.738   0.119  15.478 -1.3401  0.8488 -0.1573
10830TIP3    H253906   6.837   0.233  15.461 -0.8721  0.2093 -1.9827
10831TIP3   OH253907   1.453   0.420  13.296  0.2829  0.0575  0.3392
10831TIP3    H153908   1.427   0.355  13.231 -1.0063 -0.5983  1.4582
10831TIP3    H253909   1.404   0.499  13.272  1.9193  0.6964 -1.0741
10832TIP3   OH253910   0.504   0.114  11.759 -0.1677 -0.5773  0.1849
10832TIP3    H153911   0.510   0.148  11.670 -0.1694 -1.7535 -0.2797
10832TIP3    H253912   0.413   0.090  11.770 -0.0782 -0.8414  0.3545
10833TIP3   OH253913   5.212   1.714   3.431  0.5836  0.1986 -0.6604
10833TIP3    H153914   5.164   1.795   3.414 -0.6635 -0.2157  0.6415
10833TIP3    H253915   5.145   1.646   3.428  1.4357 -0.6593 -0.6679
10834TIP3   OH253916   5.573   5.218   3.567  0.1907 -0.2508  0.0965
10834TIP3    H153917   5.628   5.141   3.552 -0.6726 -0.8806  0.0529
10834TIP3    H253918   5.505   5.212   3.499  0.7507  1.1835 -0.6487
10835TIP3   OH253919   1.208   3.093   3.996 -0.0786  0.4975  0.5977
10835TIP3    H153920   1.123   3.135   3.999  0.9494  2.6575  1.3264
10835TIP3    H253921   1.231   3.091   3.903 -0.3301  1.1723  0.5182
10836TIP3   OH253922   3.763   1.467  15.615  0.0953 -0.6697  0.6066
10836TIP3    H153923   3.751   1.474  15.710  0.0846 -1.2898  0.6545
10836TIP3    H253924   3.760   1.373  15.597  2.8337 -0.7661  0.3499
10837TIP3   OH253925   3.091   0.938   3.094 -0.2300  0.0631 -0.6176
10837TIP3    H153926   3.085   0.926   3.189  0.3708  2.7073 -0.1440
10837TIP3    H253927   3.140   0.862   3.063 -0.1029 -0.6739  1.2385
10838TIP3   OH253928   0.855   2.584  14.750 -0.3843 -0.1711  0.0708
10838TIP3    H153929   0.808   2.502  14.766  0.6781 -1.2796 -2.0150
10838TIP3    H253930   0.815   2.620  14.671  1.1011 -0.2741 -0.7715
10839TIP3   OH253931   5.372   3.677  17.173  0.2713  0.3202  0.3343
10839TIP3    H153932   5.452   3.634  17.202  0.5839  0.8858  0.3239
10839TIP3    H253933   5.342   3.625  17.098  1.6161  1.1510 -0.8057
10840TIP3   OH253934   1.623   2.430  16.084  0.0181  0.1881 -0.0727
10840TIP3    H153935   1.601   2.474  16.002 -0.6902  2.2572  1.1718
10840TIP3    H253936   1.551   2.369  16.100  0.3092 -0.4544 -1.0919
10841TIP3   OH253937   3.289   5.127   3.188 -0.5938  0.4447 -0.1552
10841TIP3    H153938   3.293   5.176   3.270 -0.9180 -1.1086  0.8059
10841TIP3    H253939   3.321   5.040   3.209  1.6163  0.6408 -2.2227
10842TIP3   OH253940   2.122   4.320   0.772  0.3606  0.3548 -0.7190
10842TIP3    H153941   2.173   4.275   0.704 -1.8088 -0.9383 -1.5840
10842TIP3    H253942   2.059   4.255   0.802  1.5673  0.6794  3.0406
10843TIP3   OH253943   5.167   3.108   3.041  0.1363 -0.2730  0.0547
10843TIP3    H153944   5.230   3.180   3.042  1.3294 -1.2614 -0.2055
10843TIP3    H253945   5.186   3.061   2.960  1.2181 -2.3649  1.4181
10844TIP3   OH253946   2.126   1.400   4.403 -0.2933 -0.0287 -0.0720
10844TIP3    H153947   2.205   1.452   4.389  0.2673 -0.7920  0.1434
10844TIP3    H253948   2.083   1.398   4.318  0.8242 -1.0197 -0.6577
10845TIP3   OH253949   0.581   6.274   3.365 -0.2380  0.6487  0.5687
10845TIP3    H153950   0.562   6.292   3.457 -0.2983 -1.9642  1.1593
10845TIP3    H253951   0.604   6.181   3.364  1.2164  0.9668 -1.8581
10846TIP3   OH253952   4.552   4.258   4.543 -0.2151  0.7190  0.4924
10846TIP3    H153953   4.470   4.213   4.565  0.2420 -0.1965  0.3513
10846TIP3    H253954   4.607   4.245   4.620 -0.8284  2.9272  1.3683
10847TIP3   OH253955   4.794   5.964   4.075 -0.7565 -0.6652  0.3220
10847TIP3    H153956   4.764   5.874   4.077 -1.4960 -0.4571 -0.5287
10847TIP3    H253957   4.858   5.967   4.004 -0.2491 -0.6611  0.7771
10848TIP3   OH253958   0.801   0.348  10.935 -1.0567  0.1301  0.1202
10848TIP3    H153959   0.737   0.278  10.920  0.1870 -0.7402 -1.4456
10848TIP3    H253960   0.835   0.330  11.023 -1.3797 -0.7012  0.0900
10849TIP3   OH253961   6.108   0.699   0.107  0.2289  0.4470 -0.0950
10849TIP3    H153962   6.156   0.776   0.139 -0.7321  1.2434 -0.5117
10849TIP3    H253963   6.032   0.692   0.164  0.0844  0.0539 -0.3290
10850TIP3   OH253964   2.443   2.048  14.629 -0.2342  0.1672 -0.0820
10850TIP3    H153965   2.388   2.118  14.664  1.3998  0.9141  1.1079
10850TIP3    H253966   2.388   1.969  14.633 -1.8557  1.2161 -0.7673
10851TIP3   OH253967   3.743   6.444  15.563 -0.2959  0.1618  0.4367
10851TIP3    H153968   3.745   6.536  15.537  2.2119  0.1184  0.1973
10851TIP3    H253969   3.833   6.425  15.591 -1.3330 -1.5253  3.0114
10852TIP3   OH253970   1.003   6.164   2.493  0.0839  0.7703  0.2360
10852TIP3    H153971   0.949   6.243   2.488 -1.2892 -0.1972 -0.8837
10852TIP3    H253972   0.980   6.114   2.414  0.6004 -0.9342  1.1201
10853TIP3   OH253973   5.244   3.341   1.788  0.5078 -0.2157  0.3687
10853TIP3    H153974   5.178   3.367   1.723 -0.6161 -0.8361  1.2262
10853TIP3    H253975   5.255   3.418   1.843  1.0262  0.1173 -0.1924
10854TIP3   OH253976   0.769   2.672  12.609 -0.0566 -0.1517 -1.0369
10854TIP3    H153977   0.739   2.714  12.689 -0.1507  0.3401 -1.3252
10854TIP3    H253978   0.767   2.578  12.628 -0.2531 -0.0440 -0.5284
10855TIP3   OH253979   1.089   2.779  11.998 -0.1847  0.1775 -0.1964
10855TIP3    H153980   1.163   2.733  11.958 -0.6954 -1.5560  0.7404
10855TIP3    H253981   1.127   2.825  12.072 -0.2046 -2.0186  1.2716
10856TIP3   OH253982   1.244   0.654  15.656  0.4504  0.3620  0.2633
10856TIP3    H153983   1.223   0.642  15.563 -0.3362  0.4224  0.4272
10856TIP3    H253984   1.338   0.636  15.661  0.4371  0.0102 -0.4845
10857TIP3   OH253985   0.394   5.091  14.821 -0.1379  0.0335  0.4114
10857TIP3    H153986   0.300   5.093  14.838 -0.0674  0.9125  0.7294
10857TIP3    H253987   0.409   5.163  14.760  0.9760  2.9982  3.8348
10858TIP3   OH253988   0.863   5.758   2.557 -0.2650 -0.0516 -0.2291
10858TIP3    H153989   0.788   5.699   2.566  0.2527 -0.6033  0.4974
10858TIP3    H253990   0.886   5.782   2.646 -0.6771  1.5426 -0.5248
10859TIP3   OH253991   2.496   2.570  13.612 -0.4679  0.2853  1.2115
10859TIP3    H153992   2.462   2.639  13.555 -0.8722  0.0587  1.1700
10859TIP3    H253993   2.434   2.498  13.600 -0.2331  0.0365  1.5059
10860TIP3   OH253994   0.540   0.330  16.581  0.4074  0.3872  0.3210
10860TIP3    H153995   0.490   0.274  16.523  0.6073  1.8485 -1.3275
10860TIP3    H253996   0.474   0.371  16.638  0.0995 -0.2369  0.4201
10861TIP3   OH253997   1.058   5.830   4.966 -0.1461 -0.7466  0.3773
10861TIP3    H153998   1.120   5.900   4.944  1.5876 -2.1073  0.6639
10861TIP3    H253999   1.000   5.868   5.031 -1.5676  1.5050 -2.0227
10862TIP3   OH254000   5.192   3.357   0.966  0.1069  0.1313  0.1707
10862TIP3    H154001   5.219   3.404   0.888  0.7915  0.5283  0.6367
10862TIP3    H254002   5.143   3.421   1.017  2.9301  1.1347  1.8718
10863TIP3   OH254003   0.034   1.174   1.660 -0.3510 -0.2541 -0.2080
10863TIP3    H154004   0.078   1.150   1.742  1.1339  1.5643 -0.4151
10863TIP3    H254005  -0.030   1.104   1.647  0.1998 -1.2467  1.8576
10864TIP3   OH254006   2.142   5.015   6.759 -0.0278 -0.4429 -0.1852
10864TIP3    H154007   2.219   5.030   6.705  0.4723 -1.2502  0.2818
10864TIP3    H254008   2.176   5.011   6.848 -0.5690 -1.0485  0.0028
10865TIP3   OH254009   0.776   5.318   5.816  0.2707  0.0192  0.1706
10865TIP3    H154010   0.752   5.228   5.840 -0.5422 -0.4802 -2.2033
10865TIP3    H254011   0.857   5.308   5.765 -0.1295  0.5441 -0.5885
10866TIP3   OH254012   1.671   2.951   2.766 -0.3055  0.1619  0.2372
10866TIP3    H154013   1.583   2.977   2.740 -0.2542  1.0562  0.9107
10866TIP3    H254014   1.730   3.012   2.721  0.1026 -1.4283 -1.4970
10867TIP3   OH254015   5.552   0.805  15.960 -0.2596 -1.0269  0.6376
10867TIP3    H154016   5.549   0.782  15.868  0.6335 -1.7023  0.7667
10867TIP3    H254017   5.595   0.891  15.962 -0.5346 -0.8834  0.4094
10868TIP3   OH254018   2.433   5.232  13.510  0.0551 -0.0249  0.2074
10868TIP3    H154019   2.421   5.173  13.436 -0.0615  1.5564 -1.0838
10868TIP3    H254020   2.352   5.222  13.561 -0.6274  0.1271 -0.8099
10869TIP3   OH254021   5.598   1.333  12.467 -0.5828 -0.2906  0.6471
10869TIP3    H154022   5.630   1.257  12.419 -2.3424 -0.2477 -0.6815
10869TIP3    H254023   5.677   1.374  12.502  0.7852 -0.4964 -1.9643
10870TIP3   OH254024   3.049   2.846   0.893 -0.2696 -0.2820 -0.2519
10870TIP3    H154025   3.055   2.753   0.869  1.5303 -0.7944  1.8549
10870TIP3    H254026   2.965   2.853   0.939 -0.9867 -0.5542 -1.4682
10871TIP3   OH254027   1.985   6.020  13.962 -0.5244 -0.1478  0.0101
10871TIP3    H154028   1.985   5.926  13.981 -0.2631  0.2356  2.1652
10871TIP3    H254029   1.893   6.046  13.973 -0.3558  0.0944  0.9542
10872TIP3   OH254030   1.089   5.128   3.134  0.2005  0.4484  0.0118
10872TIP3    H154031   1.127   5.211   3.163 -1.0073  1.0305  0.0286
10872TIP3    H254032   1.050   5.091   3.213 -0.4159  0.5239 -0.2487
10873TIP3   OH254033   1.464   2.690   5.842 -0.8221  0.0524  0.3812
10873TIP3    H154034   1.370   2.696   5.821 -0.8300  1.1150  0.6982
10873TIP3    H254035   1.467   2.689   5.937 -0.5723 -1.3632  0.3854
10874TIP3   OH254036   1.140   1.584   2.492  0.1737 -0.4985 -0.1531
10874TIP3    H154037   1.121   1.503   2.539  0.8865 -0.6716 -0.1638
10874TIP3    H254038   1.097   1.652   2.543  1.6945 -0.5596  1.2699
10875TIP3   OH254039   4.160   2.345   3.787  0.0350 -0.2368 -0.3938
10875TIP3    H154040   4.126   2.344   3.876  0.5772 -0.3330 -0.1885
10875TIP3    H254041   4.254   2.335   3.796 -0.0556 -2.2575 -1.0524
10876TIP3   OH254042   3.585   6.369   3.655  0.0574 -0.8237 -0.1278
10876TIP3    H154043   3.615   6.389   3.566  0.0753 -2.4375 -0.5215
10876TIP3    H254044   3.646   6.416   3.712 -0.4937  0.9941 -0.9352
10877TIP3   OH254045   4.002   3.415   0.748  0.3294 -0.4275  0.4159
10877TIP3    H154046   3.981   3.417   0.841  0.6155 -1.3370  0.5030
10877TIP3    H254047   3.918   3.397   0.705 -0.0236  1.1141  0.4043
10878TIP3   OH254048   4.375   1.041  13.030  0.5747 -0.1129  0.1426
10878TIP3    H154049   4.411   0.955  13.006 -0.8680  0.0013 -2.9558
10878TIP3    H254050   4.393   1.096  12.954 -1.3051  1.4099  0.7272
10879TIP3   OH254051   1.805   0.276  16.178  0.2626 -0.4016  0.2634
10879TIP3    H154052   1.800   0.286  16.083  0.6358  1.3931  0.4070
10879TIP3    H254053   1.896   0.252  16.194  1.9819  4.9925  0.4861
10880TIP3   OH254054   0.851   5.917  14.014  0.6309 -0.5369 -0.0885
10880TIP3    H154055   0.864   5.827  14.043 -1.4450 -0.5970  0.8152
10880TIP3    H254056   0.936   5.942  13.977  1.2447 -2.8708 -0.4575
10881TIP3   OH254057   2.076   5.278  14.845  0.4255  0.3006 -0.0338
10881TIP3    H154058   2.094   5.322  14.762 -0.1580 -0.4825 -0.5869
10881TIP3    H254059   1.992   5.313  14.873  0.5231  0.4123  0.1158
10882TIP3   OH254060   0.899   3.920  13.365 -0.0638 -0.2746  0.3523
10882TIP3    H154061   0.811   3.905  13.331  0.3832 -0.6282 -0.7201
10882TIP3    H254062   0.905   4.015  13.376 -0.0426 -0.0581 -1.2036
10883TIP3   OH254063   0.748   4.973  14.244 -0.1417 -0.0321  0.1090
10883TIP3    H154064   0.758   4.879  14.228  1.2717 -0.3358  2.3425
10883TIP3    H254065   0.724   4.979  14.336  0.4738  1.8495  0.1818
10884TIP3   OH254066   5.387   6.781  15.582  0.0903 -0.2739  0.4835
10884TIP3    H154067   5.397   6.720  15.655 -0.4168  0.0327  0.8117
10884TIP3    H254068   5.474   6.822  15.574  0.6917 -1.6425 -0.3024
10885TIP3   OH254069   5.832   4.682  17.064 -0.0443  0.1906  0.4312
10885TIP3    H154070   5.748   4.697  17.109  0.0245  0.5516  0.4411
10885TIP3    H254071   5.879   4.621  17.122  1.0296  2.4628  2.1316
10886TIP3   OH254072   0.910   1.303  15.033  0.1973 -0.1831  0.7752
10886TIP3    H154073   0.975   1.233  15.034  0.2719 -0.1112  0.8566
10886TIP3    H254074   0.933   1.356  14.956  0.4146  0.0146  0.9755
10887TIP3   OH254075   5.871   2.703   0.522  0.4425 -1.3661  0.8628
10887TIP3    H154076   5.937   2.755   0.566  0.4932 -0.0120 -0.7083
10887TIP3    H254077   5.789   2.751   0.537  0.4584 -0.8896 -0.4277
10888TIP3   OH254078   6.317   3.665  16.335 -0.0534 -0.0516 -0.1431
10888TIP3    H154079   6.263   3.718  16.277  2.2451  1.9302 -0.6232
10888TIP3    H254080   6.327   3.719  16.414  0.7714 -0.5956  0.1411
10889TIP3   OH254081   5.633   6.199  15.819 -0.2137  0.6140  0.4023
10889TIP3    H154082   5.674   6.120  15.785 -1.0458 -0.8191  2.4955
10889TIP3    H254083   5.572   6.226  15.750  0.7596 -0.0019 -0.7355
10890TIP3   OH254084   2.218   1.762  16.355 -0.6654  0.1123 -0.2923
10890TIP3    H154085   2.216   1.796  16.445 -0.1635 -0.9915  0.1483
10890TIP3    H254086   2.293   1.805  16.315 -0.7897  0.4811 -0.1386
10891TIP3   OH254087   6.693   1.272   4.026  0.1757 -0.3839  0.0609
10891TIP3    H154088   6.608   1.230   4.026 -0.3652  0.6830 -0.2633
10891TIP3    H254089   6.674   1.366   4.030  1.3482 -0.1535  0.7506
10892TIP3   OH254090   3.493   6.633   4.548 -0.2309 -0.3277 -0.4121
10892TIP3    H154091   3.456   6.550   4.576 -0.4710  0.0774  0.4931
10892TIP3    H254092   3.554   6.657   4.618 -1.1081  0.8805 -0.0280
10893TIP3   OH254093   5.166   5.849  15.948  0.2430  0.2900  0.0975
10893TIP3    H154094   5.194   5.833  15.857  0.4523  1.1511  0.0027
10893TIP3    H254095   5.195   5.772  15.996  1.1663  0.3479 -0.3482
10894TIP3   OH254096   4.283   6.246   2.169  0.1133  0.5112 -0.2805
10894TIP3    H154097   4.285   6.228   2.263 -0.1192  1.2557 -0.1248
10894TIP3    H254098   4.364   6.294   2.152 -0.5282  1.6766 -0.1692
10895TIP3   OH254099   0.174   1.246  16.356  0.0855  0.3810 -0.1277
10895TIP3    H154100   0.151   1.226  16.447  0.6227 -0.3676 -0.1411
10895TIP3    H254101   0.177   1.341  16.352 -1.2903  0.4615  0.2875
10896TIP3   OH254102   5.812   6.655   4.305 -0.4977  0.0245  0.2789
10896TIP3    H154103   5.775   6.742   4.292 -1.6336 -0.5755 -0.8394
10896TIP3    H254104   5.881   6.648   4.239  0.1455  0.3446  0.9004
10897TIP3   OH254105   5.267   4.027   6.100 -0.7260 -0.1219  0.1640
10897TIP3    H154106   5.247   4.098   6.038 -1.1390 -0.6989 -0.3754
10897TIP3    H254107   5.363   4.026   6.104 -0.7239  0.7588  0.5304
10898TIP3   OH254108   2.980   4.841   6.714 -0.4747  0.2616  0.0860
10898TIP3    H154109   3.035   4.763   6.727 -2.2174 -1.2913 -1.2803
10898TIP3    H254110   3.041   4.907   6.680  0.7765 -1.0348 -0.3308
10899TIP3   OH254111   5.347   1.556   5.539 -0.2567  0.2978  0.4158
10899TIP3    H154112   5.377   1.607   5.464  0.2590 -0.3980  0.1340
10899TIP3    H254113   5.418   1.493   5.556 -1.7034 -1.7205 -0.5600
10900TIP3   OH254114   5.634   0.576   5.269  0.0700 -0.4064 -0.2361
10900TIP3    H154115   5.637   0.643   5.338  0.6584  0.4001 -1.0292
10900TIP3    H254116   5.544   0.579   5.237  0.0365 -0.1478 -0.1206
10901TIP3   OH254117   5.172   0.263   2.780  0.3172 -0.0720  0.1261
10901TIP3    H154118   5.185   0.293   2.870  1.3243  0.9194 -0.3283
10901TIP3    H254119   5.140   0.340   2.734  1.0611 -0.2116 -0.6456
10902TIP3   OH254120   5.143   2.810   0.450  0.2827  0.0111 -0.2064
10902TIP3    H154121   5.189   2.783   0.529 -0.8088 -0.3543  0.3261
10902TIP3    H254122   5.109   2.897   0.470  0.4298  0.1287 -0.4602
10903TIP3   OH254123   2.999   2.656  13.341 -0.0733  0.4547  0.0342
10903TIP3    H154124   2.920   2.709  13.337 -1.4073 -1.3996  0.3949
10903TIP3    H254125   2.987   2.589  13.274 -0.1546 -1.5056  1.8734
10904TIP3   OH254126   2.722   1.361   3.464 -0.4182 -0.3277  0.1510
10904TIP3    H154127   2.724   1.406   3.380 -2.1258 -1.7171 -0.6950
10904TIP3    H254128   2.746   1.428   3.528 -3.0365  1.8792 -1.0143
10905TIP3   OH254129   0.716   5.332   1.709 -0.1476  0.1489  0.4622
10905TIP3    H154130   0.703   5.250   1.757 -1.1997  0.3317  0.5194
10905TIP3    H254131   0.801   5.322   1.666 -0.6698 -1.3291 -0.2653
10906TIP3   OH254132   4.554   1.656   4.432 -0.1150 -0.2125 -0.1021
10906TIP3    H154133   4.601   1.576   4.456 -3.0551 -2.0170  0.1920
10906TIP3    H254134   4.545   1.650   4.337  0.2573  0.1222 -0.1575
10907TIP3   OH254135   6.659   6.756  11.805 -0.2311  0.5752 -0.0981
10907TIP3    H154136   6.641   6.662  11.817 -1.1947  0.7385 -0.1451
10907TIP3    H254137   6.742   6.770  11.850 -0.3103 -0.2082  0.3221
10908TIP3   OH254138   2.365   0.124  16.293 -0.4186  0.5074  0.1138
10908TIP3    H154139   2.391   0.035  16.318  1.3576  1.0789  0.4756
10908TIP3    H254140   2.364   0.123  16.197 -0.2223  0.1430  0.1142
10909TIP3   OH254141   2.552   3.656   5.128  0.4489 -0.7139  0.1241
10909TIP3    H154142   2.593   3.709   5.196 -0.6406 -0.7487  0.8330
10909TIP3    H254143   2.554   3.710   5.049  0.5054 -0.1404  0.5196
10910TIP3   OH254144   6.270   0.878  12.321  0.0066  0.0069  0.0780
10910TIP3    H154145   6.246   0.799  12.369  1.6574  0.5042  1.8576
10910TIP3    H254146   6.214   0.946  12.358  0.0346  0.0546  0.0327
10911TIP3   OH254147   5.360   4.984   2.095 -0.4273 -0.3331 -0.1147
10911TIP3    H154148   5.447   5.014   2.068 -1.0291 -0.2259 -2.0419
10911TIP3    H254149   5.377   4.928   2.171  1.3945 -1.0141 -0.9752
10912TIP3   OH254150   3.752   5.197   3.193  0.0458 -0.3789 -0.3902
10912TIP3    H154151   3.682   5.262   3.186  0.0543 -0.4633 -1.3949
10912TIP3    H254152   3.832   5.247   3.176  0.2205 -0.3255  0.5358
10913TIP3   OH254153   4.080   0.886  16.132  0.5625 -0.1033  0.4528
10913TIP3    H154154   4.070   0.797  16.100  1.6116 -0.1907  0.3229
10913TIP3    H254155   3.999   0.905  16.179  0.2514 -1.0480  0.3081
10914TIP3   OH254156   5.810   5.739  13.962 -0.4217  0.5031 -0.6738
10914TIP3    H154157   5.783   5.648  13.977 -0.1556  0.6604  0.9222
10914TIP3    H254158   5.887   5.731  13.906 -0.9352 -0.1885 -1.3193
10915TIP3   OH254159   5.596   1.130   1.824 -0.1357  0.1001  0.0525
10915TIP3    H154160   5.614   1.037   1.832  2.9241  0.5457 -0.4329
10915TIP3    H254161   5.630   1.169   1.905  1.5489  1.0703 -1.0526
10916TIP3   OH254162   3.025   3.279  15.099 -0.3870  0.6247 -0.1210
10916TIP3    H154163   2.932   3.260  15.113 -0.2688  1.0424  1.4697
10916TIP3    H254164   3.068   3.194  15.103 -0.7715  0.2959 -1.9198
10917TIP3   OH254165   0.421   1.487   0.062 -0.2170  0.4925 -0.2750
10917TIP3    H154166   0.328   1.467   0.071 -0.4520  0.6026 -2.0469
10917TIP3    H254167   0.462   1.449   0.140 -1.5908 -0.6117 -0.0604
10918TIP3   OH254168   0.294   5.405   5.690 -0.0877 -0.0396  0.1310
10918TIP3    H154169   0.354   5.477   5.672 -0.5001  0.1314 -0.6178
10918TIP3    H254170   0.210   5.435   5.655 -0.3509 -0.7283  0.1559
10919TIP3   OH254171   0.513   2.025   4.441  0.5132 -0.3447  0.6640
10919TIP3    H154172   0.562   1.958   4.392  1.6225 -0.1181  1.4340
10919TIP3    H254173   0.531   2.005   4.533 -0.9793 -0.3341  0.9774
10920TIP3   OH254174   5.894   4.109   4.123 -0.1855 -0.2474  0.2295
10920TIP3    H154175   5.826   4.063   4.074 -0.0787  0.8480 -0.9893
10920TIP3    H254176   5.957   4.041   4.148 -0.4495 -0.8840 -0.8193
10921TIP3   OH254177   5.797   0.226  15.178  0.6662 -0.5770  0.1678
10921TIP3    H154178   5.784   0.142  15.134 -0.4416 -0.4158  0.1747
10921TIP3    H254179   5.891   0.229  15.196  0.7133 -1.8382  0.2055
10922TIP3   OH254180   5.203   5.668   2.602 -0.1837 -0.0902  0.5122
10922TIP3    H154181   5.238   5.742   2.552  1.7329 -1.7047 -0.7312
10922TIP3    H254182   5.227   5.686   2.693  0.3930  0.7565  0.2058
10923TIP3   OH254183   0.215   1.620  11.061  0.4935 -0.5172 -0.3421
10923TIP3    H154184   0.209   1.547  11.000  2.6073 -1.3036  0.3019
10923TIP3    H254185   0.174   1.588  11.141  0.5450 -0.6305 -0.3621
10924TIP3   OH254186   3.365   6.032   2.398  0.0596  0.6251 -0.2203
10924TIP3    H154187   3.310   6.012   2.322 -2.0039 -0.4759  1.4430
10924TIP3    H254188   3.349   6.125   2.416 -1.1497  0.3894  0.0740
10925TIP3   OH254189   6.236   3.849  12.732  0.0406  0.3861 -0.4490
10925TIP3    H154190   6.210   3.935  12.699  0.7071  0.2617 -1.3659
10925TIP3    H254191   6.166   3.790  12.702  0.7214  0.2452 -1.8771
10926TIP3   OH254192   1.443   4.061   5.787 -0.1086 -0.5331 -0.1284
10926TIP3    H154193   1.393   4.110   5.852  0.1818  2.1316 -1.7988
10926TIP3    H254194   1.431   3.969   5.813 -2.8669  0.1886  1.6087
10927TIP3   OH254195   3.509   6.366  15.330 -0.0929 -0.1499  0.4902
10927TIP3    H154196   3.585   6.399  15.281  0.8602  0.8995  2.5336
10927TIP3    H254197   3.548   6.317  15.402 -1.3401  0.3827  1.5561
10928TIP3   OH254198   4.020   1.600   4.433  0.1871  0.0083  0.4065
10928TIP3    H154199   4.037   1.670   4.496 -0.2652  1.7009 -1.2704
10928TIP3    H254200   4.033   1.641   4.347 -4.6389 -0.5893 -0.8670
10929TIP3   OH254201   0.232   3.920   1.133  0.6687  0.3262  0.4911
10929TIP3    H154202   0.254   3.960   1.049  0.3370  0.1831  0.3369
10929TIP3    H254203   0.222   3.827   1.114 -0.2031  0.4020  0.5248
10930TIP3   OH254204   0.268   5.512  13.622 -0.1236  0.0634 -0.3230
10930TIP3    H154205   0.302   5.450  13.557  2.0704  1.2766 -0.4273
10930TIP3    H254206   0.191   5.551  13.580 -0.6288 -1.4165 -0.8688
10931TIP3   OH254207   2.951   1.329  15.975 -0.1481  0.2802  0.2580
10931TIP3    H154208   2.927   1.396  15.911 -0.5449 -1.0283 -1.0084
10931TIP3    H254209   2.876   1.270  15.977  0.1108 -0.0241  1.5094
10932TIP3   OH254210   5.346   0.978  11.832 -0.4197 -0.2522  0.1976
10932TIP3    H154211   5.396   0.965  11.912  0.9911 -0.4087 -0.6800
10932TIP3    H254212   5.294   0.898  11.823  0.1123 -0.6351  0.4749
10933TIP3   OH254213   2.422   0.695   5.627  0.0594 -0.2372  0.1012
10933TIP3    H154214   2.488   0.744   5.675 -1.4807  1.6752  0.3600
10933TIP3    H254215   2.339   0.736   5.650 -1.0238 -1.1447 -1.9062
10934TIP3   OH254216   5.622   1.126  14.082 -0.2454  0.0883  0.4919
10934TIP3    H154217   5.532   1.105  14.057 -0.1349 -0.2866  0.4091
10934TIP3    H254218   5.623   1.221  14.089 -0.4758  0.1446 -0.1667
10935TIP3   OH254219   1.087   3.782  12.081  0.1964 -0.2477  0.3690
10935TIP3    H154220   1.090   3.709  12.018 -2.3245 -0.0083 -0.1641
10935TIP3    H254221   1.170   3.828  12.069  1.3570 -2.3327 -0.1188
10936TIP3   OH254222   5.180   2.886   4.343 -0.4404  0.0663 -0.6054
10936TIP3    H154223   5.243   2.922   4.406 -0.0810  1.1533 -1.5667
10936TIP3    H254224   5.204   2.926   4.260 -2.9228  1.1937 -0.8594
10937TIP3   OH254225   5.061   3.554  16.649  0.3685 -0.8383 -0.1159
10937TIP3    H154226   5.061   3.522  16.559 -1.2497 -0.6816 -0.2039
10937TIP3    H254227   5.056   3.475  16.703 -0.1742 -0.8810 -0.2231
10938TIP3   OH254228   0.381   4.542  14.244  0.5894  0.2180 -0.9864
10938TIP3    H154229   0.405   4.502  14.161 -0.0903 -1.5636 -0.3559
10938TIP3    H254230   0.316   4.609  14.221  0.4411 -0.2307 -1.8837
10939TIP3   OH254231   4.261   5.645   1.626  0.1566 -0.9103  1.1186
10939TIP3    H154232   4.275   5.611   1.714  2.3695 -4.3550 -0.3770
10939TIP3    H254233   4.198   5.585   1.587  0.7901 -0.6874 -0.3061
10940TIP3   OH254234   3.966   0.467  15.383  0.4712 -0.3779 -0.6806
10940TIP3    H154235   3.880   0.505  15.400  0.5043  0.7634 -2.6654
10940TIP3    H254236   3.970   0.391  15.440 -1.8785 -0.4929 -0.5429
10941TIP3   OH254237   3.393   3.741   3.077  0.0010  0.9339 -0.0087
10941TIP3    H154238   3.395   3.827   3.036 -0.2511  0.7539 -0.4062
10941TIP3    H254239   3.318   3.697   3.037  0.5875  0.2483 -0.3975
10942TIP3   OH254240   1.884   4.469  13.447 -0.5505 -0.0257  0.0852
10942TIP3    H154241   1.966   4.462  13.494  0.8864 -1.7495 -2.4335
10942TIP3    H254242   1.817   4.440  13.509  1.1888 -2.0003  1.1533
10943TIP3   OH254243   4.799   1.715   4.049  0.3994 -0.1448  0.4163
10943TIP3    H154244   4.868   1.766   4.006 -0.1696  0.3085  0.0322
10943TIP3    H254245   4.809   1.737   4.142  0.7076 -0.0070  0.3533
10944TIP3   OH254246   5.972   4.974  15.718 -0.6076  0.5510  0.2440
10944TIP3    H154247   5.907   4.914  15.754 -0.6651  1.0126  0.9152
10944TIP3    H254248   6.047   4.918  15.696 -0.2595  0.3571  1.8202
10945TIP3   OH254249   2.881   0.303  11.415  0.3924 -0.1904  0.3551
10945TIP3    H154250   2.907   0.324  11.505  1.2434  0.9783 -0.1317
10945TIP3    H254251   2.950   0.342  11.361  0.1897 -1.3683 -0.7847
10946TIP3   OH254252   5.777   3.646   2.124 -0.2481  0.2509 -0.0559
10946TIP3    H154253   5.796   3.676   2.213  0.3804  1.2190 -0.4953
10946TIP3    H254254   5.803   3.555   2.123  0.8875  0.5585  0.4176
10947TIP3   OH254255   1.527   3.088  14.079 -0.1014 -0.2586 -0.8485
10947TIP3    H154256   1.612   3.130  14.070 -0.4276  0.8681  0.7679
10947TIP3    H254257   1.468   3.144  14.029 -0.4889  1.2117  1.0932
10948TIP3   OH254258   6.364   4.606  16.259  0.3035  0.3753  0.4590
10948TIP3    H154259   6.330   4.677  16.313  0.7406  0.3591  0.7619
10948TIP3    H254260   6.432   4.647  16.205 -0.4497  0.4920 -0.4229
10949TIP3   OH254261   1.688   5.880   5.070  0.5638  0.7298 -0.1774
10949TIP3    H154262   1.705   5.899   5.163 -0.7959  3.5423 -0.4327
10949TIP3    H254263   1.596   5.902   5.057 -1.0488 -4.9452 -1.0301
10950TIP3   OH254264   2.258   4.112  15.543 -0.3334  0.9224  0.1330
10950TIP3    H154265   2.318   4.148  15.608  0.3191  0.6360 -0.3009
10950TIP3    H254266   2.309   4.108  15.463 -0.6923 -0.0540 -0.0593
10951TIP3   OH254267   2.769   0.689  13.015  0.0778  0.2779  0.2890
10951TIP3    H154268   2.729   0.713  12.931  1.0731 -0.0631 -0.3121
10951TIP3    H254269   2.696   0.667  13.072 -0.5482 -2.2262 -1.3432
10952TIP3   OH254270   0.861   2.323   3.118 -0.2967  0.6776 -0.5541
10952TIP3    H154271   0.862   2.304   3.212  0.1998  0.7171 -0.5491
10952TIP3    H254272   0.953   2.335   3.095 -0.5403  2.4748 -0.6760
10953TIP3   OH254273   1.821   0.558  12.832  0.2296 -0.1440 -0.4080
10953TIP3    H154274   1.904   0.521  12.801  1.5710  3.1920 -1.1581
10953TIP3    H254275   1.767   0.564  12.753 -0.8116 -2.2340  0.0654
10954TIP3   OH254276   1.609   6.477   2.212 -0.0530  0.4256 -0.6095
10954TIP3    H154277   1.642   6.538   2.146 -0.7853  0.0670 -1.3227
10954TIP3    H254278   1.514   6.490   2.211 -0.0702  0.4495  0.4197
10955TIP3   OH254279   3.507   1.342   3.901 -0.2701  1.0838  0.3844
10955TIP3    H154280   3.470   1.399   3.968 -0.4250 -1.2764  2.4676
10955TIP3    H254281   3.455   1.261   3.908  0.7972  0.1719 -1.4771
10956TIP3   OH254282   4.898   0.579  14.338  0.2842  0.0150  0.0480
10956TIP3    H154283   4.974   0.533  14.305  0.2731  0.1856 -0.2213
10956TIP3    H254284   4.892   0.658  14.283  1.5280  1.4122  1.8119
10957TIP3   OH254285   4.192   1.210   3.874 -0.1729 -0.2917 -0.0675
10957TIP3    H154286   4.282   1.223   3.905  0.1582  1.3500 -1.5011
10957TIP3    H254287   4.186   1.117   3.855  0.2283 -0.9974  2.8011
10958TIP3   OH254288   2.037   6.201   0.961 -0.2362  0.3039  0.3038
10958TIP3    H154289   2.000   6.284   0.932 -2.0025 -1.4778 -3.1635
10958TIP3    H254290   2.108   6.183   0.900 -0.7127 -1.2963  0.1692
10959TIP3   OH254291   1.725   4.330   5.452  0.1216 -0.6405  0.5661
10959TIP3    H154292   1.692   4.244   5.479  1.8493 -1.7381 -0.6202
10959TIP3    H254293   1.756   4.317   5.363  2.4545  0.6338  1.1238
10960TIP3   OH254294   2.324   5.754   5.524 -0.2504 -0.4907  0.0420
10960TIP3    H154295   2.417   5.759   5.502 -0.3802  0.4331 -0.3502
10960TIP3    H254296   2.281   5.808   5.457 -0.7292  2.0228  2.2169
10961TIP3   OH254297   2.426   5.537  11.779 -0.6050 -0.1272  0.1112
10961TIP3    H154298   2.412   5.602  11.849 -0.2826 -0.3175  0.3536
10961TIP3    H254299   2.481   5.470  11.819  2.1529  1.2073 -1.1703
10962TIP3   OH254300   4.190   1.383   6.307 -0.2872 -0.1313 -0.1363
10962TIP3    H154301   4.265   1.416   6.355 -0.5752 -0.3179  0.4556
10962TIP3    H254302   4.212   1.292   6.286 -0.2383 -0.1062 -0.1932
10963TIP3   OH254303   0.647   4.446   4.108 -0.0908  0.1844  0.5507
10963TIP3    H154304   0.735   4.415   4.085  0.1081  1.1621 -0.0983
10963TIP3    H254305   0.624   4.398   4.188  0.3028 -1.3870 -0.2279
10964TIP3   OH254306   4.800   1.805   2.970 -0.5530  0.1851  0.3880
10964TIP3    H154307   4.832   1.866   3.036 -0.1550  1.1357 -0.6565
10964TIP3    H254308   4.739   1.857   2.917 -0.5902 -0.4627 -0.2197
10965TIP3   OH254309   0.313   5.570   1.727  0.2739 -0.4374  0.1127
10965TIP3    H154310   0.398   5.553   1.767  0.4879 -1.9531 -0.8891
10965TIP3    H254311   0.333   5.593   1.636 -0.3270  0.3744  0.1729
10966TIP3   OH254312   4.064   3.473  14.098 -0.2278  0.4923  0.4211
10966TIP3    H154313   4.076   3.562  14.065 -0.8989  0.0569 -1.0513
10966TIP3    H254314   3.969   3.460  14.101 -0.2055 -1.2767 -2.6143
10967TIP3   OH254315   3.428   2.270   0.614  0.1245  0.0371 -0.1456
10967TIP3    H154316   3.454   2.198   0.671  1.0428 -0.6764 -1.4203
10967TIP3    H254317   3.508   2.321   0.602 -0.4762  1.2130  0.6105
10968TIP3   OH254318   1.716   3.739   2.863  0.1813 -0.2698 -0.6136
10968TIP3    H154319   1.710   3.830   2.892  1.3751 -0.3255 -0.1054
10968TIP3    H254320   1.803   3.733   2.822  0.4584 -1.3755  0.1034
10969TIP3   OH254321   1.278   5.864  12.619 -0.0091  0.2554  0.4341
10969TIP3    H154322   1.330   5.855  12.539  0.5737 -0.6239  0.8838
10969TIP3    H254323   1.244   5.776  12.635 -1.0724  0.6701  0.5363
10970TIP3   OH254324   2.874   5.459   2.309  0.5746 -0.3509  0.0788
10970TIP3    H154325   2.951   5.409   2.336  0.3144  0.4698  2.5228
10970TIP3    H254326   2.904   5.507   2.231  1.6425 -2.1252 -0.6805
10971TIP3   OH254327   6.625   5.853  14.563 -0.0528 -0.0676  0.4795
10971TIP3    H154328   6.671   5.812  14.490  0.1979 -1.0888  1.2036
10971TIP3    H254329   6.679   5.930  14.584 -0.2381  0.3639 -0.5226
10972TIP3   OH254330   5.482   4.856   3.332 -0.4736  0.2756 -0.2161
10972TIP3    H154331   5.394   4.856   3.369 -0.0174 -0.2450  0.9514
10972TIP3    H254332   5.540   4.855   3.409  0.5350 -0.0709 -0.9556
10973TIP3   OH254333   0.610   4.421   1.051 -0.2436  0.2238 -0.3250
10973TIP3    H154334   0.593   4.440   1.143  0.3284 -0.9339  0.0477
10973TIP3    H254335   0.692   4.467   1.031  0.4054 -0.6845  0.1741
10974TIP3   OH254336   6.286   5.324  13.952  0.0239 -0.4709 -0.4049
10974TIP3    H154337   6.335   5.247  13.980 -0.2942 -0.1653  1.0842
10974TIP3    H254338   6.229   5.344  14.026 -1.7578 -0.3125 -1.7321
10975TIP3   OH254339   5.170   1.479   2.133  0.4158  0.0152 -0.1735
10975TIP3    H154340   5.090   1.512   2.172 -0.0108 -0.2038 -0.8458
10975TIP3    H254341   5.208   1.554   2.087 -0.4092 -0.3327 -1.4673
10976TIP3   OH254342   5.772   5.430   5.212  0.1475 -0.4962  0.1784
10976TIP3    H154343   5.695   5.417   5.267 -0.4246  0.5206 -0.3507
10976TIP3    H254344   5.787   5.346   5.169 -1.1893 -0.4700 -0.3671
10977TIP3   OH254345   5.384   5.994  14.758  0.2544 -0.4380  0.1351
10977TIP3    H154346   5.307   5.944  14.733  0.9724 -2.0723  1.0837
10977TIP3    H254347   5.390   5.984  14.853  1.5019 -0.1298  0.1087
10978TIP3   OH254348   5.073   1.199  13.041 -0.0705  0.6995 -0.0142
10978TIP3    H154349   5.149   1.257  13.050 -1.1669  2.6606 -2.2084
10978TIP3    H254350   5.011   1.250  12.989 -1.5650 -2.1101 -1.1640
10979TIP3   OH254351   6.595   5.458   0.478 -0.3396  0.4896 -0.0814
10979TIP3    H154352   6.605   5.431   0.569 -1.0831  0.4150 -0.0097
10979TIP3    H254353   6.611   5.379   0.427 -0.1169  0.4866 -0.0074
10980TIP3   OH254354   0.725   0.413  13.416 -0.5209 -0.5316 -0.8795
10980TIP3    H154355   0.783   0.397  13.341  1.2462  1.6764 -0.1203
10980TIP3    H254356   0.677   0.492  13.392  0.5443  0.5861  0.5192
10981TIP3   OH254357   3.735   0.675  17.154  0.1079 -0.2463 -0.4886
10981TIP3    H154358   3.776   0.745  17.206  1.1589 -2.1470  1.4106
10981TIP3    H254359   3.795   0.662  17.081 -1.4724  2.5789 -2.4905
10982TIP3   OH254360   5.196   3.249   2.631  0.8039  0.0660 -0.1107
10982TIP3    H154361   5.127   3.283   2.688 -0.3036  0.6105 -1.7038
10982TIP3    H254362   5.233   3.326   2.590  1.3294 -0.3446 -0.4121
10983TIP3   OH254363   6.320   1.821  15.672  0.8415  0.0677 -0.1791
10983TIP3    H154364   6.253   1.782  15.729  1.9773 -0.3685  0.9059
10983TIP3    H254365   6.396   1.764  15.682  1.5155  0.7899 -1.0552
10984TIP3   OH254366   5.736   3.332   0.809 -0.0705  0.4465 -0.0353
10984TIP3    H154367   5.681   3.372   0.877  0.4026 -0.2692  0.7778
10984TIP3    H254368   5.825   3.343   0.841  0.0543 -1.5688  0.3861
10985TIP3   OH254369   3.913   5.049  12.055  0.0336  0.1918  0.6305
10985TIP3    H154370   3.906   5.035  11.961 -0.2985  2.0881  0.3470
10985TIP3    H254371   3.874   4.969  12.093 -2.8785  0.7497 -0.8711
10986TIP3   OH254372   6.411   2.449  15.548 -0.1628 -0.1715 -0.1814
10986TIP3    H154373   6.475   2.382  15.572  0.7797  0.9108  0.4346
10986TIP3    H254374   6.463   2.528  15.531 -1.2981  0.6801  0.1155
10987TIP3   OH254375   3.787   3.349  10.615 -0.2503 -0.0523  0.2104
10987TIP3    H154376   3.837   3.269  10.600  0.1236  0.0996  0.6407
10987TIP3    H254377   3.837   3.417  10.571  0.0938  0.1534  0.9078
10988TIP3   OH254378   2.646   5.248   5.341  0.5601 -0.3178  0.2833
10988TIP3    H154379   2.595   5.261   5.261 -0.6573 -2.7235  0.5833
10988TIP3    H254380   2.613   5.315   5.402  0.3374  0.4588 -0.6689
10989TIP3   OH254381   2.388   1.185   5.102 -0.1721 -0.2511  0.2523
10989TIP3    H154382   2.391   1.279   5.085 -0.5197  0.1143  2.0114
10989TIP3    H254383   2.294   1.164   5.102 -0.0852 -0.6587 -0.3955
10990TIP3   OH254384   0.038   2.253  14.787 -0.7889  0.1968 -0.0146
10990TIP3    H154385  -0.011   2.172  14.798  1.5902 -1.0869  2.1956
10990TIP3    H254386   0.047   2.263  14.692 -1.2987 -2.0275 -0.3520
10991TIP3   OH254387   4.266   5.453   5.496 -0.2428  0.0280  1.0075
10991TIP3    H154388   4.285   5.366   5.460 -0.6946 -0.1176  1.1141
10991TIP3    H254389   4.175   5.447   5.525 -1.4894  1.5649 -2.0866
10992TIP3   OH254390   1.344   5.380  16.836  0.1030 -0.1153 -0.0765
10992TIP3    H154391   1.291   5.306  16.809  1.8628 -1.3397 -0.3334
10992TIP3    H254392   1.361   5.365  16.929 -0.3139  0.4913  0.1061
10993TIP3   OH254393   1.229   5.195  14.351 -0.2231 -0.0226 -0.3962
10993TIP3    H154394   1.136   5.201  14.328  0.0894 -0.0459 -1.7380
10993TIP3    H254395   1.242   5.103  14.376 -0.1757 -0.4828 -2.0384
10994TIP3   OH254396   6.442   1.591  12.551  0.1469  0.5788 -0.1965
10994TIP3    H154397   6.416   1.586  12.643  0.5638  0.5394 -0.0784
10994TIP3    H254398   6.448   1.499  12.523 -1.8964  0.5821 -0.8239
10995TIP3   OH254399   4.657   5.492   1.934 -0.3231  0.1594 -0.5527
10995TIP3    H154400   4.677   5.401   1.913 -0.3214 -0.0376  0.3032
10995TIP3    H254401   4.615   5.526   1.855 -0.8805 -0.7510 -0.6573
10996TIP3   OH254402   2.169   0.302   2.901  0.0551 -0.6280 -0.1566
10996TIP3    H154403   2.217   0.279   2.981  2.5263  0.1923 -1.3092
10996TIP3    H254404   2.133   0.218   2.870  0.3137 -1.1998  1.0193
10997TIP3   OH254405   4.233   0.175   2.090 -0.0966 -0.1670  0.2112
10997TIP3    H154406   4.163   0.111   2.097  2.5525 -3.4139 -0.4683
10997TIP3    H254407   4.289   0.158   2.166  1.2294  0.6256 -0.5500
10998TIP3   OH254408   3.967   2.775  13.603 -0.0022 -0.2003 -0.1268
10998TIP3    H154409   3.998   2.809  13.519  0.2435 -0.2482 -0.0565
10998TIP3    H254410   3.919   2.695  13.580 -1.1140  0.5117 -0.3535
10999TIP3   OH254411   6.008   6.531  15.011 -0.4020 -0.5666  0.0077
10999TIP3    H154412   5.955   6.553  14.935 -1.4537  0.7851  1.0673
10999TIP3    H254413   5.949   6.479  15.066 -0.7886  1.1113  1.2827
11000TIP3   OH254414   2.168   2.210  11.736  0.0418 -0.1468 -0.2051
11000TIP3    H154415   2.115   2.141  11.776  0.2952 -0.3848 -0.2767
11000TIP3    H254416   2.109   2.250  11.671 -0.1729 -0.1573 -0.0179
11001TIP3   OH254417   1.961   6.445  11.853 -0.0104 -0.1873  0.0273
11001TIP3    H154418   1.881   6.393  11.859 -0.1942  0.2036  1.1675
11001TIP3    H254419   2.021   6.392  11.800 -0.5154 -1.1372  0.3894
11002TIP3   OH254420   2.954   3.214   1.670  1.3980 -0.1032 -0.5208
11002TIP3    H154421   2.986   3.169   1.748 -0.0199  0.3734  0.3580
11002TIP3    H254422   2.884   3.158   1.637  0.0273  1.0992  0.2365
11003TIP3   OH254423   6.133   0.982   4.862  0.0712 -0.4160  0.4922
11003TIP3    H154424   6.048   0.998   4.821 -0.5843  0.5062  2.1469
11003TIP3    H254425   6.152   0.891   4.841 -0.2459 -0.0250 -1.7834
11004TIP3   OH254426   5.483   5.580   5.047 -0.3011 -0.3367  0.1008
11004TIP3    H154427   5.540   5.560   5.121  1.0712  1.3007 -0.4451
11004TIP3    H254428   5.503   5.513   4.982 -0.0449 -0.6229  0.4750
11005TIP3   OH254429   2.712   2.577  14.399 -0.0304  0.3051  0.0918
11005TIP3    H154430   2.782   2.547  14.456  0.1402 -1.0007 -0.7633
11005TIP3    H254431   2.717   2.673  14.403  1.6823  0.2356  0.1888
11006TIP3   OH254432   5.785   6.479   4.538 -0.1400  0.6790  0.5240
11006TIP3    H154433   5.739   6.550   4.492  0.0137  1.3027  1.3155
11006TIP3    H254434   5.718   6.437   4.591  0.0092  0.9918  0.9631
11007TIP3   OH254435   3.029   2.094  12.330 -0.2957  0.2556  0.1382
11007TIP3    H154436   2.975   2.087  12.409  0.1304 -0.1419  0.4000
11007TIP3    H254437   3.119   2.093  12.363  0.0077 -2.8013 -0.5100
11008TIP3   OH254438   0.633   5.757  14.945 -0.6657  0.3954  0.1123
11008TIP3    H154439   0.651   5.845  14.911  0.4832 -0.7957 -2.6116
11008TIP3    H254440   0.704   5.740  15.007  1.6596 -0.1156 -2.4942
11009TIP3   OH254441   5.860   6.281   6.701 -0.1907  0.0152  0.5410
11009TIP3    H154442   5.787   6.243   6.749 -0.1818  0.8955  1.2885
11009TIP3    H254443   5.898   6.345   6.761  0.8099  0.0221 -0.0672
11010TIP3   OH254444   2.075   6.618  13.296  0.2505 -0.4885  0.5678
11010TIP3    H154445   2.001   6.671  13.265 -0.2072 -0.3409  1.8471
11010TIP3    H254446   2.145   6.637  13.234  0.2301  1.9547  1.1693
11011TIP3   OH254447   5.718   1.338   1.040 -0.4467  0.0202 -0.0276
11011TIP3    H154448   5.738   1.299   1.125  0.7185 -0.1275 -0.3523
11011TIP3    H254449   5.679   1.423   1.061 -0.5168 -0.1758  0.6497
11012TIP3   OH254450   6.528   1.427   5.721  0.1245  0.1816 -0.0126
11012TIP3    H154451   6.571   1.448   5.804  1.7641 -0.2580 -0.7018
11012TIP3    H254452   6.513   1.333   5.724 -0.8459  0.3383  0.2345
11013TIP3   OH254453   2.770   3.635  16.375 -0.0964  0.2137  0.3816
11013TIP3    H154454   2.791   3.641  16.468 -0.2120  0.0445  0.4202
11013TIP3    H254455   2.854   3.639  16.331 -0.1035  1.1367  0.4515
11014TIP3   OH254456   0.660   4.369   2.912 -0.3733  0.3520  0.7299
11014TIP3    H154457   0.660   4.326   2.997  1.0192  0.0391  0.5977
11014TIP3    H254458   0.605   4.314   2.857 -0.4442 -0.0154  1.1597
11015TIP3   OH254459   4.972   2.491   2.292 -0.1425 -0.1761 -0.3938
11015TIP3    H154460   4.905   2.551   2.325 -0.9854 -0.2018 -1.9739
11015TIP3    H254461   5.045   2.499   2.354 -1.3944  0.2482  1.0587
11016TIP3   OH254462   0.866   2.942   5.202 -0.1380 -0.0196 -0.0725
11016TIP3    H154463   0.834   3.032   5.212  1.5938  0.8625 -1.7810
11016TIP3    H254464   0.912   2.942   5.118 -1.8759 -3.0990 -1.1815
11017TIP3   OH254465   2.369   5.191   6.138 -0.4285  0.8320 -0.2585
11017TIP3    H154466   2.426   5.135   6.192 -1.1038  0.2438 -0.1449
11017TIP3    H254467   2.425   5.265   6.114  0.1447  0.6774  0.5336
11018TIP3   OH254468   6.645   2.290   0.874  0.2409  0.0916 -0.0637
11018TIP3    H154469   6.642   2.194   0.879  0.0746  0.1535  1.7987
11018TIP3    H254470   6.568   2.314   0.824  0.4119 -0.7440 -0.7657
11019TIP3   OH254471   3.504   0.914   0.677  0.0260  0.3454 -0.6968
11019TIP3    H154472   3.506   0.856   0.601  3.8151 -0.6680 -0.0420
11019TIP3    H254473   3.554   0.991   0.649  2.4005 -0.4857  0.9203
11020TIP3   OH254474   2.675   6.477  13.560  0.3483 -1.0845  0.2408
11020TIP3    H154475   2.731   6.485  13.637  1.1331 -1.2107 -0.3038
11020TIP3    H254476   2.657   6.568  13.536  1.8707 -0.9773 -0.6613
11021TIP3   OH254477   3.378   0.513  14.433 -0.1106 -0.0532 -0.3541
11021TIP3    H154478   3.442   0.584  14.428  0.9976 -0.9539  0.4664
11021TIP3    H254479   3.398   0.457  14.359 -0.0417 -0.2621 -0.1789
11022TIP3   OH254480   1.355   2.826  13.613  0.0477 -0.1384  0.3086
11022TIP3    H154481   1.362   2.903  13.670 -1.0423 -1.1160  1.8373
11022TIP3    H254482   1.415   2.762  13.652  0.1589 -0.4312 -0.3313
11023TIP3   OH254483   3.631   1.822  13.422  0.0149  0.6366  0.2589
11023TIP3    H154484   3.540   1.797  13.435  0.3617 -0.6937  0.2597
11023TIP3    H254485   3.652   1.878  13.497 -0.8535  1.1636  0.1259
11024TIP3   OH254486   1.250   5.524  15.175  0.2202 -0.0460  0.1891
11024TIP3    H154487   1.258   5.500  15.267 -1.2797  0.6351  0.5288
11024TIP3    H254488   1.315   5.593  15.163  2.3931 -2.0224 -0.0211
11025TIP3   OH254489   3.205   0.289  15.833  0.1347 -0.0599  0.4550
11025TIP3    H154490   3.129   0.339  15.805  0.8875  0.0025 -1.5764
11025TIP3    H254491   3.256   0.350  15.886  1.1550  1.4927 -2.1631
11026TIP3   OH254492   1.895   0.337  11.622 -0.5835  0.6823  0.3396
11026TIP3    H154493   1.845   0.281  11.681  1.7046 -1.4714  0.4139
11026TIP3    H254494   1.969   0.367  11.676  0.9417 -0.4073 -1.0404
11027TIP3   OH254495   3.741   4.303   2.584  0.1520  0.2625  0.2108
11027TIP3    H154496   3.788   4.275   2.662 -1.0080 -0.0156  0.8315
11027TIP3    H254497   3.692   4.381   2.611  1.5286  1.5911 -0.8816
11028TIP3   OH254498   4.460   5.079   1.279 -0.1385  0.1199 -0.3577
11028TIP3    H154499   4.523   5.012   1.252 -0.1735 -0.2251  0.3968
11028TIP3    H254500   4.381   5.029   1.302 -0.2679  0.4428 -0.0972
11029TIP3   OH254501   2.116   1.104   5.284  0.1697 -0.4385  0.4992
11029TIP3    H154502   2.184   1.108   5.352  1.0396 -0.7145 -0.3280
11029TIP3    H254503   2.099   1.196   5.262 -0.5350 -0.3218  1.4784
11030TIP3   OH254504   1.563   1.490  11.085  0.4509  0.5796 -0.1111
11030TIP3    H154505   1.645   1.537  11.098  0.0071  1.6543 -0.9497
11030TIP3    H254506   1.527   1.528  11.004 -0.0958 -0.9886 -0.6348
11031TIP3   OH254507   3.051   5.445  14.735  0.0025  0.4350 -0.2201
11031TIP3    H154508   3.042   5.537  14.760  0.7611  0.4569  0.0000
11031TIP3    H254509   2.962   5.417  14.715 -0.0606  1.6271 -1.7796
11032TIP3   OH254510   6.418   1.285  16.377 -0.1224 -0.1260 -0.4264
11032TIP3    H154511   6.340   1.323  16.419  0.3898 -0.2843  0.6842
11032TIP3    H254512   6.384   1.211  16.326 -0.8410  0.4892 -0.8702
11033TIP3   OH254513   1.808   0.883  16.497  0.2121 -0.6736  0.0144
11033TIP3    H154514   1.846   0.872  16.409  0.4633 -0.5805  0.1083
11033TIP3    H254515   1.855   0.821  16.551  1.0510  0.2402  0.3733
11034TIP3   OH254516   3.976   1.346   4.610 -0.2754 -0.0936 -0.5744
11034TIP3    H154517   4.010   1.419   4.558 -0.5307  1.3266  1.1795
11034TIP3    H254518   3.991   1.269   4.555  2.5239  0.9026 -1.3532
11035TIP3   OH254519   6.517   1.132  16.118  0.3486  0.1667 -0.0131
11035TIP3    H154520   6.596   1.103  16.163 -0.6414 -0.3848  1.4272
11035TIP3    H254521   6.549   1.166  16.034  2.2065  0.8359  0.9031
11036TIP3   OH254522   2.919   3.873   5.627 -0.1466  0.0106  0.2735
11036TIP3    H154523   2.828   3.900   5.611 -0.6150 -1.5486  0.0780
11036TIP3    H254524   2.911   3.797   5.684  1.0506 -0.1356  0.2630
11037TIP3   OH254525   0.692   0.409   3.291  0.0776 -0.6370  0.2969
11037TIP3    H154526   0.711   0.415   3.198 -0.0032 -0.8469  0.2664
11037TIP3    H254527   0.697   0.315   3.311 -2.0516 -0.8630  0.0473
11038TIP3   OH254528   1.355   1.712   2.946  0.3412 -0.1092 -0.0894
11038TIP3    H154529   1.331   1.696   2.855 -0.9194 -0.1535  0.2381
11038TIP3    H254530   1.277   1.690   2.996  0.3557  1.7709  0.8498
11039TIP3   OH254531   6.755   5.168  15.103  1.0010 -0.1384 -0.2067
11039TIP3    H154532   6.817   5.149  15.032  0.9725  0.9643 -0.5450
11039TIP3    H254533   6.806   5.157  15.183  1.6491  0.7651 -0.4829
11040TIP3   OH254534   0.740   0.841   4.662 -0.8238 -0.1981 -0.7378
11040TIP3    H154535   0.824   0.822   4.620  0.3340  2.4617  0.1460
11040TIP3    H254536   0.731   0.774   4.729  0.7630 -0.3874 -0.6703
11041TIP3   OH254537   1.687   3.686  11.376 -0.4220  0.1777  0.0103
11041TIP3    H154538   1.767   3.656  11.334  0.8028  2.4291  0.5581
11041TIP3    H254539   1.635   3.607  11.389  1.6498 -1.3380 -0.4856
11042TIP3   OH254540   3.547   0.845   2.997 -0.1557  0.1171 -0.5791
11042TIP3    H154541   3.589   0.819   2.914  0.2542  0.6156 -0.5396
11042TIP3    H254542   3.534   0.764   3.044  0.7095 -0.0668 -0.6319
11043TIP3   OH254543   6.558   3.779  14.464  0.0003  0.2609  0.6886
11043TIP3    H154544   6.507   3.803  14.542  0.3568  1.6718  0.5247
11043TIP3    H254545   6.534   3.845  14.399  2.4775  1.3852  0.8018
11044TIP3   OH254546   2.631   2.912   2.877 -0.5224  0.8007 -0.0169
11044TIP3    H154547   2.650   2.949   2.964 -2.9558 -0.0392  0.9429
11044TIP3    H254548   2.709   2.860   2.857 -1.1756 -1.7954  3.3026
11045TIP3   OH254549   0.259   6.454  15.448 -0.4521  0.0484  0.5223
11045TIP3    H154550   0.309   6.516  15.395  0.8899 -4.0120 -3.5973
11045TIP3    H254551   0.168   6.469  15.424 -0.1112  0.1790 -0.7553
11046TIP3   OH254552   6.441   2.695   4.023 -0.3818  0.6103 -0.3368
11046TIP3    H154553   6.487   2.667   3.944  0.6700  1.8001 -0.1894
11046TIP3    H254554   6.487   2.649   4.094  0.1029  1.2012 -0.2554
11047TIP3   OH254555   5.240   0.125  16.870  0.0441 -0.4796 -0.1239
11047TIP3    H154556   5.146   0.123  16.888  0.2042  2.1419  1.5698
11047TIP3    H254557   5.281   0.130  16.957  1.9246 -3.0581 -0.7176
11048TIP3   OH254558   5.251   2.254   0.953  0.4269 -0.0041  0.0116
11048TIP3    H154559   5.297   2.180   0.993  0.0720 -0.2700 -0.0695
11048TIP3    H254560   5.284   2.258   0.864 -0.0724 -0.5090 -0.1998
11049TIP3   OH254561   6.545   1.302  15.204 -0.5656 -0.3902  0.4135
11049TIP3    H154562   6.543   1.326  15.296  1.8080 -0.1296  0.4604
11049TIP3    H254563   6.563   1.384  15.158  0.7359 -0.9106 -0.0372
11050TIP3   OH254564   5.681   5.556   2.380  0.0316  0.4621  0.2471
11050TIP3    H154565   5.657   5.475   2.336 -0.1093  0.8152 -0.3308
11050TIP3    H254566   5.762   5.583   2.337  0.4363  0.2903  0.8822
11051TIP3   OH254567   5.590   3.095   0.786  0.0793  0.1939 -0.1251
11051TIP3    H154568   5.659   3.161   0.774 -0.1694  0.8115  1.5819
11051TIP3    H254569   5.594   3.072   0.879 -1.6458 -0.1641 -0.0985
11052TIP3   OH254570   1.196   0.852  14.611  0.3786 -0.2715  0.1149
11052TIP3    H154571   1.173   0.881  14.700  0.3740 -2.0452  0.7479
11052TIP3    H254572   1.271   0.794  14.624  1.2813  0.5440 -1.2311
11053TIP3   OH254573   1.341   4.840  16.443  0.1113  0.2830 -0.0349
11053TIP3    H154574   1.256   4.817  16.481  0.6162 -0.7568  0.5137
11053TIP3    H254575   1.404   4.786  16.490  0.9866  0.3709 -1.0571
11054TIP3   OH254576   5.325   6.362   2.109 -0.4371  0.2566 -0.4667
11054TIP3    H154577   5.374   6.441   2.133 -0.4227  0.1915 -0.2836
11054TIP3    H254578   5.392   6.296   2.094 -0.5013 -0.2327  1.1687
11055TIP3   OH254579   3.432   0.271   0.613 -0.8233 -0.3636  0.3032
11055TIP3    H154580   3.350   0.229   0.639 -0.1409 -1.4245  0.8481
11055TIP3    H254581   3.497   0.201   0.619  0.2569  0.6369  0.6346
11056TIP3   OH254582   1.007   4.612  14.100 -0.5694  0.0417 -0.3539
11056TIP3    H154583   0.913   4.600  14.115  0.0093 -2.9503  1.7211
11056TIP3    H254584   1.036   4.666  14.174 -0.4731  0.0777 -0.4183
11057TIP3   OH254585   4.743   5.663   5.295 -0.0511 -0.0994  0.3545
11057TIP3    H154586   4.682   5.592   5.313 -1.6724  1.0763 -0.2789
11057TIP3    H254587   4.778   5.687   5.380 -1.8091  0.3238  1.0037
11058TIP3   OH254588   2.775   2.986  11.093 -0.2048  0.1598 -0.0398
11058TIP3    H154589   2.700   2.975  11.153 -0.5020 -0.0743 -0.4482
11058TIP3    H254590   2.738   2.973  11.006  0.2559  0.3582 -0.2672
11059TIP3   OH254591   1.115   5.385   0.287 -0.4929 -0.2798  0.4952
11059TIP3    H154592   1.020   5.398   0.284 -0.2756  1.4897 -0.9616
11059TIP3    H254593   1.150   5.459   0.237  1.5852 -1.7460 -0.3217
11060TIP3   OH254594   3.102   5.351   0.398 -0.1542 -0.0008 -0.2483
11060TIP3    H154595   3.181   5.322   0.443  0.2372  0.3793 -0.6966
11060TIP3    H254596   3.044   5.274   0.401 -0.2484  0.1068  1.1552
11061TIP3   OH254597   2.627   3.885  16.701  0.1136  0.4928  0.0717
11061TIP3    H154598   2.702   3.932  16.737  1.3150 -0.8117 -0.6171
11061TIP3    H254599   2.660   3.845  16.620 -1.1138 -0.7263  0.1299
11062TIP3   OH254600   4.014   3.161   3.154  0.5446  0.2925  0.4417
11062TIP3    H154601   3.981   3.148   3.065  2.3005 -0.3441 -0.1496
11062TIP3    H254602   4.046   3.251   3.155  1.3626  0.0097  0.1349
11063TIP3   OH254603   5.942   1.062   1.904 -0.1243 -0.3443  0.4244
11063TIP3    H154604   5.930   0.988   1.845  1.9789 -1.1918  0.9774
11063TIP3    H254605   5.854   1.082   1.936 -1.0450 -1.1182 -1.4586
11064TIP3   OH254606   0.120   1.528   2.268  0.2109 -0.2422  0.5168
11064TIP3    H154607   0.151   1.539   2.358 -0.6466  0.5848  0.7377
11064TIP3    H254608   0.186   1.474   2.226  0.2635 -1.2698  1.8468
11065TIP3   OH254609   4.347   6.113  11.660  0.0625 -0.2273 -0.1314
11065TIP3    H154610   4.292   6.167  11.602 -1.2981 -0.6066  0.7432
11065TIP3    H254611   4.369   6.172  11.732  1.3355  0.0966 -0.7629
11066TIP3   OH254612   3.703   4.362   4.043 -0.1605  0.2021 -0.2272
11066TIP3    H154613   3.625   4.404   4.006 -0.2166 -0.4872 -0.9137
11066TIP3    H254614   3.754   4.336   3.966  0.0622 -0.6255  0.1925
11067TIP3   OH254615   2.801   2.005   0.519 -0.2837  0.1563 -0.0792
11067TIP3    H154616   2.713   2.044   0.515 -0.4635 -0.2439 -0.0270
11067TIP3    H254617   2.804   1.945   0.445  0.1789  0.6429 -0.4640
11068TIP3   OH254618   3.225   0.041  17.228  0.6406 -0.5976 -0.2688
11068TIP3    H154619   3.223   0.127  17.269  0.4085 -0.0657 -1.3556
11068TIP3    H254620   3.309   0.038  17.182  0.7831 -1.0767  0.0210
11069TIP3   OH254621   3.787   5.968  12.794  0.6501 -0.2492 -0.3367
11069TIP3    H154622   3.833   6.046  12.826  1.3795 -0.4886 -0.7663
11069TIP3    H254623   3.818   5.958  12.704 -0.1095 -0.5335 -0.5762
11070TIP3   OH254624   3.877   2.229   1.063 -0.3391  0.2015 -0.5644
11070TIP3    H154625   3.826   2.245   1.142 -0.4694  1.4543 -0.8886
11070TIP3    H254626   3.811   2.205   0.997 -0.2022 -1.1563 -0.2377
11071TIP3   OH254627   6.600   5.705  13.546  0.0020 -0.1124  0.4127
11071TIP3    H154628   6.615   5.611  13.553 -0.6740 -0.2859 -0.3217
11071TIP3    H254629   6.513   5.718  13.585 -0.5163 -0.0156 -0.7209
11072TIP3   OH254630   1.695   1.757   3.361  0.2183  0.4712  0.0702
11072TIP3    H154631   1.764   1.810   3.401  2.2813 -1.2407 -0.9941
11072TIP3    H254632   1.620   1.816   3.354  1.8630  2.7389  0.4169
11073TIP3   OH254633   1.833   0.081  16.908 -0.3282  0.0119 -0.2968
11073TIP3    H154634   1.922   0.107  16.885 -0.8623  0.9073 -1.4227
11073TIP3    H254635   1.842  -0.007  16.945  0.8186 -0.6398 -2.0388
11074TIP3   OH254636   2.752   5.617   2.587  0.1243 -0.4847  0.3684
11074TIP3    H154637   2.775   5.550   2.522 -0.1378  0.1410 -0.3953
11074TIP3    H254638   2.799   5.591   2.666  0.8652 -0.9962 -0.2186
11075TIP3   OH254639   1.353   2.034  16.816 -0.4102 -0.0205 -0.7488
11075TIP3    H154640   1.397   1.985  16.886  1.9786  1.5474 -1.0505
11075TIP3    H254641   1.366   2.125  16.839 -1.4650  0.5228 -2.1605
11076TIP3   OH254642   2.057   3.156  16.730 -0.0436  0.2583 -0.1533
11076TIP3    H154643   2.147   3.146  16.699  0.0074 -2.1895  0.5421
11076TIP3    H254644   2.014   3.208  16.662  1.5300  0.2354 -1.2313
11077TIP3   OH254645   2.722   1.211  11.957  0.2526  0.0131 -0.2462
11077TIP3    H154646   2.780   1.281  11.928  0.4062 -0.1372 -0.2985
11077TIP3    H254647   2.661   1.198  11.885  1.3934 -1.2136 -1.0283
11078TIP3   OH254648   5.063   3.444  12.820 -0.0453  0.1163 -0.2396
11078TIP3    H154649   5.111   3.526  12.834  1.4087 -0.3623 -1.8770
11078TIP3    H254650   5.132   3.378  12.811 -1.0395 -0.7724 -1.8059
11079TIP3   OH254651   3.422   0.867   3.400 -0.0515 -0.2040  0.1503
11079TIP3    H154652   3.420   0.789   3.344  0.6702 -0.7845  0.9202
11079TIP3    H254653   3.467   0.933   3.347  1.0795 -0.9006  0.2203
11080TIP3   OH254654   5.668   0.513   6.174 -0.2155  0.1491 -0.1700
11080TIP3    H154655   5.707   0.440   6.125 -3.2897  0.0059 -2.7274
11080TIP3    H254656   5.600   0.472   6.228 -0.1439  0.8523  0.4685
11081TIP3   OH254657   6.763   2.498  15.210 -0.6298 -0.2390  0.1120
11081TIP3    H154658   6.748   2.592  15.202  1.3278  0.3358  2.1051
11081TIP3    H254659   6.808   2.474  15.128  2.7190  1.5515  1.2303
11082TIP3   OH254660   0.957   4.639  13.829  0.0154  0.1255  0.1522
11082TIP3    H154661   0.992   4.638  13.917 -0.9515  0.8896  0.5673
11082TIP3    H254662   1.017   4.584  13.778  0.2949 -0.7288  1.3788
11083TIP3   OH254663   6.464   2.716   5.869 -0.0847  0.3024 -0.4606
11083TIP3    H154664   6.527   2.708   5.941  0.4189 -0.7344 -0.9932
11083TIP3    H254665   6.506   2.671   5.796 -1.0976  0.3098 -1.0618
11084TIP3   OH254666   1.855   3.466  11.583 -0.2232  0.5624 -0.1879
11084TIP3    H154667   1.780   3.521  11.601 -1.1519 -0.6063 -0.3328
11084TIP3    H254668   1.857   3.403  11.656 -0.3283 -0.3721 -0.9682
11085TIP3   OH254669   2.574   1.412   0.572 -0.5955 -0.4226  0.1137
11085TIP3    H154670   2.639   1.342   0.563 -0.7201 -0.6582  0.9664
11085TIP3    H254671   2.618   1.490   0.539 -0.1597 -0.7426 -0.0699
11086TIP3   OH254672   5.658   0.754  10.759  0.1331  0.4333  0.6661
11086TIP3    H154673   5.576   0.777  10.803 -0.2206  0.6775 -0.1004
11086TIP3    H254674   5.650   0.793  10.672  0.8517  0.0273  0.4105
11087TIP3   OH254675   0.136   1.093   1.892 -0.5627 -0.0907 -0.2676
11087TIP3    H154676   0.138   1.007   1.935  1.1570 -0.9694 -1.9221
11087TIP3    H254677   0.198   1.146   1.941 -0.9503 -0.0777  0.2127
11088TIP3   OH254678   0.276   2.011  16.378 -0.1068 -0.0904 -0.0369
11088TIP3    H154679   0.185   2.015  16.406 -0.7050  0.4049 -1.8817
11088TIP3    H254680   0.285   2.082  16.314  1.5660 -0.1506  0.0790
11089TIP3   OH254681   0.946   0.411  14.872 -0.3306  0.0877 -0.3267
11089TIP3    H154682   0.919   0.501  14.858 -0.2227  0.3057  0.8016
11089TIP3    H254683   0.986   0.410  14.959 -1.7910 -1.3624  0.3885
11090TIP3   OH254684   3.187   2.341  16.670  0.2430 -0.0896  0.0236
11090TIP3    H154685   3.265   2.396  16.661 -1.1769  2.5459  2.2274
11090TIP3    H254686   3.199   2.295  16.753 -1.0261  1.3760  1.0798
11091TIP3   OH254687   3.974   2.263  11.360  0.2179 -0.1770  0.2153
11091TIP3    H154688   3.980   2.184  11.306 -1.1536 -0.0963 -0.0982
11091TIP3    H254689   4.014   2.332  11.306  2.4345 -0.8108  0.9310
11092TIP3   OH254690   3.287   5.898   1.387  0.3167  0.3554 -0.1578
11092TIP3    H154691   3.353   5.963   1.407  1.6594 -1.1166  0.4290
11092TIP3    H254692   3.328   5.839   1.323 -0.7233 -0.1147 -0.4300
11093TIP3   OH254693   6.388   4.626   2.409  0.3005  0.2346  0.4702
11093TIP3    H154694   6.316   4.566   2.385 -0.0947  0.6218  0.6740
11093TIP3    H254695   6.412   4.600   2.498 -1.4024  1.8061  1.4638
11094TIP3   OH254696   2.554   4.238  11.751  0.3252  0.4457  0.2915
11094TIP3    H154697   2.459   4.233  11.734 -0.0576 -0.1293  2.3197
11094TIP3    H254698   2.572   4.163  11.808  2.1169  0.2700 -0.4525
11095TIP3   OH254699   0.918   4.439  15.521 -0.1002 -0.2238  0.0520
11095TIP3    H154700   0.845   4.377  15.516 -1.1040  0.8638  0.6121
11095TIP3    H254701   0.981   4.399  15.581 -0.9973 -0.4502  0.8613
11096TIP3   OH254702   1.125   3.192   2.074  0.0255 -0.8505 -0.1454
11096TIP3    H154703   1.195   3.222   2.017  0.2362  1.7269  1.2896
11096TIP3    H254704   1.052   3.173   2.015  0.9091 -0.4231 -1.4195
11097TIP3   OH254705   6.382   0.792   2.131  0.4099  0.1071  0.8443
11097TIP3    H154706   6.316   0.757   2.191  0.9759 -1.1237  0.7950
11097TIP3    H254707   6.462   0.745   2.154  1.0295  0.8325  0.2299
11098TIP3   OH254708   3.271   6.621  13.695  0.8725 -1.4228 -0.2186
11098TIP3    H154709   3.227   6.641  13.777  2.4556 -1.2442  0.6291
11098TIP3    H254710   3.243   6.690  13.635 -0.6312 -1.7981  0.0180
11099TIP3   OH254711   5.489   3.839   5.825 -0.0079 -0.6951  0.3019
11099TIP3    H154712   5.561   3.806   5.880 -0.2303 -2.1906 -0.2592
11099TIP3    H254713   5.521   3.924   5.794  1.3761 -1.1546  0.3636
11100TIP3   OH254714   5.566   1.893   4.267  0.6835 -0.1950  0.1860
11100TIP3    H154715   5.551   1.800   4.250  0.4388 -0.0592 -0.3707
11100TIP3    H254716   5.524   1.910   4.351  1.1785 -0.7044  0.5395
11101TIP3   OH254717   5.458   2.012   4.861  0.4779  0.0243 -0.1361
11101TIP3    H154718   5.377   1.970   4.888  0.3879  0.1624 -0.1931
11101TIP3    H254719   5.521   1.940   4.855  0.9147  0.1798  1.9678
11102TIP3   OH254720   3.647   3.697  11.195  0.3665 -0.2358  0.1555
11102TIP3    H154721   3.671   3.631  11.260 -0.7215  0.2037  1.0550
11102TIP3    H254722   3.590   3.650  11.133  0.3643 -0.3654  0.2555
11103TIP3   OH254723   5.623   5.322  10.638  0.8449 -0.3671 -0.4412
11103TIP3    H154724   5.541   5.275  10.620  1.5472 -1.7726 -0.1819
11103TIP3    H254725   5.640   5.373  10.559 -1.1429  1.3418  0.1520
11104TIP3   OH254726   4.731   4.966  14.819  0.7495  0.0173 -0.7794
11104TIP3    H154727   4.810   4.917  14.797  1.2499  0.7241 -0.5982
11104TIP3    H254728   4.731   5.040  14.758 -0.5813 -0.7744 -1.7887
11105TIP3   OH254729   1.332   1.665  10.665  0.4807 -0.4064  0.2681
11105TIP3    H154730   1.268   1.683  10.597  0.2035 -0.1413  0.5949
11105TIP3    H254731   1.404   1.726  10.648  0.6667 -0.7298 -0.1200
11106TIP3   OH254732   3.115   3.436  13.681 -0.1324 -0.1044 -0.5360
11106TIP3    H154733   3.209   3.430  13.660 -0.4494  0.8721 -2.4023
11106TIP3    H254734   3.072   3.387  13.611 -1.0868  0.7079 -0.5323
11107TIP3   OH254735   2.007   5.585   4.020  0.1166  0.7558 -0.5363
11107TIP3    H154736   1.993   5.584   4.114 -1.8269  0.2000 -0.7795
11107TIP3    H254737   1.965   5.665   3.989  0.9862  1.0793 -0.9065
11108TIP3   OH254738   0.187   3.132  15.346  0.3823 -0.2146  0.2919
11108TIP3    H154739   0.197   3.179  15.263  0.3001  0.8385  0.8555
11108TIP3    H254740   0.113   3.073  15.332 -2.0558  2.5363  0.7000
11109TIP3   OH254741   3.532   2.510   4.191  0.6640 -0.3695 -0.0426
11109TIP3    H154742   3.475   2.502   4.268  0.6519 -1.1515 -0.1196
11109TIP3    H254743   3.476   2.549   4.123  0.6723  0.3086  0.3338
11110TIP3   OH254744   1.267   5.611  16.631 -1.1876  0.7513 -0.0750
11110TIP3    H154745   1.262   5.521  16.663 -0.7182  0.2330 -1.3756
11110TIP3    H254746   1.177   5.644  16.637 -0.9650  1.0654  2.6780
11111TIP3   OH254747   2.835   1.128  15.119  0.3733 -0.1356  0.0195
11111TIP3    H154748   2.827   1.108  15.026 -2.1039 -1.1137  0.3483
11111TIP3    H254749   2.748   1.161  15.143  0.7650 -0.5258  2.1248
11112TIP3   OH254750   5.870   3.722   2.374 -0.4785 -0.1045 -0.2536
11112TIP3    H154751   5.802   3.666   2.411 -0.9433 -0.3554 -1.4780
11112TIP3    H254752   5.880   3.793   2.438 -0.4074 -1.1660  0.9494
11113TIP3   OH254753   6.546   1.638   3.025 -0.0708  0.1389 -0.3864
11113TIP3    H154754   6.468   1.612   2.976  0.8752  1.0426 -2.5168
11113TIP3    H254755   6.579   1.715   2.979  0.5002  1.5692  2.1872
11114TIP3   OH254756   4.485   3.664  11.508 -0.3637  0.0545  0.1034
11114TIP3    H154757   4.569   3.624  11.484  0.5214  2.1900 -0.5955
11114TIP3    H254758   4.491   3.678  11.602  0.7264  1.4677 -0.1289
11115TIP3   OH254759   1.821   5.356   4.337  0.1518  0.2096 -0.4871
11115TIP3    H154760   1.839   5.294   4.267  1.4596 -0.3031  0.2718
11115TIP3    H254761   1.787   5.434   4.292  3.5869  0.9824 -2.0567
11116TIP3   OH254762   1.791   2.084  12.153  0.5494 -0.0058  0.0372
11116TIP3    H154763   1.806   2.001  12.198 -0.4079  0.9074  2.1566
11116TIP3    H254764   1.871   2.134  12.167  0.4989  0.0396  0.1627
11117TIP3   OH254765   6.511   1.826   0.053  0.0759  0.1348 -0.0443
11117TIP3    H154766   6.548   1.865   0.132  1.1865 -0.2873 -0.3371
11117TIP3    H254767   6.526   1.732   0.065 -0.5566 -0.0073 -0.3570
11118TIP3   OH254768   3.524   1.432   5.078 -0.4391 -0.0185 -0.4382
11118TIP3    H154769   3.568   1.517   5.079 -0.5105  0.0183 -0.0983
11118TIP3    H254770   3.559   1.386   5.155 -2.3662  0.7368  0.9805
11119TIP3   OH254771   1.736   0.500  12.533  0.3136 -0.1833 -0.0347
11119TIP3    H154772   1.644   0.478  12.548  0.3961 -0.8535 -0.4526
11119TIP3    H254773   1.738   0.534  12.443  0.4737 -0.1580 -0.0208
11120TIP3   OH254774   4.984   6.318   4.700  0.0245  0.1556 -0.4584
11120TIP3    H154775   4.919   6.249   4.688 -0.0271  0.1366 -0.0974
11120TIP3    H254776   5.065   6.270   4.720 -0.1937  0.2062  0.6323
11121TIP3   OH254777   2.255   6.074   0.809  0.0563 -0.0815 -0.7210
11121TIP3    H154778   2.337   6.122   0.815  0.3595 -0.6795  0.0776
11121TIP3    H254779   2.268   6.013   0.736  1.2796 -1.8991  0.9134
11122TIP3   OH254780   5.032   0.535   1.670 -0.7672  0.1497 -0.5245
11122TIP3    H154781   5.018   0.619   1.626  0.9681  0.0147 -1.4236
11122TIP3    H254782   4.963   0.530   1.736 -1.8773  1.5491 -1.5224
11123TIP3   OH254783   2.750   0.393  15.248  0.4725 -0.0400  0.2073
11123TIP3    H154784   2.778   0.482  15.227  0.1968 -0.1250 -0.5615
11123TIP3    H254785   2.790   0.374  15.332 -1.7288  1.8428  1.8109
11124TIP3   OH254786   4.682   3.551   3.895 -0.1497  0.0689  0.6089
11124TIP3    H154787   4.715   3.555   3.805  0.5800 -1.2387  0.7943
11124TIP3    H254788   4.759   3.530   3.948 -1.3270 -4.6523  0.8864
11125TIP3   OH254789   2.545   5.091  11.952 -0.3569  0.2709  0.3278
11125TIP3    H154790   2.580   5.116  11.867 -1.6838  0.9397 -0.0417
11125TIP3    H254791   2.574   5.000  11.964  0.0525  0.2563 -0.7065
11126TIP3   OH254792   4.687   4.285  13.087  0.5335  0.1930  0.1738
11126TIP3    H154793   4.729   4.200  13.102 -0.8356 -0.1936  2.1234
11126TIP3    H254794   4.678   4.323  13.174  0.0760  1.8433 -0.5630
11127TIP3   OH254795   1.092   1.475  13.681 -0.0468  0.4989 -0.2825
11127TIP3    H154796   1.157   1.545  13.677  0.2483  0.2883  0.6787
11127TIP3    H254797   1.098   1.441  13.770 -0.9883  0.0093 -0.3894
11128TIP3   OH254798   6.377   1.482   6.726 -0.5761 -0.0664 -0.0660
11128TIP3    H154799   6.316   1.461   6.656 -0.2359  1.8412 -1.0197
11128TIP3    H254800   6.342   1.562   6.765  0.2381 -0.0564  0.6881
11129TIP3   OH254801   1.935   2.132  11.917  0.1829 -0.6663  0.8102
11129TIP3    H154802   1.884   2.118  11.997 -1.6644 -0.0871 -0.2100
11129TIP3    H254803   1.908   2.218  11.886  2.5229  0.0811  0.6863
11130TIP3   OH254804   1.496   4.040   1.462  0.2429 -0.7187 -0.2304
11130TIP3    H154805   1.436   4.107   1.427  1.2975  0.8008  0.7230
11130TIP3    H254806   1.477   4.039   1.556  0.4372 -1.5715 -0.2013
11131TIP3   OH254807   3.204   3.141   5.393 -0.2567  0.4491  0.3228
11131TIP3    H154808   3.114   3.118   5.370  0.3063 -1.7246  0.0174
11131TIP3    H254809   3.232   3.072   5.453  0.5465  2.2887  2.1814
11132TIP3   OH254810   6.204   4.839  15.646 -0.2734 -0.0999  0.3599
11132TIP3    H154811   6.210   4.862  15.554  1.3150 -0.3462  0.3613
11132TIP3    H254812   6.253   4.908  15.691  0.0460 -0.6475  0.8774
11133TIP3   OH254813   2.868   2.827   4.752 -0.1193 -0.2979  0.2609
11133TIP3    H154814   2.850   2.787   4.667  1.1547 -0.4818  0.0588
11133TIP3    H254815   2.788   2.815   4.802 -0.0251 -2.4490 -0.0432
11134TIP3   OH254816   0.199   4.679  11.674  0.0240 -0.0582  0.0754
11134TIP3    H154817   0.289   4.668  11.702 -0.3863 -0.4913  1.2874
11134TIP3    H254818   0.173   4.592  11.643 -0.9531 -0.8521  2.8150
11135TIP3   OH254819   2.811   3.177   1.133  0.7841 -0.5775 -0.1878
11135TIP3    H154820   2.733   3.144   1.177 -0.3411  1.0110 -0.8844
11135TIP3    H254821   2.876   3.186   1.202 -0.6000  0.8570  1.0124
11136TIP3   OH254822   3.177   3.660  10.868  0.2468 -0.3299 -0.0355
11136TIP3    H154823   3.123   3.711  10.808  1.1597 -0.6644 -1.1732
11136TIP3    H254824   3.221   3.596  10.813  0.5566 -1.1328  1.1017
11137TIP3   OH254825   3.315   3.942   4.597 -0.1396  0.0158 -0.1166
11137TIP3    H154826   3.365   4.005   4.546  0.8109 -1.3478 -0.9410
11137TIP3    H254827   3.376   3.870   4.613 -0.6533  0.0339  2.2984
11138TIP3   OH254828   5.118   4.000   6.351  0.6202 -0.0557  0.1099
11138TIP3    H154829   5.146   3.984   6.261 -2.4497 -2.0940 -0.6168
11138TIP3    H254830   5.156   3.927   6.401 -0.3827 -0.8126 -0.2045
11139TIP3   OH254831   1.053   0.646  12.316 -0.2868 -0.3791  0.0576
11139TIP3    H154832   1.011   0.562  12.298 -0.0376 -0.1853 -1.5542
11139TIP3    H254833   1.134   0.643  12.266 -0.5114  1.0175 -0.4082
11140TIP3   OH254834   0.436   6.689  15.902  0.3529 -0.3361  0.4726
11140TIP3    H154835   0.373   6.762  15.903 -0.0295 -0.4877  4.5592
11140TIP3    H254836   0.518   6.730  15.873 -0.7369  0.7224 -1.3059
11141TIP3   OH254837   5.076   6.350   2.828 -0.0473  0.0507 -0.8520
11141TIP3    H154838   5.155   6.318   2.784  0.6667 -2.2373  1.7889
11141TIP3    H254839   5.106   6.376   2.915 -2.0165  0.4600 -0.2388
11142TIP3   OH254840   2.823   6.193  14.201  0.3380  0.0828  0.2789
11142TIP3    H154841   2.839   6.249  14.125  3.1060  1.2330  1.5880
11142TIP3    H254842   2.740   6.224  14.237  0.3279  1.3118 -0.7506
11143TIP3   OH254843   2.253   6.373   3.086  0.2758  0.4123  0.9431
11143TIP3    H154844   2.309   6.417   3.150  3.3919 -2.4570  0.4921
11143TIP3    H254845   2.312   6.354   3.012 -1.6827 -1.5959 -0.2072
11144TIP3   OH254846   4.401   2.569   4.601 -0.6162 -0.7334  0.0826
11144TIP3    H154847   4.385   2.544   4.510  0.5074 -0.4399 -0.2146
11144TIP3    H254848   4.463   2.503   4.633 -1.7054 -1.3752  0.9362
11145TIP3   OH254849   4.577   0.808  14.831  0.2908 -0.0101  1.0187
11145TIP3    H154850   4.527   0.731  14.857  2.5113 -1.5907  0.9368
11145TIP3    H254851   4.521   0.882  14.853 -2.5326 -1.6273 -0.1572
11146TIP3   OH254852   0.388   2.031  17.000 -0.4485 -0.4613  0.2500
11146TIP3    H154853   0.433   1.949  16.984  1.5413  1.0263 -2.5724
11146TIP3    H254854   0.439   2.074  17.068  0.9030  0.0577 -1.0452
11147TIP3   OH254855   0.268   2.133   0.901 -0.1168  0.5599  0.0212
11147TIP3    H154856   0.301   2.049   0.931 -0.9987  0.0832 -0.3024
11147TIP3    H254857   0.305   2.143   0.813 -0.6464  0.1277 -0.2569
11148TIP3   OH254858   3.140   1.779  13.824  0.0524  0.3453 -0.2869
11148TIP3    H154859   3.055   1.822  13.824 -0.0777  0.0933 -0.5143
11148TIP3    H254860   3.121   1.688  13.799  0.5431  0.5863 -1.6261
11149TIP3   OH254861   5.708   3.181   4.750  0.9310 -0.6479  0.4660
11149TIP3    H154862   5.756   3.105   4.782  1.0781 -0.9635 -0.4621
11149TIP3    H254863   5.616   3.155   4.755  0.9361 -0.5940  0.8717
11150TIP3   OH254864   3.517   4.003   1.779 -0.0410  0.2843 -0.4597
11150TIP3    H154865   3.432   4.046   1.771 -0.9944 -1.6910 -1.7891
11150TIP3    H254866   3.536   3.969   1.692  1.3784 -0.6621  0.1626
11151TIP3   OH254867   6.097   0.468   3.247  0.6229  0.0970 -0.4533
11151TIP3    H154868   6.150   0.394   3.277 -1.1597 -1.0427  0.0660
11151TIP3    H254869   6.040   0.431   3.179 -1.3279  0.5710  0.8312
11152TIP3   OH254870   5.368   5.198  10.602 -0.6930 -0.8577 -0.1027
11152TIP3    H154871   5.367   5.127  10.539 -0.8793 -0.6767 -0.3074
11152TIP3    H254872   5.297   5.256  10.574  0.2119  0.0315 -0.6593
11153TIP3   OH254873   0.967   2.198   0.832 -0.5800  0.2990 -0.5772
11153TIP3    H154874   0.943   2.186   0.924  0.2524  0.0147 -0.3869
11153TIP3    H254875   1.050   2.246   0.834 -0.3828 -0.0011 -1.1671
11154TIP3   OH254876   6.335   6.082   2.979  0.6636 -1.1053  0.4095
11154TIP3    H154877   6.273   6.144   2.939  1.7358 -1.9781 -2.9625
11154TIP3    H254878   6.283   6.004   2.996  0.1091 -0.6129  1.0078
11155TIP3   OH254879   4.206   1.101   4.578 -0.1093 -0.2127 -0.6320
11155TIP3    H154880   4.197   1.008   4.559 -0.6202 -0.4130  0.5208
11155TIP3    H254881   4.282   1.107   4.635 -0.1870  0.0495 -0.5533
11156TIP3   OH254882   2.594   4.078  11.977 -0.1844  0.5190 -0.0353
11156TIP3    H154883   2.551   4.102  12.059  1.1935 -1.9494  1.5255
11156TIP3    H254884   2.687   4.096  11.993  0.4825 -2.5350  0.0674
11157TIP3   OH254885   5.102   1.589   1.610  0.2442 -0.2879 -0.0723
11157TIP3    H154886   5.111   1.668   1.664  0.6319  0.1929 -0.8069
11157TIP3    H254887   5.034   1.537   1.653 -0.0715  0.4838  0.3833
11158TIP3   OH254888   6.330   5.477   3.390 -0.3625 -0.2526  0.6219
11158TIP3    H154889   6.397   5.493   3.323 -0.2789  1.0477  0.9686
11158TIP3    H254890   6.309   5.384   3.383  0.6379 -0.4262 -0.2790
11159TIP3   OH254891   3.503   6.045  17.082 -0.0461  0.1758 -0.5416
11159TIP3    H154892   3.559   5.995  17.141 -0.3250 -0.3516 -0.7134
11159TIP3    H254893   3.556   6.057  17.003  0.5545  1.4142  0.0246
11160TIP3   OH254894   5.509   2.938   4.061 -0.2535 -0.2560  0.5223
11160TIP3    H154895   5.501   2.851   4.100  1.4040 -0.0282  1.4524
11160TIP3    H254896   5.574   2.928   3.993 -1.9603 -0.2775 -1.1892
11161TIP3   OH254897   3.675   5.465   2.821  0.0290 -0.8267 -0.3168
11161TIP3    H154898   3.722   5.529   2.874 -0.6573  0.5372 -1.2965
11161TIP3    H254899   3.666   5.507   2.735  0.8636 -2.8511 -1.4581
11162TIP3   OH254900   0.940   3.508  16.690  0.3267 -0.0670  0.3099
11162TIP3    H154901   0.862   3.485  16.640 -0.5064  2.3403  0.3696
11162TIP3    H254902   0.965   3.427  16.734 -2.2515 -0.9004  0.4140
11163TIP3   OH254903   6.510   4.950   1.962  0.5395  0.5375 -0.3111
11163TIP3    H154904   6.504   4.890   2.036  2.5930  1.3196  0.5423
11163TIP3    H254905   6.603   4.970   1.954  0.1300  2.1206 -1.7993
11164TIP3   OH254906   0.421   3.377   4.661  0.2607  0.4126 -0.3655
11164TIP3    H154907   0.486   3.392   4.591 -0.4774  1.9412 -0.7597
11164TIP3    H254908   0.456   3.425   4.736  0.9995 -1.1447  0.3270
11165TIP3   OH254909   1.804   0.555   5.580  0.1531 -0.0709  0.1467
11165TIP3    H154910   1.730   0.607   5.612  0.1221 -0.5485  0.8755
11165TIP3    H254911   1.770   0.508   5.504 -0.6808 -1.2530  1.2109
11166TIP3   OH254912   6.329   6.043  15.728 -0.0073  0.1414  0.2696
11166TIP3    H154913   6.380   5.963  15.740  0.9578  0.8078  0.7895
11166TIP3    H254914   6.359   6.102  15.797  0.9004  1.7283 -1.3687
11167TIP3   OH254915   3.279   4.763  16.705  0.5561  0.2921  0.0230
11167TIP3    H154916   3.249   4.673  16.699 -1.0549  0.7957 -0.0539
11167TIP3    H254917   3.239   4.806  16.629  0.8830  1.1702  0.3382
11168TIP3   OH254918   6.095   3.957   0.381  0.1328  0.0066 -0.1540
11168TIP3    H154919   6.122   3.961   0.289 -0.0171  0.5382 -0.1802
11168TIP3    H254920   6.050   3.873   0.389  0.9887 -0.4817 -0.3312
11169TIP3   OH254921   5.776   2.195  14.102 -0.0362 -0.1744 -0.2893
11169TIP3    H154922   5.796   2.128  14.036  0.6787 -1.2858  0.9881
11169TIP3    H254923   5.830   2.270  14.077 -1.0710  0.0642 -1.9190
11170TIP3   OH254924   2.043   3.691  14.952  0.6940  0.7479  0.1350
11170TIP3    H154925   1.951   3.698  14.927  1.0994  0.2311 -1.6621
11170TIP3    H254926   2.090   3.748  14.891  1.8684 -1.5622 -1.2670
11171TIP3   OH254927   1.189   4.076  13.360  0.6080  0.1983 -0.0681
11171TIP3    H154928   1.260   4.106  13.417  0.9058  0.4086 -0.5474
11171TIP3    H254929   1.143   4.156  13.335  0.0300  0.0415  0.4541
11172TIP3   OH254930   1.970   0.932  13.671 -0.3176  0.1864  0.3107
11172TIP3    H154931   1.982   0.844  13.637  0.3341 -0.6676  2.5607
11172TIP3    H254932   1.894   0.925  13.728  1.2928  0.3472  2.6001
11173TIP3   OH254933   6.339   4.512  14.721  0.5838  0.4773  0.2005
11173TIP3    H154934   6.390   4.537  14.797  0.6513 -0.5723  0.5217
11173TIP3    H254935   6.271   4.579  14.713  1.7485  1.6736  0.0085
11174TIP3   OH254936   5.775   1.447   3.402 -0.2060 -0.1675  0.2958
11174TIP3    H154937   5.821   1.416   3.325  0.6336 -1.5798  1.3153
11174TIP3    H254938   5.749   1.537   3.380  1.8163  0.2066 -0.8611
11175TIP3   OH254939   4.826   2.725  14.298 -0.2306 -0.3374  0.6485
11175TIP3    H154940   4.830   2.758  14.209 -0.2841 -0.1884  0.7012
11175TIP3    H254941   4.890   2.654  14.300 -0.5067 -0.5941  0.3871
11176TIP3   OH254942   3.673   4.570   6.424 -0.0176  0.4842 -0.5840
11176TIP3    H154943   3.591   4.566   6.376 -1.2162 -1.9986  1.4857
11176TIP3    H254944   3.738   4.532   6.365 -0.9595 -0.2841 -1.1413
11177TIP3   OH254945   0.082   4.074   4.268  0.4792  0.3683  0.5895
11177TIP3    H154946   0.018   4.068   4.196  1.1672 -1.1855  0.0427
11177TIP3    H254947   0.075   4.163   4.300  1.0277  1.5384 -2.2604
11178TIP3   OH254948   5.509   2.860  13.947 -0.6428 -0.5384 -0.2204
11178TIP3    H154949   5.467   2.900  14.023  0.4748 -0.7221  0.5126
11178TIP3    H254950   5.508   2.928  13.880 -0.7929 -0.0621  0.2609
11179TIP3   OH254951   2.340   3.532  16.241  0.3931  0.9743 -0.1692
11179TIP3    H154952   2.270   3.509  16.302 -0.1829  1.8005 -0.5032
11179TIP3    H254953   2.419   3.535  16.295 -0.0976  1.6133  0.5317
11180TIP3   OH254954   0.276   3.103  15.598 -0.1485  0.0852 -0.8334
11180TIP3    H154955   0.250   3.110  15.506  0.8128  3.6786 -0.9743
11180TIP3    H254956   0.356   3.049  15.595  2.2242  3.3121 -2.8304
11181TIP3   OH254957   0.408   0.330   3.278 -0.1229  0.2589  0.4673
11181TIP3    H154958   0.467   0.272   3.230  0.4000 -0.1789  1.6047
11181TIP3    H254959   0.445   0.334   3.366 -1.1816  0.8610  0.9026
11182TIP3   OH254960   6.215   2.514  14.784 -0.0556  0.0917 -0.3243
11182TIP3    H154961   6.231   2.557  14.868  0.2328  0.6805 -0.6778
11182TIP3    H254962   6.299   2.517  14.739 -0.3206  0.1690 -0.8158
11183TIP3   OH254963   0.919   3.928  14.844  0.1726  0.2509  0.4103
11183TIP3    H154964   0.864   3.867  14.893 -0.5937  0.7526  0.1845
11183TIP3    H254965   1.006   3.888  14.845 -0.5505 -1.4403 -0.7770
11184TIP3   OH254966   5.536   5.798  15.624 -0.6007 -0.0025  0.4165
11184TIP3    H154967   5.594   5.851  15.679 -1.0082  0.4188  0.4444
11184TIP3    H254968   5.583   5.791  15.541 -1.9327  3.2859 -0.8107
11185TIP3   OH254969   2.901   5.854   4.477 -0.0438 -0.2412 -0.0589
11185TIP3    H154970   2.955   5.900   4.413  0.8463  0.5281  1.1940
11185TIP3    H254971   2.897   5.913   4.552 -2.4881 -0.3695 -0.0133
11186TIP3   OH254972   4.454   0.840   0.204  0.4150 -0.2856 -0.3131
11186TIP3    H154973   4.385   0.776   0.219  2.0363 -1.4961  3.0189
11186TIP3    H254974   4.502   0.806   0.128  0.2124 -2.1761  0.3349
11187TIP3   OH254975   3.971   5.186  11.162 -0.7601  0.0354  0.3716
11187TIP3    H154976   3.925   5.191  11.077  0.4467  0.0319 -0.3007
11187TIP3    H254977   4.060   5.216  11.142 -0.2237 -0.8046  1.4686
11188TIP3   OH254978   2.003   1.036   4.605  0.4852  0.2133  0.1716
11188TIP3    H154979   2.061   1.112   4.615 -0.0942  0.7414 -0.4580
11188TIP3    H254980   2.002   1.018   4.511  1.8240 -1.5380  0.4300
11189TIP3   OH254981   3.567   1.264  12.050 -0.1152  1.0632  0.4659
11189TIP3    H154982   3.533   1.197  11.991 -0.6849  2.0393 -0.3313
11189TIP3    H254983   3.489   1.308  12.084  0.0985 -0.3050  3.0032
11190TIP3   OH254984   6.756   1.365   3.588  0.0032 -0.0277  0.1436
11190TIP3    H154985   6.702   1.419   3.646  0.4215 -0.9089  1.4022
11190TIP3    H254986   6.819   1.426   3.549 -0.5570  0.6466  0.2834
11191TIP3   OH254987   1.204   0.150  13.467  0.1012 -0.3741  0.4652
11191TIP3    H154988   1.124   0.099  13.455  0.2733 -0.7483  0.8831
11191TIP3    H254989   1.176   0.227  13.515 -0.3161  0.3746 -0.9238
11192TIP3   OH254990   2.503   1.789   4.199  0.7487  0.1714  0.2559
11192TIP3    H154991   2.495   1.860   4.263  0.7209  1.2558 -0.9082
11192TIP3    H254992   2.420   1.791   4.151  1.0532 -0.1604 -0.2833
11193TIP3   OH254993   1.641   4.727  17.183 -0.3462  0.5854  0.2679
11193TIP3    H154994   1.704   4.727  17.111 -0.4654  1.7821  0.1447
11193TIP3    H254995   1.579   4.659  17.160  0.9911 -0.7602  0.4906
11194TIP3   OH254996   0.177   1.748   3.375  0.3020 -0.0972  0.2350
11194TIP3    H154997   0.111   1.684   3.401  0.4373 -0.1318  0.5012
11194TIP3    H254998   0.196   1.796   3.456 -0.6806  1.0905 -0.2143
11195TIP3   OH254999   6.353   2.693   4.425 -0.5999  0.5237 -0.0244
11195TIP3    H155000   6.315   2.691   4.513 -0.3778 -2.6865  0.0867
11195TIP3    H255001   6.277   2.696   4.366 -0.7669  1.6569  0.2248
11196TIP3   OH255002   4.942   0.389   3.404  0.8419 -0.5661 -0.1568
11196TIP3    H155003   4.952   0.473   3.358  1.6892 -0.5223  0.0951
11196TIP3    H255004   4.847   0.373   3.404  0.5953  0.8001  0.5235
11197TIP3   OH255005   2.860   6.081   2.762  0.3277 -0.1792  0.5053
11197TIP3    H155006   2.801   6.006   2.756  0.9199 -0.6361  0.2922
11197TIP3    H255007   2.900   6.087   2.675  1.7474 -0.8431  1.0839
11198TIP3   OH255008   1.175   5.349   1.519 -0.1319 -1.1332 -0.3187
11198TIP3    H155009   1.228   5.346   1.440  0.6740  2.1316 -0.0660
11198TIP3    H255010   1.217   5.416   1.573 -2.3540 -1.1301  1.5565
11199TIP3   OH255011   5.122   2.332  11.270 -0.0405 -0.4775  0.1003
11199TIP3    H155012   5.165   2.317  11.186  1.2300 -0.5185  0.7261
11199TIP3    H255013   5.132   2.249  11.317 -0.1257 -0.2422  0.5431
11200TIP3   OH255014   3.729   4.472  16.480  0.4392  0.0011 -0.2856
11200TIP3    H155015   3.759   4.560  16.456 -0.0832  0.5938  1.1641
11200TIP3    H255016   3.678   4.484  16.559 -0.2377 -1.5352 -0.4485
11201TIP3   OH255017   2.664   4.954  13.052 -0.2840 -0.0553 -0.2860
11201TIP3    H155018   2.756   4.965  13.027 -1.1211  0.2301 -3.7608
11201TIP3    H255019   2.636   5.042  13.079  0.4608 -0.1697  0.9116
11202TIP3   OH255020   4.607   3.064  10.196  0.1452 -0.1668 -0.2045
11202TIP3    H155021   4.531   3.117  10.171 -0.0520 -0.9014 -1.2570
11202TIP3    H255022   4.575   3.006  10.265 -0.1361 -0.1590 -0.3284
11203TIP3   OH255023   0.195   2.402  11.495 -0.6322 -0.0453  0.7812
11203TIP3    H155024   0.120   2.343  11.487 -1.0029  0.6257 -2.7194
11203TIP3    H255025   0.155   2.490  11.497 -0.0921  0.3904 -2.3325
11204TIP3   OH255026   6.646   2.607   4.913  0.1287 -0.7682 -0.0720
11204TIP3    H155027   6.615   2.692   4.882  0.3196 -0.9094 -0.6681
11204TIP3    H255028   6.697   2.572   4.840  2.5723 -0.1206  1.2156
11205TIP3   OH255029   1.311   2.905   2.437  0.3115 -0.2208 -0.2319
11205TIP3    H155030   1.323   2.938   2.348 -0.8498 -3.3869 -1.7081
11205TIP3    H255031   1.373   2.832   2.445 -0.0470 -0.3886  1.3288
11206TIP3   OH255032   2.804   1.639  13.840 -0.4758 -0.2475  0.0627
11206TIP3    H155033   2.865   1.614  13.770  0.2479  0.3279  0.4798
11206TIP3    H255034   2.725   1.668  13.794 -0.2620 -0.5285 -0.4935
11207TIP3   OH255035   5.746   2.327   4.821 -0.0280  0.4580  0.0296
11207TIP3    H155036   5.816   2.277   4.864 -0.2982 -0.0064 -0.0594
11207TIP3    H255037   5.739   2.289   4.734  0.2076  1.0954 -0.2709
11208TIP3   OH255038   1.824   0.954  15.583  0.5335  0.2124 -0.1227
11208TIP3    H155039   1.758   0.950  15.653 -0.2607 -2.5367 -0.8996
11208TIP3    H255040   1.782   0.912  15.508  2.8068 -0.7648 -0.9549
11209TIP3   OH255041   0.402   3.424   6.248 -0.2817  0.1880 -0.4983
11209TIP3    H155042   0.419   3.517   6.238  0.4862  0.2822  1.3649
11209TIP3    H255043   0.347   3.418   6.326 -0.5906 -0.9138 -0.7809
11210TIP3   OH255044   1.535   0.370  14.343  0.0402 -0.1353  0.4337
11210TIP3    H155045   1.518   0.297  14.402 -0.3084  0.0259  0.5304
11210TIP3    H255046   1.611   0.342  14.292  0.3651 -0.2622  0.9768
11211TIP3   OH255047   5.695   1.808  14.921  0.6377 -0.3983 -0.5977
11211TIP3    H155048   5.724   1.752  14.993  0.9778 -1.0103 -1.2054
11211TIP3    H255049   5.632   1.868  14.962 -1.8627 -2.9503 -0.4155
11212TIP3   OH255050   3.961   5.760   4.978  0.2468 -0.4580 -0.5477
11212TIP3    H155051   3.895   5.699   4.946  1.1461 -1.3465 -0.7447
11212TIP3    H255052   3.990   5.723   5.061  0.7002 -0.2186 -0.5955
11213TIP3   OH255053   3.625   5.886  15.198  0.3352  0.7059 -0.3312
11213TIP3    H155054   3.613   5.831  15.121  0.3308  1.5907 -0.9837
11213TIP3    H255055   3.614   5.827  15.273 -2.8657  0.3738 -0.9094
11214TIP3   OH255056   3.268   6.052   5.635 -1.0972  1.0868 -0.4902
11214TIP3    H155057   3.225   6.125   5.591 -1.2104  1.4012  0.1289
11214TIP3    H255058   3.200   5.985   5.644 -1.1058  1.0705 -0.6796
11215TIP3   OH255059   6.268   6.465   0.799  1.0626  0.0909  0.5866
11215TIP3    H155060   6.301   6.439   0.885  0.0469 -0.4113  0.8440
11215TIP3    H255061   6.323   6.419   0.737  0.1096 -1.7638  1.0171
11216TIP3   OH255062   1.586   3.316   4.973 -0.5370  0.0051  0.4391
11216TIP3    H155063   1.518   3.252   4.994  0.5737 -1.3663  0.0853
11216TIP3    H255064   1.657   3.263   4.936 -0.2606  1.6658 -1.5668
11217TIP3   OH255065   5.977   3.994   1.222 -0.2955  0.9925  0.2912
11217TIP3    H155066   5.961   3.899   1.218  0.1953  0.8637  1.0644
11217TIP3    H255067   6.062   4.001   1.267  0.2070  1.7562 -0.7414
11218TIP3   OH255068   3.433   1.016   4.554 -0.3158 -0.4473 -0.1052
11218TIP3    H155069   3.505   0.976   4.602 -1.2192 -1.8970  0.1060
11218TIP3    H255070   3.440   1.110   4.575  1.7414 -0.4703 -0.4670
11219TIP3   OH255071   6.328   1.858  12.817  0.5289 -0.3685 -0.0762
11219TIP3    H155072   6.290   1.849  12.729 -2.0841  0.2283  0.8955
11219TIP3    H255073   6.283   1.792  12.869 -0.6527  1.6027  1.5580
11220TIP3   OH255074   5.251   5.306   2.790 -0.7178 -0.5238 -0.0898
11220TIP3    H155075   5.248   5.348   2.876 -1.8360  1.4691 -1.0252
11220TIP3    H255076   5.162   5.275   2.775 -0.1597 -2.3326  0.0982
11221TIP3   OH255077   4.044   6.527  12.977  0.0305 -0.0642 -0.5676
11221TIP3    H155078   4.016   6.443  12.941  0.3023 -1.3978  2.0887
11221TIP3    H255079   3.985   6.591  12.937 -1.8877 -1.8420 -0.7636
11222TIP3   OH255080   0.673   2.990  13.782 -0.2982  0.4425  0.1991
11222TIP3    H155081   0.581   2.982  13.804 -0.2742  2.2162  1.1761
11222TIP3    H255082   0.719   2.943  13.851 -0.4462  0.5982  0.4063
11223TIP3   OH255083   0.104   6.630   5.787 -0.2637 -0.6733  0.0853
11223TIP3    H155084   0.169   6.690   5.749 -2.8757  1.8918 -0.7514
11223TIP3    H255085   0.063   6.588   5.711 -0.8441 -0.7897  0.4536
11224TIP3   OH255086   0.492   3.210  10.501 -0.6634 -0.6468 -0.3426
11224TIP3    H155087   0.583   3.213  10.471 -0.7758 -0.8141 -0.7043
11224TIP3    H255088   0.463   3.300  10.496  0.0355 -0.2864  1.5158
11225TIP3   OH255089   6.086   2.448   5.095 -0.2133 -0.3497 -0.1217
11225TIP3    H155090   6.094   2.539   5.067  0.1815 -1.2290 -3.3396
11225TIP3    H255091   5.992   2.436   5.111 -0.2852  0.5916  0.1982
11226TIP3   OH255092   1.648   0.423   6.471 -0.0873  0.0507 -0.1680
11226TIP3    H155093   1.706   0.350   6.449 -1.9128 -0.7148 -3.0761
11226TIP3    H255094   1.705   0.500   6.473  1.2962 -0.9000 -1.1065
11227TIP3   OH255095   2.515   2.736   2.486  0.0555  0.0188 -0.2213
11227TIP3    H155096   2.431   2.765   2.519 -0.5682 -2.2308  0.3441
11227TIP3    H255097   2.539   2.661   2.541  0.3676 -2.0545 -2.9362
11228TIP3   OH255098   3.291   5.574   5.942 -0.5519 -0.8508  0.2033
11228TIP3    H155099   3.319   5.504   6.001 -0.3627 -0.9569 -0.0107
11228TIP3    H255100   3.243   5.530   5.873 -0.4447 -0.7695  0.0754
11229TIP3   OH255101   0.564   4.480  11.929  0.2932  0.5165 -0.1327
11229TIP3    H155102   0.659   4.485  11.918  0.3557 -2.0428 -1.5115
11229TIP3    H255103   0.551   4.429  12.008  0.0979  0.1045 -0.4258
11230TIP3   OH255104   4.717   4.111   3.725  0.6150  0.0272 -0.2929
11230TIP3    H155105   4.629   4.078   3.708  0.1349  1.8923 -1.6127
11230TIP3    H255106   4.713   4.146   3.814  0.1022 -0.0863 -0.2688
11231TIP3   OH255107   4.638   0.037   1.728  0.0256 -0.1451 -0.8304
11231TIP3    H155108   4.718   0.088   1.716  0.4987 -0.6037  0.3473
11231TIP3    H255109   4.572   0.103   1.752  0.2108  0.1265 -1.0458
11232TIP3   OH255110   4.004   4.727   3.111  0.2248 -0.9464  0.6233
11232TIP3    H155111   3.917   4.695   3.135  0.2405 -0.6281  1.1202
11232TIP3    H255112   3.992   4.767   3.025  0.0180 -1.4900  0.3980
11233TIP3   OH255113   3.545   0.193  13.086  0.1113  0.0531 -1.2097
11233TIP3    H155114   3.467   0.177  13.033 -1.4175 -0.7040  1.1043
11233TIP3    H255115   3.604   0.120  13.065 -1.3561 -1.4314 -0.3833
11234TIP3   OH255116   1.297   3.358  10.892  0.4346  0.1258 -0.1302
11234TIP3    H155117   1.246   3.399  10.822  2.1208  0.4127 -1.2806
11234TIP3    H255118   1.313   3.428  10.955  0.8786  0.5070 -0.6544
11235TIP3   OH255119   2.755   2.560  11.106 -0.6679  0.1415  0.3246
11235TIP3    H155120   2.841   2.599  11.120 -1.1076  1.3882 -0.3424
11235TIP3    H255121   2.721   2.603  11.028 -1.3715 -1.2698 -0.1719
11236TIP3   OH255122   2.268   0.227   6.068 -0.3631  0.2244  0.1810
11236TIP3    H155123   2.237   0.241   6.158 -3.0822  0.9521 -0.7830
11236TIP3    H255124   2.218   0.150   6.038  0.8902 -0.3212 -0.5760
11237TIP3   OH255125   1.644   6.648   5.441  0.6057 -0.3067  0.3924
11237TIP3    H155126   1.594   6.723   5.408  0.7620 -0.4229 -0.1268
11237TIP3    H255127   1.587   6.572   5.426  0.6823 -0.3613  0.3773
11238TIP3   OH255128   5.358   6.422   3.161 -0.3421 -0.0370  0.0997
11238TIP3    H155129   5.331   6.339   3.121 -1.7305  0.6171 -0.3769
11238TIP3    H255130   5.355   6.485   3.089  2.0224  0.1995  0.1463
11239TIP3   OH255131   2.557   6.210  16.873 -0.3997  0.2193 -0.0134
11239TIP3    H155132   2.625   6.149  16.899 -0.2241  1.1400  1.8329
11239TIP3    H255133   2.476   6.173  16.909 -0.9474 -0.8401 -2.1427
11240TIP3   OH255134   3.720   6.707  17.054  0.3087 -0.0316  0.6778
11240TIP3    H155135   3.693   6.694  16.963 -0.4442 -1.5981  1.0830
11240TIP3    H255136   3.709   6.801  17.070  1.1892  0.3969 -1.0589
11241TIP3   OH255137   2.160   4.547  15.368  0.4624  0.2066  0.1606
11241TIP3    H155138   2.255   4.546  15.383  0.7913  1.8319 -1.4045
11241TIP3    H255139   2.148   4.493  15.289 -0.2988 -2.1507  1.7954
11242TIP3   OH255140   5.306   6.106  11.341 -0.3443  0.2164  0.4513
11242TIP3    H155141   5.261   6.037  11.388  1.2994 -1.0536  0.2658
11242TIP3    H255142   5.389   6.117  11.387 -0.3850  1.7896  0.2240
11243TIP3   OH255143   2.048   3.085   5.565  0.5410  0.4812  0.1610
11243TIP3    H155144   1.989   3.023   5.609 -1.4008  1.6217 -0.7319
11243TIP3    H255145   2.050   3.161   5.623 -0.7954  1.3714 -0.8898
11244TIP3   OH255146   4.739   1.571   1.470  0.2634 -0.4798 -0.0568
11244TIP3    H155147   4.776   1.600   1.553 -3.1065  1.4360  0.9680
11244TIP3    H255148   4.751   1.646   1.411 -1.8282  0.1936  0.3106
11245TIP3   OH255149   2.406   6.658  13.019 -0.2587 -0.1385  0.1808
11245TIP3    H155150   2.361   6.726  13.070 -0.5871 -1.4790  1.7638
11245TIP3    H255151   2.449   6.706  12.948 -4.8130  1.1848 -2.0249
11246TIP3   OH255152   4.655   6.122   3.635  0.1491 -0.3214  0.2917
11246TIP3    H155153   4.680   6.109   3.544  0.4070  0.3228  0.2657
11246TIP3    H255154   4.586   6.057   3.651 -0.3539 -0.0039 -0.5475
11247TIP3   OH255155   0.919   3.823   2.243  0.2106  0.6425  0.1531
11247TIP3    H155156   0.941   3.853   2.155  0.0625  0.6468  0.1180
11247TIP3    H255157   0.859   3.889   2.276 -0.3623  0.2226 -0.0392
11248TIP3   OH255158   0.112   0.030  13.506 -0.1435  0.9605 -0.6799
11248TIP3    H155159   0.017   0.040  13.516 -0.0559  0.3872  1.1478
11248TIP3    H255160   0.128  -0.063  13.520  0.7784  1.2267  0.2502
11249TIP3   OH255161   5.006   0.133  16.085  0.2902 -0.0321  0.2440
11249TIP3    H155162   5.062   0.207  16.109 -0.2467  0.9883 -1.4358
11249TIP3    H255163   5.067   0.066  16.054  0.8135 -0.5075  2.1885
11250TIP3   OH255164   3.572   0.370   2.789  0.4612 -0.1092  0.4673
11250TIP3    H155165   3.555   0.464   2.784 -0.7626 -0.3885 -2.5922
11250TIP3    H255166   3.648   0.356   2.733 -1.8950 -1.3210 -2.7201
11251TIP3   OH255167   1.412   4.408  12.111 -1.1159  0.1393  0.2086
11251TIP3    H155168   1.497   4.411  12.067  0.1415 -1.9340  2.2661
11251TIP3    H255169   1.420   4.471  12.183 -0.8114 -0.8814  1.1077
11252TIP3   OH255170   2.137   1.222   0.488  0.6728  0.1436 -0.2307
11252TIP3    H155171   2.175   1.280   0.554 -1.7395  0.4625  0.9988
11252TIP3    H255172   2.059   1.186   0.530  0.0316 -1.0440 -2.3120
11253TIP3   OH255173   0.663   4.919  11.664 -0.1717  0.5302 -0.1095
11253TIP3    H155174   0.744   4.930  11.713 -0.2138 -0.7726  0.2799
11253TIP3    H255175   0.679   4.844  11.606 -0.8956  0.6239 -0.4435
11254TIP3   OH255176   5.517   3.890   4.034 -0.1524  0.1484 -0.0538
11254TIP3    H155177   5.578   3.889   3.960 -0.2539 -2.6036 -0.1944
11254TIP3    H255178   5.573   3.887   4.111 -0.0714 -1.2865 -0.1547
11255TIP3   OH255179   3.994   1.038  12.477  0.4811 -0.5151  0.4907
11255TIP3    H155180   4.035   1.102  12.419  0.3549 -2.1771 -1.5252
11255TIP3    H255181   3.905   1.070  12.490  0.3009 -0.4687 -0.8056
11256TIP3   OH255182   2.740   1.920  12.495 -0.0962  0.5064 -0.1343
11256TIP3    H155183   2.711   1.869  12.571  2.0185  1.2271  1.2550
11256TIP3    H255184   2.708   1.871  12.419 -0.7779 -1.1891  1.1922
11257TIP3   OH255185   4.185   3.945  12.263 -0.0523  0.1157 -0.4180
11257TIP3    H155186   4.117   3.962  12.328  1.5567  4.7718  0.3996
11257TIP3    H255187   4.153   3.984  12.182  0.2679 -0.7095 -0.9572
11258TIP3   OH255188   1.491   3.282  16.886  0.1166  0.1257 -0.0992
11258TIP3    H155189   1.576   3.250  16.858  0.6661  0.8801  0.6633
11258TIP3    H255190   1.434   3.268  16.811  1.0620  0.1984 -0.8450
11259TIP3   OH255191   4.215   2.133   1.590 -0.3001  0.0308 -0.1902
11259TIP3    H155192   4.254   2.211   1.630  1.1609 -0.9623  0.3757
11259TIP3    H255193   4.226   2.146   1.496  2.8703 -0.8721 -0.0519
11260TIP3   OH255194   1.965   1.944  11.487  0.4828  0.0668  0.0590
11260TIP3    H155195   1.935   1.924  11.398  0.0310 -0.1944  0.2677
11260TIP3    H255196   1.922   2.027  11.509  1.6138  0.8037 -0.4500
11261TIP3   OH255197   1.150   2.201  12.812 -0.0322  0.0261 -0.2667
11261TIP3    H155198   1.080   2.249  12.768  0.6132  0.4679 -0.8254
11261TIP3    H255199   1.165   2.250  12.893  1.0836  1.2091 -1.1408
11262TIP3   OH255200   5.936   3.446   1.136 -0.0543 -0.1499  0.1042
11262TIP3    H155201   5.903   3.356   1.138  2.7931 -1.2690  1.0427
11262TIP3    H255202   5.976   3.455   1.050  0.3120 -0.0436  0.2836
11263TIP3   OH255203   2.523   6.664  16.327  0.2394  0.6696  0.0687
11263TIP3    H155204   2.608   6.689  16.291  0.0582 -1.0669 -1.8145
11263TIP3    H255205   2.542   6.590  16.385  0.2126  1.5918  1.2674
11264TIP3   OH255206   1.449   3.110  11.043  0.4874 -0.4621  0.8077
11264TIP3    H155207   1.532   3.157  11.036  0.2156  0.0673  1.0405
11264TIP3    H255208   1.446   3.054  10.965  1.3892 -1.0326  1.1668
11265TIP3   OH255209   1.353   4.172  16.280 -0.0101  0.1205 -0.5578
11265TIP3    H155210   1.325   4.116  16.352  1.0498  1.1088  0.6581
11265TIP3    H255211   1.319   4.259  16.302  1.4004  0.7067 -0.5651
11266TIP3   OH255212   0.952   0.951   6.096  0.0112  0.0302 -0.0377
11266TIP3    H155213   0.891   0.984   6.162 -0.2575 -0.4945 -0.0193
11266TIP3    H255214   0.917   0.983   6.013  0.5569  1.0121  0.0905
11267TIP3   OH255215   0.333   5.039   2.578 -0.0951  0.0548 -0.5064
11267TIP3    H155216   0.402   5.031   2.512 -0.2310 -0.6105 -0.5779
11267TIP3    H255217   0.360   5.113   2.633  0.8508 -0.4059 -0.3300
11268TIP3   OH255218   4.480   5.234  17.224  0.1287  0.0733  0.5723
11268TIP3    H155219   4.516   5.184  17.298  1.3251  3.0256  2.1533
11268TIP3    H255220   4.385   5.229  17.237  0.3073  0.6629  2.4777
11269TIP3   OH255221   1.834   5.612  12.740  0.2348 -0.3491  0.0591
11269TIP3    H155222   1.893   5.551  12.785 -0.5480 -1.4824 -0.4008
11269TIP3    H255223   1.772   5.555  12.694  0.0512  0.7946 -1.1549
11270TIP3   OH255224   0.693   5.332  14.228 -0.0566  0.2032 -0.4489
11270TIP3    H155225   0.712   5.340  14.134 -0.5615  0.3778 -0.5382
11270TIP3    H255226   0.662   5.419  14.253 -0.2106  0.0719 -0.1872
11271TIP3   OH255227   4.550   5.773   0.316 -0.1459  0.0479  0.0453
11271TIP3    H155228   4.535   5.798   0.225  0.1719  1.0773  0.2656
11271TIP3    H255229   4.619   5.833   0.346 -1.1219  0.5633  1.3284
11272TIP3   OH255230   5.310   0.876   0.585  0.9504 -0.2041  0.3436
11272TIP3    H155231   5.340   0.963   0.557  2.2832 -1.2723 -1.8036
11272TIP3    H255232   5.301   0.884   0.680  0.9090  2.2985  0.2191
11273TIP3   OH255233   1.106   2.824   0.911  0.0674  0.1138  0.3413
11273TIP3    H155234   1.173   2.768   0.948  1.9031  1.2234 -1.1204
11273TIP3    H255235   1.030   2.767   0.898  1.0405 -1.4068  1.1239
11274TIP3   OH255236   4.142   1.953  15.284  0.4475  0.2330 -0.2637
11274TIP3    H155237   4.179   2.042  15.285  0.8309  0.0959 -1.0669
11274TIP3    H255238   4.157   1.919  15.372  0.7717  0.7706 -0.1076
11275TIP3   OH255239   5.658   3.094  14.709  0.0717 -0.2982  0.0895
11275TIP3    H155240   5.618   3.017  14.750  0.4627  0.4537  2.0063
11275TIP3    H255241   5.586   3.156  14.699 -0.0356 -0.5045 -0.4260
11276TIP3   OH255242   2.627   1.517  14.396  0.4831 -0.1059  0.5313
11276TIP3    H155243   2.646   1.592  14.340 -0.7818 -0.8612 -0.9979
11276TIP3    H255244   2.533   1.523  14.414  0.5438 -0.8223  1.1577
11277TIP3   OH255245   6.560   5.848  12.640  0.4151  0.0578 -0.1360
11277TIP3    H155246   6.551   5.824  12.548 -0.2890  2.4018 -0.7571
11277TIP3    H255247   6.632   5.911  12.642  0.5862 -0.1469  0.9558
11278TIP3   OH255248   0.576   5.585   0.553 -0.1587 -0.3958 -0.2859
11278TIP3    H155249   0.590   5.672   0.515  0.3756 -1.0791 -1.7518
11278TIP3    H255250   0.534   5.535   0.483 -1.8099 -0.9397  1.0284
11279TIP3   OH255251   1.546   4.153  15.272  0.2979  0.1526  0.5019
11279TIP3    H155252   1.478   4.146  15.339 -0.6905 -1.1461 -0.5802
11279TIP3    H255253   1.589   4.068  15.274  2.3719  1.1588  1.5949
11280TIP3   OH255254   1.996   0.129  14.357 -0.0881  0.3801 -0.1301
11280TIP3    H155255   2.017   0.065  14.290 -1.8582 -0.7282  0.3172
11280TIP3    H255256   1.937   0.192  14.314  0.3521  0.8060 -0.1262
11281TIP3   OH255257   0.893   0.434  16.218 -0.4268  0.0613  0.0336
11281TIP3    H155258   0.828   0.503  16.234 -1.9013 -1.2530 -0.0616
11281TIP3    H255259   0.943   0.429  16.299 -1.7356 -0.1928  0.8620
11282TIP3   OH255260   5.605   2.446   1.148 -0.2313  0.6358  0.5165
11282TIP3    H155261   5.573   2.516   1.091 -0.7762 -0.4772 -0.5958
11282TIP3    H255262   5.542   2.444   1.220 -1.4038  0.0045 -0.4768
11283TIP3   OH255263   4.902   3.786  13.135  0.1258 -0.1598 -0.3493
11283TIP3    H155264   4.985   3.800  13.090 -1.0251  0.7785 -2.2998
11283TIP3    H255265   4.898   3.857  13.199  0.3094  0.4916 -1.0453
11284TIP3   OH255266   6.091   0.229   0.048  0.1643 -0.0132 -0.0507
11284TIP3    H155267   6.153   0.191   0.110 -0.8803 -1.5623  0.1008
11284TIP3    H255268   6.007   0.227   0.094 -0.2376  0.8760 -0.7146
11285TIP3   OH255269   6.026   2.956   4.655  0.2423  0.3936 -0.4243
11285TIP3    H155270   6.029   3.010   4.576  0.3484 -1.6398 -1.8888
11285TIP3    H255271   6.117   2.956   4.687  0.5288 -0.0482 -1.2252
11286TIP3   OH255272   4.007   6.702   5.287 -0.1542 -0.6816  0.6098
11286TIP3    H155273   3.914   6.683   5.283 -0.1371 -1.4417  2.6773
11286TIP3    H255274   4.023   6.760   5.212 -2.0163 -1.5062 -0.5057
11287TIP3   OH255275   4.739   4.347  14.020  0.4634 -0.0145 -0.4708
11287TIP3    H155276   4.704   4.408  14.086 -2.8158 -1.8977 -0.2354
11287TIP3    H255277   4.715   4.387  13.937 -0.6056 -0.3626 -0.3449
11288TIP3   OH255278   6.132   6.745  13.800 -0.3485  0.7378 -0.0539
11288TIP3    H155279   6.040   6.719  13.790 -0.9994  1.9618  2.0541
11288TIP3    H255280   6.131   6.840  13.789  0.7328  0.7391 -0.2363
11289TIP3   OH255281   1.584   1.487   3.457  0.1325  0.3202 -0.8533
11289TIP3    H155282   1.608   1.568   3.413  2.5252  0.4039  0.4142
11289TIP3    H255283   1.597   1.506   3.550  0.2916 -1.3482 -0.4971
11290TIP3   OH255284   0.784   3.123   1.561 -0.3653 -0.0909 -0.0415
11290TIP3    H155285   0.733   3.056   1.516 -1.7108  1.7575 -1.4441
11290TIP3    H255286   0.849   3.150   1.497 -1.6166  1.8152 -0.6036
11291TIP3   OH255287   0.165   3.734   4.400  0.3251 -0.3895 -0.8805
11291TIP3    H155288   0.259   3.720   4.392  0.0710 -2.4886 -0.8693
11291TIP3    H255289   0.126   3.654   4.365 -1.4643  0.4453 -0.9012
11292TIP3   OH255290   5.517   2.369   4.562  0.5829 -0.1096  0.4386
11292TIP3    H155291   5.561   2.452   4.579  0.0912  0.0676  0.8845
11292TIP3    H255292   5.556   2.337   4.481  2.3866 -0.5499  1.4294
11293TIP3   OH255293   2.131   1.586  14.910 -0.2508  0.4465  0.8805
11293TIP3    H155294   2.135   1.561  14.818 -4.2953 -2.0140  1.1042
11293TIP3    H255295   2.195   1.530  14.954 -0.1343 -0.2866 -0.1934
11294TIP3   OH255296   0.392   2.842  17.246  0.0213  0.3152  0.1364
11294TIP3    H155297   0.296   2.843  17.239 -0.1831 -0.7273  2.1671
11294TIP3    H255298   0.410   2.809  17.334  2.2829 -0.7426 -0.6384
11295TIP3   OH255299   3.058   6.419   0.820  0.4434 -0.9134 -0.0070
11295TIP3    H155300   3.027   6.354   0.756 -2.7487  0.0088  0.4162
11295TIP3    H255301   3.087   6.492   0.766  2.4102 -1.9410 -0.4386
11296TIP3   OH255302   4.011   2.097   5.002 -0.1846  0.0279 -0.3721
11296TIP3    H155303   3.954   2.112   5.077 -1.8330  2.0544 -1.9185
11296TIP3    H255304   4.063   2.177   4.994  0.7744 -0.6085 -0.7463
11297TIP3   OH255305   0.503   5.286  10.970  0.0741 -0.2167  1.1102
11297TIP3    H155306   0.495   5.220  10.901  0.2856  1.9343 -1.1264
11297TIP3    H255307   0.435   5.264  11.033 -1.4811 -1.1779 -0.8008
11298TIP3   OH255308   6.273   4.794  11.629  0.6210 -0.4275 -0.2640
11298TIP3    H155309   6.349   4.738  11.615  1.7603  0.1580  2.8151
11298TIP3    H255310   6.198   4.734  11.630  1.5624 -1.6242  0.8981
11299TIP3   OH255311   1.503   3.646  14.309  0.2368 -0.0781  1.3166
11299TIP3    H155312   1.523   3.640  14.402  0.7236 -0.4454  1.1907
11299TIP3    H255313   1.574   3.599  14.266  0.3751  0.6555  0.7216
11300TIP3   OH255314   4.343   4.434  16.880  0.5312  0.5739 -1.0794
11300TIP3    H155315   4.308   4.368  16.821 -0.3144 -0.1933  0.2327
11300TIP3    H255316   4.307   4.517  16.848  1.4553  0.4138 -2.6291
11301TIP3   OH255317   2.734   2.791   5.713  0.1141  0.3355 -0.2182
11301TIP3    H155318   2.796   2.833   5.654  3.2697 -1.9372  1.1807
11301TIP3    H255319   2.739   2.842   5.794  0.2154  0.1071 -0.0793
11302TIP3   OH255320   2.043   4.402  14.505  0.5282 -0.4790  0.0142
11302TIP3    H155321   2.108   4.333  14.514  0.2003 -1.1382 -2.0631
11302TIP3    H255322   2.033   4.414  14.411  0.7174  2.5834  0.2697
11303TIP3   OH255323   4.481   2.455   5.392 -0.5390  0.4963  0.3976
11303TIP3    H155324   4.409   2.516   5.408 -1.1340 -0.3326  0.9796
11303TIP3    H255325   4.462   2.418   5.306 -1.3003 -0.3628  0.9211
11304TIP3   OH255326   3.542   0.138  15.551 -0.3998 -0.1623 -0.0943
11304TIP3    H155327   3.447   0.126  15.561 -0.6154  1.0814 -0.4731
11304TIP3    H255328   3.550   0.208  15.486  0.8127 -1.2922 -1.1825
11305TIP3   OH255329   2.001   6.257  13.820 -0.2707  0.2309  0.0858
11305TIP3    H155330   1.911   6.235  13.844  0.0534  1.8251  3.2947
11305TIP3    H255331   2.054   6.213  13.887  1.2585  0.4675 -0.9267
11306TIP3   OH255332   5.991   5.342   0.722  0.1864 -0.6145 -0.0572
11306TIP3    H155333   6.052   5.380   0.786 -0.5618  0.1579  0.2155
11306TIP3    H255334   6.043   5.328   0.644  0.4947  0.9890 -0.1672
11307TIP3   OH255335   0.662   4.236  11.510  1.4872 -0.2974  0.5685
11307TIP3    H155336   0.651   4.274  11.423 -1.6024  0.8044  1.3217
11307TIP3    H255337   0.753   4.206  11.511  2.0038  0.7372 -2.5729
11308TIP3   OH255338   6.066   6.775  11.370  0.2691 -0.1130 -0.3231
11308TIP3    H155339   6.080   6.775  11.275  0.2658  1.7353 -0.3733
11308TIP3    H255340   6.153   6.762  11.407  0.1001 -2.1079 -0.5415
11309TIP3   OH255341   2.933   0.633   2.004  0.6978 -0.0937  0.1393
11309TIP3    H155342   2.897   0.678   2.080 -0.2350  0.5042 -0.6390
11309TIP3    H255343   2.994   0.695   1.966 -0.4305  0.4692 -0.8122
11310TIP3   OH255344   2.864   6.659  16.505 -0.4037 -0.3932 -0.2402
11310TIP3    H155345   2.932   6.673  16.571  0.7055 -1.4540 -1.0937
11310TIP3    H255346   2.909   6.674  16.422 -1.1493 -1.3373 -0.8300
11311TIP3   OH255347   3.416   2.364   4.410 -0.0643 -0.3576 -0.1345
11311TIP3    H155348   3.490   2.343   4.469 -1.3598  1.5297  2.3409
11311TIP3    H255349   3.387   2.278   4.379  1.2008 -1.4164  1.3575
11312TIP3   OH255350   3.949   0.293  11.129 -0.0403  0.0285 -0.1624
11312TIP3    H155351   3.880   0.309  11.193  1.4747  0.4854  1.4068
11312TIP3    H255352   3.978   0.204  11.146 -0.0798 -0.0905 -0.6854
11313TIP3   OH255353   3.689   2.533   5.458  0.0555 -0.3405  0.2211
11313TIP3    H155354   3.596   2.539   5.480  0.2270  1.3298  0.6222
11313TIP3    H255355   3.692   2.471   5.385 -1.3363 -0.6673  0.4065
11314TIP3   OH255356   0.160   6.763   4.961 -0.1633  0.3850 -0.0331
11314TIP3    H155357   0.204   6.730   4.882 -2.8001 -0.0148 -1.4307
11314TIP3    H255358   0.231   6.799   5.015  2.1003 -1.9723 -1.2321
11315TIP3   OH255359   4.361   2.113   4.695 -0.6344  0.2635 -0.1079
11315TIP3    H155360   4.439   2.059   4.709  1.1802  2.4709 -1.0410
11315TIP3    H255361   4.371   2.148   4.607 -2.1486  1.4583  0.1463
11316TIP3   OH255362   1.439   2.507   5.476  0.0331 -0.3090  0.1905
11316TIP3    H155363   1.409   2.478   5.562 -0.7358  0.5056  0.2101
11316TIP3    H255364   1.390   2.588   5.459  0.0910 -0.5110 -1.0604
11317TIP3   OH255365   0.781   2.102  15.980  0.4273 -0.6232  0.2770
11317TIP3    H155366   0.804   2.044  16.053  0.9363 -1.4750 -0.5495
11317TIP3    H255367   0.863   2.115  15.933 -0.0374 -0.6313 -0.5388
11318TIP3   OH255368   0.880   2.095  15.310 -0.1382 -1.2140 -0.6698
11318TIP3    H155369   0.845   2.135  15.231  2.4316 -1.6984 -2.1462
11318TIP3    H255370   0.843   2.007  15.312  0.2939 -1.4253 -1.7182
11319TIP3   OH255371   4.934   2.857   3.259 -0.0176 -0.1949  0.0721
11319TIP3    H155372   4.930   2.946   3.293  0.5959 -1.1708  3.0144
11319TIP3    H255373   4.986   2.809   3.324  0.3308 -2.5500 -1.8018
11320TIP3   OH255374   6.017   1.403  14.203  0.1487  0.0565 -0.2126
11320TIP3    H155375   5.937   1.439  14.242  0.4480  0.8075 -0.2789
11320TIP3    H255376   6.081   1.474  14.209 -0.0600  0.5908 -2.9837
11321TIP3   OH255377   0.432   1.745   3.632  0.2533 -0.9437 -0.0864
11321TIP3    H155378   0.347   1.789   3.637  0.8305  0.4844 -1.8255
11321TIP3    H255379   0.490   1.798   3.687  0.6880 -0.1256 -1.2955
11322TIP3   OH255380   5.086   3.055  13.320 -0.5531 -0.1472  0.2588
11322TIP3    H155381   5.002   3.034  13.360 -0.8649 -0.4871 -0.5525
11322TIP3    H255382   5.099   3.148  13.339  0.0651 -0.6258  2.4938
11323TIP3   OH255383   5.798   2.721   5.870 -0.0305  0.0576 -0.0188
11323TIP3    H155384   5.874   2.743   5.924 -0.9748  0.9671  0.9947
11323TIP3    H255385   5.732   2.786   5.895 -1.2565 -0.9289 -0.6137
11324TIP3   OH255386   4.221   5.206   1.916 -0.0846 -0.3748  0.1818
11324TIP3    H155387   4.252   5.125   1.956 -0.1119 -0.6935 -0.4350
11324TIP3    H255388   4.285   5.272   1.943  0.9539 -0.9509 -0.7866
11325TIP3   OH255389   1.092   4.029   0.829 -0.1854 -0.5698  0.0901
11325TIP3    H155390   1.163   4.086   0.859  0.9942 -1.1530 -1.4471
11325TIP3    H255391   1.079   3.967   0.901 -2.0037  1.9770  2.1247
11326TIP3   OH255392   5.970   3.378  13.318 -0.1259 -0.1435  0.5395
11326TIP3    H155393   5.975   3.393  13.224  0.6643 -0.2140  0.5648
11326TIP3    H255394   6.055   3.342  13.341 -0.6716 -1.1289  1.1065
11327TIP3   OH255395   5.444   3.266   1.109  0.1521 -0.2578 -0.4485
11327TIP3    H155396   5.508   3.336   1.108 -0.5267  0.3788 -1.6993
11327TIP3    H255397   5.386   3.285   1.035 -2.1144 -0.2217  1.2602
11328TIP3   OH255398   2.012   2.736   1.296 -0.4111  0.4646 -0.2728
11328TIP3    H155399   2.009   2.704   1.206  0.2405  1.5408 -0.7005
11328TIP3    H255400   2.064   2.671   1.343  0.5997  0.6926 -1.0383
11329TIP3   OH255401   3.498   4.571  15.644 -0.3315  0.5302 -0.0347
11329TIP3    H155402   3.508   4.663  15.620 -0.0144  0.8534  1.2301
11329TIP3    H255403   3.535   4.566  15.733  0.3802 -0.9716 -0.3910
11330TIP3   OH255404   3.423   0.615   4.129 -0.2434  0.0422 -0.9068
11330TIP3    H155405   3.504   0.663   4.145 -0.4648  0.2085 -0.2610
11330TIP3    H255406   3.354   0.670   4.166 -0.8589  0.7189 -2.9283
11331TIP3   OH255407   6.649   4.464   0.819  0.1899 -0.0138 -0.4135
11331TIP3    H155408   6.702   4.543   0.808  1.1755 -0.6545 -0.3958
11331TIP3    H255409   6.565   4.496   0.852  0.8734  0.9521  0.4622
11332TIP3   OH255410   2.536   5.330  12.167  0.4246 -0.1445  0.1686
11332TIP3    H155411   2.461   5.317  12.224 -1.2080  0.5732 -1.6889
11332TIP3    H255412   2.525   5.264  12.098  1.0005  0.5333 -0.5916
11333TIP3   OH255413   6.419   1.902  16.223 -0.2233 -0.2151  0.0611
11333TIP3    H155414   6.493   1.845  16.205 -1.8990 -1.7464 -2.8516
11333TIP3    H255415   6.360   1.849  16.277 -0.2833  0.0286  0.2340
11334TIP3   OH255416   4.984   3.192  14.436  0.0444  0.7085  0.3987
11334TIP3    H155417   4.894   3.223  14.424  0.1699  1.3352  0.9795
11334TIP3    H255418   4.976   3.098  14.448 -0.9663  1.0711  4.0288
11335TIP3   OH255419   2.041   6.043   3.425  0.9275 -0.0246  0.3628
11335TIP3    H155420   1.956   6.023   3.384  1.7143 -0.7285 -0.9706
11335TIP3    H255421   2.054   6.136   3.406  0.3734  0.1464  0.7665
11336TIP3   OH255422   1.710   0.513  13.591  0.1135  0.1886  0.8138
11336TIP3    H155423   1.757   0.479  13.515  2.0081  0.4552  1.8164
11336TIP3    H255424   1.771   0.574  13.632 -0.6385 -0.3632  2.8599
11337TIP3   OH255425   0.432   6.467  12.094  0.7642 -0.4152 -0.3195
11337TIP3    H155426   0.421   6.517  12.175 -0.1963  1.8394 -1.7273
11337TIP3    H255427   0.437   6.376  12.122  1.4741  0.3615  2.3252
11338TIP3   OH255428   1.981   2.737   0.980  1.0699  0.0448 -0.5303
11338TIP3    H155429   1.939   2.821   0.964 -0.6717 -0.7927 -0.5758
11338TIP3    H255430   1.943   2.678   0.914  1.0564 -1.1453  0.5010
11339TIP3   OH255431   4.603   1.209  11.061 -0.8671 -0.3549 -0.5190
11339TIP3    H155432   4.517   1.166  11.062 -1.5521  0.8773 -2.1344
11339TIP3    H255433   4.634   1.199  10.971  0.8257 -0.9799  0.0978
11340TIP3   OH255434   5.325   5.640  11.958  0.4123  0.3928  0.1289
11340TIP3    H155435   5.290   5.720  11.919 -0.8577  0.1030  0.5975
11340TIP3    H255436   5.268   5.623  12.033  0.0675 -1.4330 -0.4748
11341TIP3   OH255437   1.157   1.829  16.985  0.3222 -0.2308  0.0345
11341TIP3    H155438   1.245   1.865  16.992 -0.3322  1.2189  1.3732
11341TIP3    H255439   1.115   1.850  17.068 -1.0794 -1.5093 -0.2988
11342TIP3   OH255440   3.256   3.656  13.478  0.2211 -0.0141 -0.8612
11342TIP3    H155441   3.300   3.729  13.433  1.4663  0.0292  0.3641
11342TIP3    H255442   3.182   3.697  13.522  1.3193  0.6749  0.4044
11343TIP3   OH255443   5.067   1.029   0.580  0.5934 -0.6048 -0.4614
11343TIP3    H155444   5.094   1.088   0.651 -0.0505 -0.0669 -0.6605
11343TIP3    H255445   5.141   1.030   0.519  0.3418  0.4904 -0.7707
11344TIP3   OH255446   3.239   1.450  11.593 -0.1084  0.4819  0.2843
11344TIP3    H155447   3.210   1.385  11.657  1.6339 -0.2755  0.3529
11344TIP3    H255448   3.201   1.421  11.510 -0.0430 -0.1211  0.4666
11345TIP3   OH255449   4.056   0.415  16.220 -0.1215  0.3337  0.2424
11345TIP3    H155450   4.107   0.335  16.210  0.0905  0.7036 -2.3623
11345TIP3    H255451   4.104   0.465  16.287  0.4103 -1.1687  1.0358
11346TIP3   OH255452   6.099   6.456   3.409  0.0681  0.0747  0.3935
11346TIP3    H155453   6.005   6.442   3.394  0.4239 -2.2501 -0.0092
11346TIP3    H255454   6.109   6.450   3.504  0.0169 -1.6081  0.3305
11347TIP3   OH255455   2.944   2.426  13.151 -0.2304 -0.1321 -0.5700
11347TIP3    H155456   2.864   2.431  13.205 -0.0906 -0.2904 -0.3454
11347TIP3    H255457   2.938   2.341  13.108  0.6883 -0.9655  0.8459
11348TIP3   OH255458   3.965   2.765  16.262  0.0725 -0.9207 -0.1613
11348TIP3    H155459   3.905   2.776  16.336  0.3395  0.3136 -0.1100
11348TIP3    H255460   4.001   2.677  16.274  0.5468 -0.5362  1.5191
11349TIP3   OH255461   1.375   1.864  11.193 -0.1933 -0.3367  0.6178
11349TIP3    H155462   1.419   1.888  11.111 -0.8824  0.1529  0.3780
11349TIP3    H255463   1.428   1.793  11.229  0.5303 -0.0576  0.1154
11350TIP3   OH255464   5.320   3.444   1.266  0.3200 -0.1250  0.5858
11350TIP3    H155465   5.384   3.516   1.260 -0.4815  0.6105  0.7078
11350TIP3    H255466   5.368   3.367   1.234  0.7015  0.7902 -1.1893
11351TIP3   OH255467   4.693   2.006   0.549 -0.4262  0.0982 -0.1246
11351TIP3    H155468   4.746   1.975   0.475  0.1756  1.5380 -0.3277
11351TIP3    H255469   4.639   2.076   0.511  0.5397  1.4792  0.9657
11352TIP3   OH255470   6.755   6.722   3.808 -0.0906  0.1514 -0.1646
11352TIP3    H155471   6.687   6.787   3.825 -1.5702 -1.1198 -0.9931
11352TIP3    H255472   6.791   6.702   3.894 -1.5634  0.0152  0.4447
11353TIP3   OH255473   5.288   2.169   3.875 -0.1304 -0.3657 -0.1684
11353TIP3    H155474   5.330   2.101   3.822 -2.0434 -0.9561 -1.0260
11353TIP3    H255475   5.194   2.153   3.864 -0.6192  1.6573  0.6258
11354TIP3   OH255476   4.970   4.217  16.899 -0.2083 -0.0206  0.5999
11354TIP3    H155477   5.035   4.284  16.877  0.5718 -0.3969  1.6335
11354TIP3    H255478   5.017   4.134  16.889 -1.2824 -0.4579 -1.0642
11355TIP3   OH255479   2.725   3.306  15.711 -0.1509 -0.3494  0.4663
11355TIP3    H155480   2.651   3.365  15.696  1.2303  1.1768 -0.7302
11355TIP3    H255481   2.750   3.277  15.623  1.2271 -0.0788  0.7485
11356TIP3   OH255482   0.645   3.914  13.284  0.0917  0.3657 -0.0799
11356TIP3    H155483   0.647   4.005  13.256  0.2866  0.2034 -0.6175
11356TIP3    H255484   0.552   3.893  13.293  0.0597  1.0473  1.5310
11357TIP3   OH255485   3.686   0.557  11.449  0.9420  0.1514  0.0750
11357TIP3    H155486   3.735   0.625  11.497 -0.9266  1.0775  0.7565
11357TIP3    H255487   3.694   0.582  11.357  0.4600  1.1801  0.3024
11358TIP3   OH255488   6.389   5.864   1.275  0.1161  0.3010  0.2138
11358TIP3    H155489   6.366   5.775   1.249  1.8713 -0.1447  0.1042
11358TIP3    H255490   6.331   5.883   1.349  0.3776 -1.2940  0.8670
11359TIP3   OH255491   0.170   2.080  13.249 -0.3005 -0.1359 -0.0815
11359TIP3    H155492   0.137   2.110  13.165 -1.0839  0.8750  0.5745
11359TIP3    H255493   0.118   2.002  13.269 -0.2426 -0.2661 -0.4227
11360TIP3   OH255494   3.802   0.400   1.687  0.3329 -0.1384  0.2577
11360TIP3    H155495   3.774   0.309   1.695  0.3196 -0.2583 -0.8984
11360TIP3    H255496   3.898   0.395   1.686  0.3499 -0.0421  1.1159
11361TIP3   OH255497   5.324   4.148  13.529  0.7945 -0.3771  0.4691
11361TIP3    H155498   5.334   4.055  13.548  0.2837 -0.6009 -0.3042
11361TIP3    H255499   5.277   4.183  13.605  0.8508 -0.7797  0.6927
11362TIP3   OH255500   0.070   2.907   3.508 -0.3256  0.2260 -0.1526
11362TIP3    H155501   0.134   2.845   3.474  0.5703  1.9054 -1.7359
11362TIP3    H255502   0.094   2.918   3.600 -0.4618 -1.6809  0.1315
11363TIP3   OH255503   0.059   5.461  12.572 -0.5201 -0.6764  0.3642
11363TIP3    H155504   0.055   5.501  12.659  0.9430 -1.5058  0.8587
11363TIP3    H255505  -0.017   5.403  12.569 -2.2029  1.4217 -0.0461
11364TIP3   OH255506   5.732   5.559  14.809 -0.0238 -0.2836 -0.4267
11364TIP3    H155507   5.758   5.485  14.754 -1.3838  0.2335 -1.8461
11364TIP3    H255508   5.756   5.636  14.759 -0.5090  0.2141  0.0982
11365TIP3   OH255509   4.688   0.218   3.452  0.8527  0.3669  0.5021
11365TIP3    H155510   4.683   0.139   3.505  0.3523 -1.2586 -1.7965
11365TIP3    H255511   4.608   0.266   3.470 -0.7114 -1.6009 -0.8170
11366TIP3   OH255512   2.572   6.750  11.103 -0.6554 -0.0332  1.0055
11366TIP3    H155513   2.492   6.766  11.053 -0.0211  2.6982  0.6768
11366TIP3    H255514   2.542   6.733  11.192 -1.6596  2.7884  1.3105
11367TIP3   OH255515   2.196   2.331   0.810 -0.0672  0.2829 -0.0651
11367TIP3    H155516   2.126   2.268   0.793 -1.0941  1.4869 -0.4650
11367TIP3    H255517   2.189   2.394   0.738  1.2924  0.5535  0.0185
11368TIP3   OH255518   0.866   0.285   2.198 -0.1567 -0.0685 -0.1432
11368TIP3    H155519   0.889   0.331   2.278  0.3152  0.0070 -0.3172
11368TIP3    H255520   0.815   0.348   2.147 -0.8090 -0.2545  0.2694
11369TIP3   OH255521   5.979   3.923   1.828  0.1000 -0.0099  0.3385
11369TIP3    H155522   5.938   3.837   1.833 -0.5294  0.1812 -0.9762
11369TIP3    H255523   5.971   3.947   1.735 -0.6805  1.9156  0.8632
11370TIP3   OH255524   0.453   6.266   5.240  0.5356 -0.1692  0.2743
11370TIP3    H155525   0.436   6.331   5.308 -1.0515 -1.2951  1.0243
11370TIP3    H255526   0.430   6.310   5.158  0.7920  0.6389  0.6301
11371TIP3   OH255527   6.547   3.738  15.677 -0.3993  0.1967  0.1354
11371TIP3    H155528   6.577   3.649  15.694  1.0717  0.5522 -0.4706
11371TIP3    H255529   6.484   3.729  15.605  0.1270 -0.2988 -0.2644
11372TIP3   OH255530   5.440   4.256   0.948  0.6312 -0.6599 -0.4771
11372TIP3    H155531   5.386   4.274   1.025  2.1838  1.0873  0.2829
11372TIP3    H255532   5.456   4.161   0.951 -0.4696 -0.8313  0.5618
11373TIP3   OH255533   3.492   1.159  16.705  0.3084 -0.2687  0.1096
11373TIP3    H155534   3.447   1.129  16.784 -1.9817 -0.2999 -1.1180
11373TIP3    H255535   3.571   1.106  16.701 -1.6075 -3.4142  0.1787
11374TIP3   OH255536   1.905   1.692  11.615 -0.1896  0.0138 -0.1007
11374TIP3    H155537   1.881   1.736  11.697 -0.2719 -0.0779 -0.0756
11374TIP3    H255538   1.900   1.761  11.549  1.0837  0.3794  0.1656
11375TIP3   OH255539   0.222   4.288   2.030 -0.4563 -0.1125 -0.2388
11375TIP3    H155540   0.145   4.239   2.001 -0.9350  0.8953 -0.7458
11375TIP3    H255541   0.289   4.270   1.963 -0.9716  0.7424 -1.0096
11376TIP3   OH255542   5.483   4.212   6.400 -0.2801  0.4257 -0.4170
11376TIP3    H155543   5.478   4.116   6.405  0.2280  0.3982 -0.4262
11376TIP3    H255544   5.466   4.241   6.490 -1.1825  0.3650 -0.5590
11377TIP3   OH255545   3.762   5.836  11.514  0.3639  0.0946 -0.6078
11377TIP3    H155546   3.826   5.769  11.536  1.1697  0.8249 -0.6537
11377TIP3    H255547   3.681   5.788  11.498  1.6412 -1.2407 -3.8544
11378TIP3   OH255548   2.986   2.376  15.096 -0.1029 -0.1484 -0.0786
11378TIP3    H155549   2.926   2.302  15.107 -0.4772  0.0345 -0.8349
11378TIP3    H255550   2.969   2.432  15.172 -1.3914  0.2459 -0.6416
11379TIP3   OH255551   3.226   0.177  11.384 -0.0297  0.3365 -0.0103
11379TIP3    H155552   3.279   0.130  11.320 -0.3656 -0.1541  0.0643
11379TIP3    H255553   3.236   0.269  11.361 -0.5468  0.1371 -1.0745
11380TIP3   OH255554   1.306   3.403  15.111  0.2707  0.0967 -0.4716
11380TIP3    H155555   1.379   3.372  15.058 -0.7705 -0.3627 -1.6863
11380TIP3    H255556   1.347   3.444  15.188  1.7723 -0.4442 -0.9592
11381TIP3   OH255557   2.302   3.297   5.150  0.4809 -0.1220 -0.7007
11381TIP3    H155558   2.222   3.275   5.198  1.9806 -0.7304  1.7226
11381TIP3    H255559   2.325   3.384   5.181 -0.1280  0.8172 -2.7399
11382TIP3   OH255560   2.742   3.808  12.275  0.3933  0.4862 -0.3043
11382TIP3    H155561   2.780   3.754  12.345  2.0235  1.5803 -0.2951
11382TIP3    H255562   2.652   3.775  12.266  0.4106 -0.2600  1.6873
11383TIP3   OH255563   6.681   6.708   1.596 -0.0358 -0.1093 -0.3761
11383TIP3    H155564   6.600   6.657   1.602 -0.7723  1.1808  1.6453
11383TIP3    H255565   6.653   6.795   1.567  0.1795  1.0729  2.5991
11384TIP3   OH255566   3.197   2.476   3.258  0.0084  0.5721 -0.3551
11384TIP3    H155567   3.107   2.477   3.226 -0.5490 -1.4027  0.9318
11384TIP3    H255568   3.202   2.548   3.320 -2.1224 -1.7511  2.8519
11385TIP3   OH255569   1.043   4.020   5.713 -0.3444 -0.1220  0.6668
11385TIP3    H155570   1.090   4.072   5.779  1.6167 -1.7827  0.6673
11385TIP3    H255571   1.008   4.085   5.653  2.1229  1.2791  0.5781
11386TIP3   OH255572   5.464   4.986   1.216  0.1861 -0.2152  0.3755
11386TIP3    H155573   5.376   4.996   1.254  0.6930  1.5469  1.2241
11386TIP3    H255574   5.450   4.991   1.122 -0.8513 -2.3293  0.3607
11387TIP3   OH255575   1.144   3.062   0.477 -0.3083  0.0733 -0.2574
11387TIP3    H155576   1.148   3.157   0.488  1.5901 -0.2116  2.9212
11387TIP3    H255577   1.053   3.044   0.456 -0.9880  2.5279  0.2180
11388TIP3   OH255578   2.463   0.339   4.851 -0.3527  0.5768  0.3935
11388TIP3    H155579   2.530   0.395   4.890  1.3036 -1.9410  1.3752
11388TIP3    H255580   2.433   0.388   4.774  2.5216  1.8848 -0.0207
11389TIP3   OH255581   5.389   4.581   2.122  0.3956  0.3708  0.8650
11389TIP3    H155582   5.400   4.649   2.056 -1.5615 -1.3958 -1.4640
11389TIP3    H255583   5.300   4.593   2.155 -0.2283 -1.3611 -0.0501
11390TIP3   OH255584   1.922   3.946  13.791  0.2151  0.5012  0.4480
11390TIP3    H155585   1.907   3.992  13.709 -1.6901  1.7682  1.4257
11390TIP3    H255586   1.844   3.892  13.803  1.0331 -0.6449  0.8443
11391TIP3   OH255587   5.163   5.510   0.419  0.1159 -0.7884 -0.1065
11391TIP3    H155588   5.241   5.548   0.460  1.7716 -0.3291 -3.3092
11391TIP3    H255589   5.118   5.585   0.380 -0.2938 -1.3591 -0.7590
11392TIP3   OH255590   5.506   4.353   5.108 -0.1698  0.0045 -0.1817
11392TIP3    H155591   5.469   4.274   5.069  0.4014 -0.0771 -0.5841
11392TIP3    H255592   5.559   4.391   5.038 -1.3990  1.4194 -0.3910
11393TIP3   OH255593   1.164   2.686   1.213  0.0886 -0.1747  0.5151
11393TIP3    H155594   1.227   2.617   1.192 -0.1195  0.1435 -1.3117
11393TIP3    H255595   1.215   2.766   1.215  0.0419 -0.1516  0.9177
11394TIP3   OH255596   4.885   4.730  12.227  0.1827  0.0885  0.1153
11394TIP3    H155597   4.816   4.754  12.167 -0.2043 -1.5735 -0.1475
11394TIP3    H255598   4.840   4.706  12.308  0.2944 -2.2330 -0.4543
11395TIP3   OH255599   1.970   5.895   5.503  0.2740  0.4649 -0.1201
11395TIP3    H155600   1.945   5.840   5.429 -0.2777  0.7650 -0.1680
11395TIP3    H255601   2.052   5.858   5.535 -1.0784 -1.6510  1.1340
11396TIP3   OH255602   5.139   4.250  13.752 -0.1390  0.0365  0.1849
11396TIP3    H155603   5.075   4.246  13.823 -0.7388 -1.5653 -0.4022
11396TIP3    H255604   5.172   4.340  13.755 -1.0723  0.3712  1.6665
11397TIP3   OH255605   1.665   2.319  10.608  0.3105  0.2698  0.5962
11397TIP3    H155606   1.694   2.369  10.684  0.7056  1.7997 -0.5281
11397TIP3    H255607   1.745   2.300  10.559 -0.1287  0.9712 -0.4199
11398TIP3   OH255608   5.453   6.728   0.215 -0.0933 -0.9369 -0.0818
11398TIP3    H155609   5.446   6.668   0.289  0.4453 -1.4929 -0.4710
11398TIP3    H255610   5.395   6.801   0.237  0.1484 -1.0435  0.9282
11399TIP3   OH255611   5.856   1.198  12.757  0.4281  0.3718  0.2207
11399TIP3    H155612   5.905   1.243  12.688  2.2685 -2.1586 -0.2821
11399TIP3    H255613   5.923   1.146  12.803 -1.1383  0.1843  2.4030
11400TIP3   OH255614   6.176   1.296  15.807  0.7968  0.2261 -0.2126
11400TIP3    H155615   6.176   1.358  15.880 -1.3918  0.2072 -0.1140
11400TIP3    H255616   6.141   1.215  15.845 -0.0090  0.1040 -1.1750
11401TIP3   OH255617   5.655   5.120   2.755  0.6395 -0.3758  0.1226
11401TIP3    H155618   5.702   5.038   2.771  1.7970 -0.0384 -1.3474
11401TIP3    H255619   5.675   5.142   2.664 -0.7195  0.8682  0.0913
11402TIP3   OH255620   0.600   2.703  11.338 -0.3511  0.2406 -0.0223
11402TIP3    H155621   0.571   2.647  11.265  2.0059 -0.5638 -0.4135
11402TIP3    H255622   0.580   2.652  11.417 -1.2005  0.2990 -0.1923
11403TIP3   OH255623   3.741   3.483  15.677  0.6807 -0.3080  0.1741
11403TIP3    H155624   3.761   3.391  15.692 -1.0001 -0.3939  2.4467
11403TIP3    H255625   3.772   3.528  15.756 -0.1503  0.7962 -0.1014
11404TIP3   OH255626   2.651   2.532   1.154  0.7505  0.1574  0.1938
11404TIP3    H155627   2.628   2.507   1.064 -1.8817  0.0373  0.8091
11404TIP3    H255628   2.624   2.458   1.208 -0.2075  1.2430  1.2972
11405TIP3   OH255629   2.974   3.831  14.685 -0.5532 -0.3773 -0.3809
11405TIP3    H155630   2.889   3.871  14.704 -0.0703  0.6251 -0.2478
11405TIP3    H255631   3.038   3.898  14.712  0.2687 -1.0468 -0.6406
11406TIP3   OH255632   6.552   5.925   3.040  0.2661 -0.1025  0.4363
11406TIP3    H155633   6.610   5.950   2.968  1.2672  2.3192  1.9422
11406TIP3    H255634   6.488   5.996   3.044  0.7252  0.2513  2.3959
11407TIP3   OH255635   6.454   4.270   1.752  0.2325  0.1204 -0.5885
11407TIP3    H155636   6.459   4.257   1.847  0.2733  0.5051 -0.5382
11407TIP3    H255637   6.360   4.280   1.734  0.3768  2.8243 -0.2077
11408TIP3   OH255638   1.149   5.714   3.271 -0.1502 -0.3882  0.4295
11408TIP3    H155639   1.150   5.810   3.267  0.5996 -0.2959  2.0570
11408TIP3    H255640   1.240   5.689   3.257 -0.2521 -0.8276  0.5502
11409TIP3   OH255641   2.573   2.060  11.227  0.2392 -0.4650  0.1799
11409TIP3    H155642   2.552   2.002  11.301 -0.3462  0.1534  0.5071
11409TIP3    H255643   2.599   2.142  11.268  1.7028 -0.6846 -0.2719
11410TIP3   OH255644   4.687   6.614  14.087  0.3714 -0.2481  0.0642
11410TIP3    H155645   4.623   6.685  14.086 -0.8130 -1.2968  0.3506
11410TIP3    H255646   4.709   6.603  14.180  0.4860 -0.3195  0.0276
11411TIP3   OH255647   2.979   0.497   3.730 -0.2045  0.0188 -0.4306
11411TIP3    H155648   3.022   0.450   3.659 -0.0343 -0.4654 -0.0065
11411TIP3    H255649   2.924   0.562   3.685 -1.3251 -1.3160 -1.0621
11412TIP3   OH255650   0.640   0.989  15.178 -0.7497  0.0094  0.2923
11412TIP3    H155651   0.680   0.966  15.262 -1.9873 -0.6076  0.7497
11412TIP3    H255652   0.700   0.954  15.112 -0.8715 -1.5623  0.9641
11413TIP3   OH255653   0.409   5.173   2.815  0.3372 -0.8200  0.5158
11413TIP3    H155654   0.380   5.139   2.900 -0.3549 -2.1925 -0.2388
11413TIP3    H255655   0.412   5.268   2.828 -1.0537 -0.8923  1.6887
11414TIP3   OH255656   5.058   2.250  16.225 -0.2179 -0.6073  0.8409
11414TIP3    H155657   5.057   2.214  16.314 -1.3954  0.0692  1.1232
11414TIP3    H255658   5.139   2.302  16.222 -0.1544 -0.6519  1.5116
11415TIP3   OH255659   6.325   5.372  10.551 -0.1537  0.1428  1.0365
11415TIP3    H155660   6.231   5.386  10.540 -0.5160 -0.9701  2.3619
11415TIP3    H255661   6.332   5.311  10.624  1.5356 -1.4887 -0.3826
11416TIP3   OH255662   6.770   2.610  11.731 -0.2263 -0.4012 -0.6345
11416TIP3    H155663   6.697   2.549  11.734  1.1523 -2.0906  0.6719
11416TIP3    H255664   6.823   2.588  11.807  1.7707  0.5825 -1.6588
11417TIP3   OH255665   3.244   1.156   1.051  0.2376 -0.4270  0.3427
11417TIP3    H155666   3.159   1.112   1.051 -0.9578  1.6985 -0.3731
11417TIP3    H255667   3.265   1.169   1.143 -1.7519  1.6268  0.6074
11418TIP3   OH255668   4.084   5.596   3.399  0.1102 -0.3493 -0.3476
11418TIP3    H155669   4.149   5.595   3.470 -0.0687 -0.0791 -0.1772
11418TIP3    H255670   4.134   5.572   3.321  0.3333 -0.5381 -0.1506
11419TIP3   OH255671   3.358   0.291  13.753  0.4813 -0.6750  0.1207
11419TIP3    H155672   3.342   0.221  13.816 -0.8398 -1.9086 -1.4828
11419TIP3    H255673   3.388   0.246  13.674 -0.6063  0.5200 -1.0315
11420TIP3   OH255674   2.973   5.165   6.511  0.3201  0.0702  0.0239
11420TIP3    H155675   3.022   5.090   6.544 -2.1949 -1.4779  0.5121
11420TIP3    H255676   2.981   5.159   6.416  1.4863  0.2030  0.0939
11421TIP3   OH255677   5.697   2.984   2.117  0.4414 -0.2425  1.0649
11421TIP3    H155678   5.633   2.955   2.181 -0.3699  1.4232  1.0487
11421TIP3    H255679   5.782   2.966   2.157 -0.0489 -0.6394  1.9310
11422TIP3   OH255680   3.619   4.632  15.894 -0.4402  0.3790  0.1917
11422TIP3    H155681   3.575   4.645  15.979 -2.1165  0.2760 -0.6238
11422TIP3    H255682   3.700   4.586  15.916 -1.4251 -0.7694  1.6251
11423TIP3   OH255683   1.684   0.201  14.503  0.3925 -0.3162 -0.3964
11423TIP3    H155684   1.658   0.119  14.461  0.0253 -0.7086  0.5473
11423TIP3    H255685   1.743   0.173  14.573 -0.1271  0.1606  0.2520
11424TIP3   OH255686   6.747   2.679   3.731 -0.5136  0.0523 -0.7017
11424TIP3    H155687   6.783   2.636   3.808 -0.0172  0.6611 -0.5841
11424TIP3    H255688   6.782   2.768   3.735 -1.9288  0.6406 -0.6494
11425TIP3   OH255689   1.843   4.462   0.794  0.1049  0.4458  0.3315
11425TIP3    H155690   1.935   4.437   0.806  0.5333  2.4317  1.7313
11425TIP3    H255691   1.821   4.511   0.873 -1.9537  0.6548 -0.3118
11426TIP3   OH255692   0.606   2.332   4.649  0.2560  0.2553 -0.2338
11426TIP3    H155693   0.601   2.383   4.730 -2.0734  1.3472 -0.9784
11426TIP3    H255694   0.542   2.262   4.661 -0.4112  0.6689 -1.2514
11427TIP3   OH255695   3.570   2.780   4.931  0.2503 -0.2849 -0.3864
11427TIP3    H155696   3.559   2.867   4.969  1.4270  0.7758 -2.3113
11427TIP3    H255697   3.487   2.735   4.948 -0.3102  1.1305  0.8100
11428TIP3   OH255698   2.261   2.751  14.843 -0.4495  0.4129 -0.0821
11428TIP3    H155699   2.329   2.800  14.887 -1.0828  0.8172  0.4693
11428TIP3    H255700   2.263   2.665  14.885 -1.5458  1.0221  1.3131
11429TIP3   OH255701   1.814   3.199  13.949  0.2456  0.7725 -0.1712
11429TIP3    H155702   1.751   3.173  13.881  1.5696  0.0058 -1.1594
11429TIP3    H255703   1.898   3.166  13.917  0.8996  0.2965  1.9189
11430TIP3   OH255704   6.466   5.488  12.553 -0.2690 -0.2816 -0.0626
11430TIP3    H155705   6.548   5.512  12.509 -0.6602 -2.7031 -2.3616
11430TIP3    H255706   6.488   5.410  12.604 -1.0789 -0.8719 -0.5961
11431TIP3   OH255707   3.646   0.184  15.828 -0.9735 -0.0395  0.3784
11431TIP3    H155708   3.689   0.200  15.744 -0.4230 -1.3547  0.3834
11431TIP3    H255709   3.561   0.148  15.804 -0.4579 -1.2960  0.3607
11432TIP3   OH255710   2.329   5.569  12.409  0.0003  0.2390  0.6191
11432TIP3    H155711   2.400   5.582  12.471 -0.2759  0.4605  0.8901
11432TIP3    H255712   2.358   5.614  12.330 -0.6771  2.0157  1.3462
11433TIP3   OH255713   0.440   4.395  15.369 -0.1807 -0.1107 -0.2549
11433TIP3    H155714   0.350   4.386  15.337  0.0617  2.7927 -2.0845
11433TIP3    H255715   0.450   4.488  15.386  2.2076 -0.5149  0.8897
11434TIP3   OH255716   6.746   5.052  16.272 -0.3136  0.0648  0.3004
11434TIP3    H155717   6.772   5.133  16.228  0.4523 -0.2365  0.1876
11434TIP3    H255718   6.774   5.063  16.362 -0.1305 -0.1142  0.2636
11435TIP3   OH255719   5.226   2.393  14.139 -0.3617  0.0376  0.1527
11435TIP3    H155720   5.236   2.380  14.045 -0.9010 -0.1183  0.1118
11435TIP3    H255721   5.311   2.370  14.176 -0.5336 -1.1786 -0.1708
11436TIP3   OH255722   1.899   4.726  14.263  0.3112 -0.0161  0.5755
11436TIP3    H155723   1.896   4.822  14.273 -3.3753 -0.0481  1.4164
11436TIP3    H255724   1.921   4.694  14.351 -1.2831  0.1205  1.0738
11437TIP3   OH255725   1.344   1.109  11.807  0.2455  0.0294  0.1337
11437TIP3    H155726   1.308   1.176  11.748 -0.9823  0.5151  1.3777
11437TIP3    H255727   1.412   1.065  11.755 -0.0141  1.1815 -1.2438
11438TIP3   OH255728   6.026   5.573   0.524  0.7788  0.0484  0.4534
11438TIP3    H155729   5.931   5.560   0.516  0.7155  0.5561  0.3511
11438TIP3    H255730   6.064   5.502   0.472  0.4114  1.7743 -2.3827
11439TIP3   OH255731   6.576   4.843   4.981 -0.2642  0.5498  0.1782
11439TIP3    H155732   6.644   4.861   5.046  0.3968  0.0973 -0.3690
11439TIP3    H255733   6.613   4.875   4.898  0.3278 -1.8673 -0.5711
11440TIP3   OH255734   5.508   5.327   4.918 -0.0463 -0.0423  0.7345
11440TIP3    H155735   5.526   5.341   4.825 -0.7953 -1.1820  0.4008
11440TIP3    H255736   5.539   5.238   4.935 -3.9165 -1.6316  0.4314
11441TIP3   OH255737   3.218   1.490  16.145  0.0706  0.1383 -0.0506
11441TIP3    H155738   3.141   1.448  16.182 -0.1069  1.4669  1.1152
11441TIP3    H255739   3.184   1.560  16.090  0.4299  0.2395 -0.1509
11442TIP3   OH255740   4.019   1.867  17.218  0.0804 -0.4011  0.2574
11442TIP3    H155741   3.998   1.957  17.192 -2.9396 -0.7164  1.2776
11442TIP3    H255742   4.114   1.861  17.205 -0.0107  1.8936 -2.8835
11443TIP3   OH255743   5.759   5.935   5.332  0.0359  0.3552 -0.4024
11443TIP3    H155744   5.731   6.023   5.356  0.3652  0.1989  0.6041
11443TIP3    H255745   5.853   5.935   5.349 -0.1530 -0.5517  0.8206
11444TIP3   OH255746   0.271   2.437  12.115  0.3007 -0.0616  0.5151
11444TIP3    H155747   0.353   2.444  12.162  0.1335 -2.3460  1.2578
11444TIP3    H255748   0.268   2.346  12.085  0.0454  1.0410 -3.3164
11445TIP3   OH255749   1.814   3.249  15.442 -0.2968 -0.0148  0.3274
11445TIP3    H155750   1.794   3.271  15.351  1.8504 -1.3566 -0.5553
11445TIP3    H255751   1.755   3.178  15.463 -2.3414  1.7333  0.7950
11446TIP3   OH255752   6.417   2.301  13.640 -0.3902  0.4106  0.3295
11446TIP3    H155753   6.349   2.282  13.704 -2.4666  0.1227 -1.8138
11446TIP3    H255754   6.378   2.276  13.556  2.1181  0.9298 -1.0888
11447TIP3   OH255755   0.825   3.078   2.620  0.4998  0.2611 -0.1241
11447TIP3    H155756   0.915   3.080   2.587  0.7598  2.0642  0.5844
11447TIP3    H255757   0.832   3.038   2.706  0.8609  1.6464  0.5099
11448TIP3   OH255758   2.316   6.284  11.404 -0.1433  0.1284 -0.8262
11448TIP3    H155759   2.233   6.274  11.358 -3.0810  2.5096  3.3554
11448TIP3    H255760   2.305   6.360  11.460  2.9993 -2.1586  3.5859
11449TIP3   OH255761   3.651   0.710  16.203 -0.1725 -0.3280 -0.1139
11449TIP3    H155762   3.649   0.663  16.120 -0.5986 -1.6609  0.6253
11449TIP3    H255763   3.562   0.745  16.213 -0.6108 -1.5667  0.5309
11450TIP3   OH255764   5.939   1.137  14.096 -0.4713  0.3316  0.5572
11450TIP3    H155765   6.029   1.120  14.124 -1.5159 -2.4381  2.6905
11450TIP3    H255766   5.920   1.225  14.128  1.5954  1.2283 -0.4804
11451TIP3   OH255767   4.426   0.638  16.368  0.1620  0.0542 -0.9835
11451TIP3    H155768   4.446   0.692  16.444  0.8053 -1.7594  0.2058
11451TIP3    H255769   4.441   0.695  16.293  0.5019  1.5935  0.2129
11452TIP3   OH255770   4.365   4.190   2.006 -0.0704  0.7058  0.1400
11452TIP3    H155771   4.291   4.140   2.040  0.3835  0.4239  0.7156
11452TIP3    H255772   4.349   4.279   2.037  0.5389  0.3844  1.4644
11453TIP3   OH255773   1.992   1.264   0.278  0.3379  0.3862  0.6001
11453TIP3    H155774   2.058   1.252   0.346 -0.3652 -2.2981  0.9157
11453TIP3    H255775   1.962   1.176   0.257 -2.0650  1.3821 -0.6189
11454TIP3   OH255776   2.195   1.100  12.876  0.6995  0.1988  0.0687
11454TIP3    H155777   2.165   1.157  12.947  2.2053 -1.1421  1.9050
11454TIP3    H255778   2.289   1.116  12.871  1.1351 -1.9152  0.5259
11455TIP3   OH255779   6.191   4.462  12.724 -0.1162  0.7028 -0.4998
11455TIP3    H155780   6.241   4.456  12.642 -1.0590 -0.5715 -1.0128
11455TIP3    H255781   6.242   4.413  12.788 -0.4785 -0.2621 -0.9249
11456TIP3   OH255782   1.953   1.737   5.910  0.1567 -0.0638 -0.6023
11456TIP3    H155783   1.859   1.755   5.904 -0.1639 -1.7889 -1.1436
11456TIP3    H255784   1.967   1.663   5.852  1.5164 -1.1034  0.9626
11457TIP3   OH255785   1.300   0.289   2.974  0.1479 -0.4253  0.0744
11457TIP3    H155786   1.363   0.274   2.903 -0.2772 -2.5416  0.0863
11457TIP3    H255787   1.266   0.202   2.995 -1.7770  0.4874  1.0110
11458TIP3   OH255788   0.105   5.677  14.805  0.1178  0.1678  0.5229
11458TIP3    H155789   0.117   5.596  14.854  0.5865  0.9694  1.8035
11458TIP3    H255790   0.192   5.717  14.803 -0.0611  0.5394 -0.2798
11459TIP3   OH255791   2.600   3.223   2.318 -0.4839 -0.6580  0.1753
11459TIP3    H155792   2.647   3.183   2.391 -2.2577 -1.5407  0.8821
11459TIP3    H255793   2.509   3.229   2.348 -0.7084  1.9828 -0.7214
11460TIP3   OH255794   3.720   2.615  13.790  0.0702  0.0002 -0.2896
11460TIP3    H155795   3.789   2.669  13.829 -0.8708 -1.0038  3.1407
11460TIP3    H255796   3.651   2.677  13.766  0.4217  0.6542  0.3529
11461TIP3   OH255797   4.220   1.307   4.987 -0.1399  0.2835 -0.0113
11461TIP3    H155798   4.184   1.391   4.959 -0.0407  0.3703  0.1235
11461TIP3    H255799   4.231   1.315   5.082  0.5940  0.3933 -0.1022
11462TIP3   OH255800   3.215   0.305   4.190 -0.6151 -0.0462 -0.2903
11462TIP3    H155801   3.245   0.235   4.247 -0.4306  1.4522  1.5412
11462TIP3    H255802   3.210   0.382   4.246 -1.0417  1.3820 -2.1659
11463TIP3   OH255803   6.238   2.532   2.981  0.2659 -0.9177 -0.6865
11463TIP3    H155804   6.195   2.448   2.996 -0.3752 -0.3171  1.0855
11463TIP3    H255805   6.166   2.594   2.968  0.7067 -0.4896 -1.1677
11464TIP3   OH255806   0.190   4.802   2.483  0.4066  0.3345  0.7447
11464TIP3    H155807   0.202   4.870   2.550 -0.0831  1.6491 -0.4392
11464TIP3    H255808   0.241   4.833   2.408 -0.8435  0.0693 -0.2579
11465TIP3   OH255809   6.131   0.846  14.261  0.2351  0.2949 -0.0583
11465TIP3    H155810   6.198   0.809  14.204  1.5382  1.7730  0.4405
11465TIP3    H255811   6.049   0.837  14.212  0.5210 -2.7312 -0.1398
11466TIP3   OH255812   1.081   3.783   5.806 -0.4577 -0.2715 -0.5629
11466TIP3    H155813   1.072   3.873   5.773 -0.0466 -0.3105 -0.7836
11466TIP3    H255814   1.027   3.730   5.747 -0.0016 -0.2921 -0.9635
11467TIP3   OH255815   5.334   0.958   5.200  0.0876 -0.0939  0.3329
11467TIP3    H155816   5.424   0.946   5.231  1.1901  1.5561 -1.9662
11467TIP3    H255817   5.304   1.038   5.243  0.6257  0.6791 -0.6909
11468TIP3   OH255818   1.338   3.516   6.536  0.5439  0.4077 -0.3129
11468TIP3    H155819   1.333   3.602   6.493  1.3796  0.9543  0.6177
11468TIP3    H255820   1.270   3.520   6.604  0.1798  0.0931 -0.6544
11469TIP3   OH255821   4.011   5.047   4.630  0.0264  0.2680  0.3044
11469TIP3    H155822   3.996   5.140   4.612  0.0999  0.3446  0.6289
11469TIP3    H255823   4.014   5.042   4.726 -2.0360 -0.3920  0.3798
11470TIP3   OH255824   2.660   6.719  10.509  0.1710 -0.7041 -0.2406
11470TIP3    H155825   2.731   6.757  10.560 -0.8371  0.4454  0.3648
11470TIP3    H255826   2.617   6.657  10.569 -3.2793  3.2182  1.8509
11471TIP3   OH255827   0.659   6.537  14.258  0.4197  0.1299  0.2747
11471TIP3    H155828   0.693   6.559  14.171 -1.4151 -0.1490 -0.5621
11471TIP3    H255829   0.653   6.622  14.303  3.2284  0.0767  0.9093
11472TIP3   OH255830   3.258   4.525   3.446  0.6710 -0.5692  0.0815
11472TIP3    H155831   3.243   4.565   3.360  0.6182  1.7564  1.1151
11472TIP3    H255832   3.188   4.460   3.454 -0.4577  0.4686 -0.8946
11473TIP3   OH255833   6.054   4.830  14.428 -0.6167  0.4861 -0.3871
11473TIP3    H155834   6.031   4.812  14.519 -2.0658 -1.4564 -1.0798
11473TIP3    H255835   6.145   4.862  14.432 -0.5620  0.2017  1.6842
11474TIP3   OH255836   0.606   4.868  15.120  0.0309 -0.6739 -0.2102
11474TIP3    H155837   0.634   4.918  15.044  0.4012 -1.0047 -0.2915
11474TIP3    H255838   0.561   4.791  15.084  0.8516 -1.2067 -0.1111
11475TIP3   OH255839   4.771   4.997  14.519 -0.2653 -0.6249 -0.5389
11475TIP3    H155840   4.728   4.953  14.446  0.9447 -1.8265 -0.5686
11475TIP3    H255841   4.829   4.930  14.556  0.4822  0.5017  0.3871
11476TIP3   OH255842   5.560   5.792  13.120  1.0533  0.1146  0.1812
11476TIP3    H155843   5.647   5.806  13.156  0.3832 -2.1694  3.0691
11476TIP3    H255844   5.567   5.819  13.028  4.5446  0.7266  0.5059
11477TIP3   OH255845   2.416   6.113   1.930 -0.2442  0.2855  0.4577
11477TIP3    H155846   2.483   6.062   1.977 -2.0846 -0.4573  2.4483
11477TIP3    H255847   2.388   6.055   1.859  0.3491  0.1047  0.3619
11478TIP3   OH255848   4.280   6.092  12.588 -0.3850 -0.3585 -0.3128
11478TIP3    H155849   4.221   6.153  12.633 -0.3082  0.5814 -1.4211
11478TIP3    H255850   4.248   6.006  12.612 -0.8455  0.1143  0.8624
11479TIP3   OH255851   1.170   1.263   0.358  0.1637 -0.0205  0.7798
11479TIP3    H155852   1.123   1.270   0.275 -0.8394  0.1550  1.3579
11479TIP3    H255853   1.186   1.169   0.368 -0.2060 -0.0957  0.6632
11480TIP3   OH255854   3.693   4.833  13.772 -0.1369 -0.1413  0.2846
11480TIP3    H155855   3.671   4.743  13.751 -0.7622 -0.1750  1.0663
11480TIP3    H255856   3.632   4.858  13.841  1.9266 -0.0798  2.1748
11481TIP3   OH255857   0.497   5.552  12.657  0.4414  0.3349 -1.1716
11481TIP3    H155858   0.429   5.507  12.606 -0.8574 -0.8072  1.3743
11481TIP3    H255859   0.454   5.574  12.740  2.9961  0.0922  0.3240
11482TIP3   OH255860   5.455   6.765   3.872  0.3075  0.7286  0.3683
11482TIP3    H155861   5.409   6.799   3.795 -2.7520  1.3404  2.2524
11482TIP3    H255862   5.471   6.673   3.852 -1.0898  0.6787 -0.7519
11483TIP3   OH255863   2.782   6.624   0.149  0.1713 -0.0748  0.3737
11483TIP3    H155864   2.849   6.556   0.144  0.5442  0.2434  1.0417
11483TIP3    H255865   2.816   6.695   0.095 -1.5187 -1.4647 -2.8217
11484TIP3   OH255866   6.420   4.354  16.708 -0.1524 -0.2074  0.0136
11484TIP3    H155867   6.408   4.445  16.736 -0.8972  0.0372 -1.0313
11484TIP3    H255868   6.383   4.351  16.620  0.6786 -1.3226 -0.3206
11485TIP3   OH255869   0.714   4.831  12.414 -0.2456  0.1253 -0.0794
11485TIP3    H155870   0.747   4.915  12.383 -1.7799  0.8956  0.2811
11485TIP3    H255871   0.792   4.778  12.430  0.9696  2.4483  2.4927
11486TIP3   OH255872   1.560   5.131  14.454 -0.2854  0.4441 -0.0293
11486TIP3    H155873   1.541   5.224  14.470 -1.7378 -0.0781  1.5806
11486TIP3    H255874   1.475   5.093  14.432 -0.2562 -1.0324  2.1921
11487TIP3   OH255875   2.279   6.580   6.039 -0.4825  0.1055  0.0252
11487TIP3    H155876   2.185   6.600   6.045 -0.0238  2.3040  0.9545
11487TIP3    H255877   2.302   6.544   6.124 -0.6008 -1.1753 -0.4635
11488TIP3   OH255878   3.565   6.153   4.171 -0.0548 -0.4490 -0.0638
11488TIP3    H155879   3.610   6.099   4.236 -0.5017 -0.0371  0.5985
11488TIP3    H255880   3.613   6.236   4.170 -0.0191 -0.4719 -0.2923
11489TIP3   OH255881   5.192   1.543  11.638  0.7951 -0.1898  0.2247
11489TIP3    H155882   5.164   1.629  11.607 -6.0082 -1.9540  0.0194
11489TIP3    H255883   5.208   1.556  11.731  0.7324  1.4224  0.0501
11490TIP3   OH255884   4.133   2.132  15.972  0.6069 -0.4871  0.2539
11490TIP3    H155885   4.132   2.227  15.959  3.0745 -0.5145 -0.5161
11490TIP3    H255886   4.074   2.118  16.047 -1.1205  1.4237 -0.6371
11491TIP3   OH255887   2.600   2.669  10.226  0.1223 -0.3063 -0.2190
11491TIP3    H155888   2.532   2.603  10.239 -0.2206  0.0500 -0.1886
11491TIP3    H255889   2.678   2.632  10.269 -1.1417  1.2105  3.7857
11492TIP3   OH255890   4.174   0.662   2.561 -0.0804 -0.3789 -0.3960
11492TIP3    H155891   4.145   0.604   2.631  0.2322 -0.4430 -0.3159
11492TIP3    H255892   4.169   0.750   2.598 -2.0269 -0.1918 -1.0160
11493TIP3   OH255893   4.898   0.472   4.949 -0.7838 -0.2275  0.7058
11493TIP3    H155894   4.907   0.534   5.022  1.0068  0.5332 -0.1080
11493TIP3    H255895   4.860   0.393   4.989  2.2222 -0.6997  3.0336
11494TIP3   OH255896   5.836   4.279  16.545 -0.0040 -0.3102  0.1044
11494TIP3    H155897   5.927   4.299  16.523  0.3653 -1.2841  0.6989
11494TIP3    H255898   5.841   4.215  16.616 -1.1308 -1.7255 -1.0175
11495TIP3   OH255899   2.631   6.548   5.564 -0.0660 -0.0146 -0.1669
11495TIP3    H155900   2.655   6.640   5.564  1.1462 -0.3086  1.2224
11495TIP3    H255901   2.592   6.533   5.650  1.9037 -1.2915  0.5734
11496TIP3   OH255902   0.963   1.278   4.355  0.7507  0.2087  0.1564
11496TIP3    H155903   1.005   1.257   4.272  0.7756 -0.5387  0.3534
11496TIP3    H255904   0.886   1.329   4.330  0.6719 -0.1411 -0.3369
11497TIP3   OH255905   1.141   1.439  15.152  0.0068 -0.4831 -0.4474
11497TIP3    H155906   1.194   1.491  15.212 -0.3077  0.3319 -0.8611
11497TIP3    H255907   1.187   1.445  15.068 -0.5975  0.0062 -0.7445
11498TIP3   OH255908   4.142   6.567  11.531 -0.0000  0.2647 -0.5146
11498TIP3    H155909   4.177   6.623  11.462 -1.6734  0.5276 -1.1926
11498TIP3    H255910   4.049   6.588  11.535 -0.2826 -1.0097  0.6355
11499TIP3   OH255911   3.806   0.403  16.709  0.4501 -0.7574 -0.1204
11499TIP3    H155912   3.877   0.466  16.705 -0.3131  0.1287 -0.0688
11499TIP3    H255913   3.811   0.367  16.798 -0.0903  0.4178  0.4033
11500TIP3   OH255914   5.963   0.808   0.378 -0.3190  0.0056  0.4455
11500TIP3    H155915   5.893   0.866   0.408 -0.3047  0.3280 -0.1253
11500TIP3    H255916   6.030   0.867   0.344 -0.2628 -0.3390 -0.0590
11501TIP3   OH255917   0.524   3.912   6.445 -0.2867 -0.6304 -0.2416
11501TIP3    H155918   0.451   3.881   6.499  0.8683 -1.1500  1.0670
11501TIP3    H255919   0.556   3.990   6.490  0.0904 -0.5142 -0.6996
11502TIP3   OH255920   0.584   1.639  15.826  0.3137 -0.4246 -1.1511
11502TIP3    H155921   0.679   1.633  15.834  0.4593  1.1328 -1.2604
11502TIP3    H255922   0.559   1.705  15.891 -0.8128 -1.4701 -0.4875
11503TIP3   OH255923   3.423   4.374   0.626  0.1504 -0.0498  0.4356
11503TIP3    H155924   3.461   4.307   0.683 -0.0475  1.0524  1.8933
11503TIP3    H255925   3.342   4.399   0.669  0.0955  0.9641 -0.2327
11504TIP3   OH255926   5.213   4.752  14.417 -0.4276 -0.3611 -0.1087
11504TIP3    H155927   5.275   4.753  14.344  0.0873 -2.1466  0.2523
11504TIP3    H255928   5.265   4.782  14.492 -0.1382 -1.2956  0.0771
11505TIP3   OH255929   6.698   1.554  15.083  0.1699  0.1292 -0.1030
11505TIP3    H155930   6.718   1.541  14.990 -1.7478  1.7935 -0.8293
11505TIP3    H255931   6.783   1.549  15.126  1.1051 -0.8469 -1.9060
11506TIP3   OH255932   3.899   4.583  11.615  0.7227 -0.4557 -0.3255
11506TIP3    H155933   3.861   4.585  11.528  1.1623 -0.3108 -0.5147
11506TIP3    H255934   3.944   4.667  11.624 -2.0366  0.9855  1.2755
11507TIP3   OH255935   3.996   0.983  15.692  0.2694  0.5755  0.6456
11507TIP3    H155936   4.055   0.985  15.767 -0.2523  0.0316  1.0817
11507TIP3    H255937   3.941   0.906  15.707 -0.0322  0.6277 -0.1504
11508TIP3   OH255938   6.128   5.955  17.095  0.0347  0.0332  0.2030
11508TIP3    H155939   6.193   5.903  17.048  0.0941  0.0481  0.2683
11508TIP3    H255940   6.180   6.015  17.149 -0.0054  0.9372 -0.7134
11509TIP3   OH255941   4.947   4.190   6.098 -0.1377 -0.1709  0.7158
11509TIP3    H155942   4.968   4.131   6.170 -1.8030  0.4088  1.7173
11509TIP3    H255943   4.911   4.268   6.140  1.6226  1.4296 -0.6043
11510TIP3   OH255944   0.882   4.011  14.416 -0.4880  0.4336  0.0743
11510TIP3    H155945   0.957   3.952  14.418 -2.7463 -2.6566 -0.4481
11510TIP3    H255946   0.880   4.045  14.327 -0.1182 -0.0190 -0.1105
11511TIP3   OH255947   0.724   3.144  14.885 -0.4833  0.1705  0.5317
11511TIP3    H155948   0.705   3.063  14.838 -2.0252  0.3691  0.7596
11511TIP3    H255949   0.784   3.117  14.956  1.3604 -0.2246 -1.0820
11512TIP3   OH255950   5.372   4.903  16.074  0.1942 -0.3147 -0.1852
11512TIP3    H155951   5.394   4.992  16.100  0.0606 -0.4024  0.2350
11512TIP3    H255952   5.378   4.904  15.978  0.6066  0.0326 -0.1611
11513TIP3   OH255953   3.254   2.665  16.084 -0.3698 -0.1008 -0.2090
11513TIP3    H155954   3.284   2.575  16.070  0.3397  0.2390 -0.9840
11513TIP3    H255955   3.285   2.688  16.172  0.5292 -0.2121 -0.4830
11514TIP3   OH255956   4.659   0.251  13.526  0.2077 -0.1647  0.6878
11514TIP3    H155957   4.676   0.241  13.432  0.2214  1.4792  0.4803
11514TIP3    H255958   4.747   0.251  13.566  0.3817  1.7102  0.3769
11515TIP3   OH255959   5.779   5.660  16.588 -0.2990 -0.3660 -0.4572
11515TIP3    H155960   5.851   5.604  16.562  0.5253  0.5528 -0.2351
11515TIP3    H255961   5.821   5.734  16.633 -1.5282 -1.2684  2.4100
11516TIP3   OH255962   3.951   0.324   5.603 -0.3178 -0.5579  0.0561
11516TIP3    H155963   3.996   0.341   5.685  1.0037 -3.9401  0.2021
11516TIP3    H255964   4.014   0.349   5.535 -0.9260  1.0428  0.0383
11517TIP3   OH255965   1.078   1.822  11.306  0.8002  0.2700 -0.3169
11517TIP3    H155966   0.986   1.796  11.310  0.2361  2.2024  0.0654
11517TIP3    H255967   1.122   1.761  11.365  0.0513 -1.6520 -1.6390
11518TIP3   OH255968   2.688   5.264   1.722  0.2775  0.1820 -0.5221
11518TIP3    H155969   2.756   5.203   1.694  0.1847 -0.2489  0.1579
11518TIP3    H255970   2.721   5.299   1.805 -0.3314 -0.0442 -0.1758
11519TIP3   OH255971   0.659   4.936   1.719 -0.8983  0.6320  0.4229
11519TIP3    H155972   0.670   4.854   1.671 -1.8901  0.1798  0.9388
11519TIP3    H255973   0.749   4.966   1.735 -0.4731 -0.8856  1.1091
11520TIP3   OH255974   0.793   2.931   2.316  0.1515  0.7412  0.0461
11520TIP3    H155975   0.756   2.896   2.397  1.2716  0.4345  0.4589
11520TIP3    H255976   0.772   3.024   2.318  0.9165  0.9171  1.1630
11521TIP3   OH255977   2.414   1.365  12.032 -0.2658  0.4015 -0.1661
11521TIP3    H155978   2.498   1.398  12.064  0.6323 -0.6318 -1.3831
11521TIP3    H255979   2.365   1.344  12.112  0.0336  2.3791  0.5867
11522TIP3   OH255980   1.681   3.731   2.170 -0.3995  0.1849  0.6871
11522TIP3    H155981   1.667   3.688   2.086 -0.6225 -0.1302  0.8826
11522TIP3    H255982   1.707   3.660   2.229  1.6009  0.6520  0.4642
11523TIP3   OH255983   4.429   4.648   5.150  0.4551 -0.0284  0.0056
11523TIP3    H155984   4.412   4.568   5.200 -0.0616 -0.1962 -0.4233
11523TIP3    H255985   4.349   4.662   5.099  0.3633  1.0176  0.4120
11524TIP3   OH255986   4.833   3.550   0.536  0.0088  0.3490 -0.7546
11524TIP3    H155987   4.749   3.511   0.515  1.1018 -3.3493  0.8252
11524TIP3    H255988   4.891   3.522   0.465  0.5616  0.1347 -0.2300
11525TIP3   OH255989   1.543   0.032   1.248  0.1568  0.1291  0.0168
11525TIP3    H155990   1.627   0.043   1.292  0.3956 -1.3354 -0.0425
11525TIP3    H255991   1.480   0.069   1.310  0.9218  2.4530 -0.5042
11526TIP3   OH255992   5.545   3.347  16.950 -0.1486  0.4912 -0.4261
11526TIP3    H155993   5.538   3.291  16.873  0.9895  2.9502 -2.4774
11526TIP3    H255994   5.501   3.298  17.020  0.2291 -2.5937 -2.1759
11527TIP3   OH255995   0.843   6.722   4.684 -0.3486 -0.0963 -0.0829
11527TIP3    H155996   0.862   6.815   4.699 -0.4148 -0.0300 -0.3832
11527TIP3    H255997   0.762   6.723   4.633 -1.6858 -0.3954  1.9367
11528TIP3   OH255998   6.253   5.327   3.960  0.2121 -0.6306 -0.3520
11528TIP3    H155999   6.231   5.277   4.038  2.4075 -1.7588 -0.3934
11528TIP3    H256000   6.317   5.391   3.991 -1.5784  1.3890 -0.5666
11529TIP3   OH256001   4.143   0.337  17.073  0.0744  0.6059  0.5903
11529TIP3    H156002   4.203   0.274  17.033 -0.6374  1.1465 -1.4606
11529TIP3    H256003   4.174   0.346  17.163 -0.1103 -3.0679  1.1751
11530TIP3   OH256004   5.182   5.299  13.426 -0.0218  0.1809  0.2009
11530TIP3    H156005   5.250   5.352  13.467  2.2349 -0.8480 -1.9939
11530TIP3    H256006   5.224   5.258  13.351 -3.0413 -0.6457 -1.2227
11531TIP3   OH256007   3.910   2.505  13.484  0.3288 -0.3288 -0.0486
11531TIP3    H156008   3.926   2.411  13.491  0.5767 -0.3040 -0.2759
11531TIP3    H256009   3.815   2.514  13.493  0.3139 -0.5933  0.0560
11532TIP3   OH256010   2.783   1.329   1.440  0.5386  0.0469  0.2225
11532TIP3    H156011   2.825   1.368   1.517  1.1857 -0.3671  0.0914
11532TIP3    H256012   2.815   1.238   1.440  3.3175  0.8690 -2.4458
11533TIP3   OH256013   1.704   1.233  15.420 -0.2228 -0.3595 -0.9856
11533TIP3    H156014   1.657   1.205  15.341 -0.5355 -0.3436 -0.8063
11533TIP3    H256015   1.788   1.186  15.416 -0.7190 -1.2833 -0.7092
11534TIP3   OH256016   0.702   5.155   4.591  0.5666  0.1968 -0.0805
11534TIP3    H156017   0.646   5.179   4.517  0.6119 -1.0278 -0.5327
11534TIP3    H256018   0.682   5.063   4.608  0.4522  0.4819  1.5409
11535TIP3   OH256019   3.103   1.997  16.294 -0.3376  0.3962 -0.2178
11535TIP3    H156020   3.111   2.013  16.200 -2.8141 -0.4654 -0.6505
11535TIP3    H256021   3.009   1.999  16.311 -0.1585 -2.1025  1.7341
11536TIP3   OH256022   1.871   0.483   0.249 -0.1982  0.1259  0.6644
11536TIP3    H156023   1.852   0.466   0.157  1.1813 -0.8095  0.5353
11536TIP3    H256024   1.879   0.397   0.289 -0.5884  0.5222  1.6349
11537TIP3   OH256025   6.370   1.994   4.657 -0.8096  0.1980 -0.2558
11537TIP3    H156026   6.296   1.975   4.600 -1.2637 -1.8176  0.9256
11537TIP3    H256027   6.438   1.931   4.630 -0.9383 -0.6056  1.1853
11538TIP3   OH256028   0.617   5.756   3.431  0.3152 -0.3091  0.5622
11538TIP3    H156029   0.539   5.711   3.399  0.6311 -0.2266 -0.3408
11538TIP3    H256030   0.687   5.691   3.423  0.9084  0.5020 -1.3643
11539TIP3   OH256031   4.331   3.011   1.582  0.1493 -0.0428 -0.1357
11539TIP3    H156032   4.411   2.974   1.545  1.4583  0.8963  1.6374
11539TIP3    H256033   4.332   3.103   1.556 -0.6453 -0.1304 -0.5239
11540TIP3   OH256034   6.171   6.246  14.366  0.4032 -0.1937 -0.3059
11540TIP3    H156035   6.255   6.213  14.337  0.6926 -0.2809  0.6050
11540TIP3    H256036   6.183   6.265  14.459 -0.1628  1.1514 -0.4802
11541TIP3   OH256037   2.016   1.268  15.113 -0.6175  0.0231 -0.0179
11541TIP3    H156038   2.006   1.214  15.035 -1.4604  0.7417 -0.4375
11541TIP3    H256039   2.065   1.214  15.175 -0.1030 -0.6249 -0.9763
11542TIP3   OH256040   4.731   4.657   1.347  0.2825 -0.2601  0.2130
11542TIP3    H156041   4.700   4.576   1.306  1.2150 -1.1042  1.1252
11542TIP3    H256042   4.706   4.649   1.439  1.6144 -0.1679  0.6023
11543TIP3   OH256043   0.806   0.909   1.254  0.4611 -0.6899 -0.5795
11543TIP3    H156044   0.752   0.875   1.325 -0.1720 -0.5191 -0.9735
11543TIP3    H256045   0.895   0.906   1.288  0.0701  0.3252  0.5889
11544TIP3   OH256046   2.217   3.372  15.281 -0.7094 -0.1381 -0.1139
11544TIP3    H156047   2.153   3.413  15.223 -1.5022 -1.3782 -0.1513
11544TIP3    H256048   2.291   3.433  15.282 -1.2191  0.5372 -1.3602
11545TIP3   OH256049   3.885   2.397   2.722 -0.0341 -0.1023  0.2818
11545TIP3    H156050   3.806   2.437   2.757  0.2381  0.0052  0.7920
11545TIP3    H256051   3.861   2.305   2.706  0.2208 -0.5150  2.0941
11546TIP3   OH256052   5.857   4.264  15.299  0.0045  0.6926 -0.5305
11546TIP3    H156053   5.832   4.303  15.383 -1.2579  0.4896 -0.7946
11546TIP3    H256054   5.821   4.324  15.233 -0.2554  0.1146 -0.9267
11547TIP3   OH256055   3.523   4.488   0.397 -1.2053  0.2422  0.3043
11547TIP3    H156056   3.606   4.441   0.401 -1.6967 -0.6899  0.0741
11547TIP3    H256057   3.479   4.464   0.479 -1.0829  1.0557  0.6130
11548TIP3   OH256058   1.235   2.222  15.690 -0.7029  0.1754  0.0831
11548TIP3    H156059   1.325   2.189  15.682 -1.7304 -2.8552 -0.1060
11548TIP3    H256060   1.197   2.208  15.604 -1.8694 -0.3468  0.6641
11549TIP3   OH256061   0.709   0.789   5.925 -0.1316 -0.4329  0.1182
11549TIP3    H156062   0.718   0.718   5.862  2.5726 -0.6741  0.6498
11549TIP3    H256063   0.642   0.759   5.987  1.5080 -2.9557  0.8065
11550TIP3   OH256064   0.998   4.781  12.002  0.6093 -0.2793  0.1624
11550TIP3    H156065   1.061   4.745  11.940  0.8133  0.2143  0.0816
11550TIP3    H256066   0.947   4.705  12.030 -1.0990 -0.2326 -2.4329
11551TIP3   OH256067   5.141   1.557   6.069 -0.0327 -0.1898 -0.5789
11551TIP3    H156068   5.144   1.574   5.975  0.7779  0.8756 -0.3845
11551TIP3    H256069   5.233   1.553   6.096 -0.2319 -1.9944 -0.0659
11552TIP3   OH256070   2.029   2.118   6.177  0.0046  0.4803 -0.2736
11552TIP3    H156071   2.021   2.110   6.082 -1.1943  0.4814 -0.1842
11552TIP3    H256072   2.079   2.040   6.202 -2.0654 -1.0652 -0.6368
11553TIP3   OH256073   6.663   1.409   3.155 -0.0811  0.3261 -0.0370
11553TIP3    H156074   6.621   1.486   3.116 -1.7487 -0.0209  0.9490
11553TIP3    H256075   6.678   1.434   3.246  0.0259 -0.2498  0.1044
11554TIP3   OH256076   3.226   4.512   2.551 -0.0664 -0.6600 -0.8671
11554TIP3    H156077   3.179   4.591   2.577  1.5635  0.4029 -0.9641
11554TIP3    H256078   3.254   4.530   2.461  2.6253 -0.1128 -0.0307
11555TIP3   OH256079   0.914   5.133  16.077 -0.0873 -0.0391  0.2840
11555TIP3    H156080   0.852   5.165  16.142  0.5173  1.5123  0.1489
11555TIP3    H256081   0.994   5.182  16.094  0.4492 -0.4773 -0.8604
11556TIP3   OH256082   6.130   3.051  15.378  0.4102 -0.1795 -0.4654
11556TIP3    H156083   6.077   3.046  15.298  1.2658 -1.4017 -0.9784
11556TIP3    H256084   6.178   2.969  15.381  0.2016 -0.2918  1.4743
11557TIP3   OH256085   0.442   1.354  17.075  0.0607 -0.3189  0.6040
11557TIP3    H156086   0.514   1.405  17.040 -0.5858  0.5907  0.5811
11557TIP3    H256087   0.429   1.388  17.164  0.0930 -0.9407  0.8536
11558TIP3   OH256088   5.941   5.115   2.461 -0.1252  0.4205  0.3702
11558TIP3    H156089   6.015   5.055   2.470 -0.5904 -0.0070  1.4872
11558TIP3    H256090   5.904   5.121   2.549 -1.2531  0.8437 -0.1167
11559TIP3   OH256091   6.044   3.509  17.087  0.2502 -0.6065  0.9462
11559TIP3    H156092   6.092   3.427  17.082 -0.1207 -0.9376  2.2387
11559TIP3    H256093   6.109   3.577  17.067  0.9210 -1.1329  1.2918
11560TIP3   OH256094   4.117   2.812  14.152 -0.0962  0.4817 -0.2126
11560TIP3    H156095   4.191   2.841  14.204 -0.2829  1.2511 -0.3715
11560TIP3    H256096   4.146   2.820  14.061 -0.3240  0.6620 -0.2714
11561TIP3   OH256097   3.841   0.307  16.973 -0.4659  0.0114 -0.1205
11561TIP3    H156098   3.750   0.300  16.999  0.0523 -0.3932  1.7428
11561TIP3    H256099   3.886   0.339  17.052  0.8924  0.9497 -1.2213
11562TIP3   OH256100   2.126   4.562   1.202  0.6216  0.0649  0.0492
11562TIP3    H156101   2.093   4.541   1.289  1.6539 -0.3490  0.3536
11562TIP3    H256102   2.047   4.573   1.149 -0.0086 -0.4409  0.8509
11563TIP3   OH256103   6.685   5.619  14.305  0.5108  0.3420 -0.0997
11563TIP3    H156104   6.726   5.697  14.266 -0.3159  1.3233  0.9359
11563TIP3    H256105   6.755   5.579  14.357  1.0440  0.1692 -0.9256
11564TIP3   OH256106   2.009   6.223   3.665  0.0130 -0.1930 -0.3567
11564TIP3    H156107   2.047   6.276   3.595 -3.6172  1.5339 -1.2516
11564TIP3    H256108   1.933   6.181   3.624  0.6280 -3.2173  1.3409
11565TIP3   OH256109   4.685   0.599   3.699  0.1170 -0.3143 -0.0426
11565TIP3    H156110   4.668   0.601   3.605 -3.3251 -0.8431  0.4350
11565TIP3    H256111   4.724   0.513   3.715 -1.9637 -1.4500 -0.7149
11566TIP3   OH256112   2.652   4.312  11.456  0.1728  0.1698  0.0435
11566TIP3    H156113   2.603   4.382  11.411 -0.9866 -0.6751 -0.0426
11566TIP3    H256114   2.589   4.241  11.466  1.2692 -0.7919  0.3394
11567TIP3   OH256115   5.841   4.703  11.130  0.0233  0.1851  0.0248
11567TIP3    H156116   5.814   4.707  11.038 -1.0918 -1.1009  0.2709
11567TIP3    H256117   5.760   4.691  11.179  0.7766 -1.1903  1.0069
11568TIP3   OH256118   6.028   4.756   2.024  0.3646  0.4815 -0.2697
11568TIP3    H156119   5.947   4.774   2.071 -0.6534 -2.8301 -0.5345
11568TIP3    H256120   6.094   4.747   2.093 -0.4584 -1.1922  0.3383
11569TIP3   OH256121   5.112   4.342   2.940 -0.1902  0.0884  0.2427
11569TIP3    H156122   5.089   4.315   2.851  1.5756  0.5479 -0.3939
11569TIP3    H256123   5.102   4.437   2.940 -2.5301 -0.0800  1.3077
11570TIP3   OH256124   2.987   2.275  14.219 -0.4996  0.1933  0.0400
11570TIP3    H156125   2.969   2.268  14.313  2.0687  0.2202  0.6144
11570TIP3    H256126   3.018   2.189  14.193 -0.5999  0.3536 -0.6482
11571TIP3   OH256127   5.659   6.667   2.472 -0.3529  0.0121  0.1329
11571TIP3    H156128   5.664   6.620   2.389 -4.1786 -0.9026  0.2526
11571TIP3    H256129   5.684   6.602   2.538  1.8721  0.5040 -0.1435
11572TIP3   OH256130   6.063   0.857  11.520  0.2631  0.0699 -0.1010
11572TIP3    H156131   6.088   0.949  11.514  0.9456 -0.0068  1.2697
11572TIP3    H256132   5.991   0.848  11.457  2.9599  0.5217 -3.5732
11573TIP3   OH256133   4.534   3.776   3.333  0.3383  0.7602 -0.4060
11573TIP3    H156134   4.607   3.837   3.346  1.4107 -0.5713  0.1493
11573TIP3    H256135   4.535   3.757   3.239  1.1173  0.2923 -0.3133
11574TIP3   OH256136   2.006   3.453   5.895 -0.2586 -0.0326 -0.6864
11574TIP3    H156137   2.016   3.528   5.954 -0.4466 -0.8151  0.3492
11574TIP3    H256138   1.968   3.384   5.949 -0.8466 -0.6319 -1.8344
11575TIP3   OH256139   1.823   0.060  12.097 -0.4331  0.1950 -0.0241
11575TIP3    H156140   1.869  -0.023  12.103 -0.4409  0.2705  1.2495
11575TIP3    H256141   1.842   0.104  12.180 -2.0482  0.6092  0.1548
11576TIP3   OH256142   0.742   5.931  16.132 -0.2297 -0.6821 -0.0776
11576TIP3    H156143   0.656   5.945  16.172 -2.1303 -0.2101 -3.8588
11576TIP3    H256144   0.744   5.837  16.113 -0.1574 -0.5948 -0.5031
11577TIP3   OH256145   1.479   4.789  16.806  0.5145  0.1197 -1.2071
11577TIP3    H156146   1.571   4.790  16.831  0.4519 -0.4675 -0.9466
11577TIP3    H256147   1.475   4.732  16.730  0.1736 -0.9374 -0.4209
11578TIP3   OH256148   3.685   4.974  17.206  0.1332  0.4121  0.0704
11578TIP3    H156149   3.627   4.904  17.238 -0.2432  0.0774 -1.2776
11578TIP3    H256150   3.772   4.935  17.209 -0.2338 -0.7969 -2.2442
11579TIP3   OH256151   2.958   2.898  14.173 -0.3969  0.4595  0.0953
11579TIP3    H156152   2.957   2.882  14.079  0.5722 -1.3035  0.3492
11579TIP3    H256153   2.874   2.941  14.191 -0.5140  1.0007 -1.5743
11580TIP3   OH256154   1.669   5.914  15.540  0.3463 -0.0737  0.2575
11580TIP3    H156155   1.632   5.846  15.483  1.3249 -0.4149  0.0057
11580TIP3    H256156   1.740   5.951  15.488  2.2120 -1.3664  1.7770
11581TIP3   OH256157   1.171   4.158  14.294 -0.2271 -0.6606 -0.4122
11581TIP3    H156158   1.137   4.104  14.222  0.7507 -2.8307  0.6294
11581TIP3    H256159   1.150   4.108  14.373  1.1616  0.2525  0.5907
11582TIP3   OH256160   1.281   2.987  14.861  0.2418  0.3440  0.0435
11582TIP3    H156161   1.333   3.014  14.937 -0.4407  1.9741 -0.0379
11582TIP3    H256162   1.324   3.029  14.786  2.8884 -3.7602 -1.1011
11583TIP3   OH256163   2.548   0.068  12.840 -0.0123 -0.2071 -0.9593
11583TIP3    H156164   2.482   0.062  12.771 -0.3464 -0.6392 -0.6101
11583TIP3    H256165   2.582   0.157  12.833  0.9156 -0.6391 -2.5373
11584TIP3   OH256166   3.327   4.065  16.586 -0.3101 -0.4927  0.0333
11584TIP3    H156167   3.396   4.109  16.637 -0.2641 -0.3393 -0.1605
11584TIP3    H256168   3.281   4.011  16.650  0.6324 -1.3906 -0.0304
11585TIP3   OH256169   0.859   0.360  12.784  0.1300 -0.0894 -0.4361
11585TIP3    H156170   0.862   0.455  12.795 -0.7612  0.0726 -1.4680
11585TIP3    H256171   0.887   0.345  12.694 -0.4641 -0.7329 -0.5254
11586TIP3   OH256172   2.552   4.960   1.314  0.3527  0.6381 -0.1112
11586TIP3    H156173   2.488   4.975   1.384  0.3921  2.0040 -0.3371
11586TIP3    H256174   2.520   5.014   1.242  0.0276 -1.1434 -1.3490
11587TIP3   OH256175   4.185   1.340   1.218  0.2435  0.0509 -0.5277
11587TIP3    H156176   4.260   1.382   1.261 -0.4669  0.4681  0.3333
11587TIP3    H256177   4.138   1.411   1.175 -0.4730  0.0348  0.1959
11588TIP3   OH256178   1.644   3.319   1.699  0.2869 -0.3898 -0.6260
11588TIP3    H156179   1.571   3.332   1.639 -0.9606 -1.7560  0.5354
11588TIP3    H256180   1.658   3.405   1.738 -2.5926 -0.5888  1.1577
11589TIP3   OH256181   1.218   6.735   5.536 -0.1811 -0.2389 -0.5862
11589TIP3    H156182   1.129   6.727   5.501  0.1091 -1.8023 -1.0420
11589TIP3    H256183   1.211   6.703   5.626 -0.2360  0.4634 -0.3338
11590TIP3   OH256184   1.248   0.964   5.324  0.2502 -0.6386  0.9383
11590TIP3    H156185   1.312   1.029   5.352  0.5510 -0.4364 -0.1749
11590TIP3    H256186   1.301   0.897   5.280 -0.2934 -0.4504 -0.0209
11591TIP3   OH256187   0.372   1.736  15.190  0.0604 -0.4295 -0.1432
11591TIP3    H156188   0.331   1.745  15.104 -0.5634 -0.2410  0.1710
11591TIP3    H256189   0.418   1.652  15.186 -0.2584 -0.5886 -0.5421
11592TIP3   OH256190   5.934   0.038  14.594  0.1267 -0.2336 -0.1873
11592TIP3    H156191   5.912  -0.033  14.534 -1.1563 -0.1996  0.2155
11592TIP3    H256192   5.947  -0.006  14.678 -0.2263 -0.0437 -0.0330
11593TIP3   OH256193   4.121   6.552  14.996  0.3950 -0.3144 -0.3644
11593TIP3    H156194   4.065   6.558  15.073  0.5583  2.7822 -0.3646
11593TIP3    H256195   4.060   6.544  14.923  0.1188 -0.4202 -0.1251
11594TIP3   OH256196   2.026   3.464  13.402 -0.6600 -0.1653  0.8291
11594TIP3    H156197   1.976   3.449  13.321  2.0403 -0.4632 -0.8989
11594TIP3    H256198   2.024   3.559  13.414 -0.7671 -0.0811  0.1828
11595TIP3   OH256199   2.757   0.967  16.131  0.5245 -0.4987 -0.0793
11595TIP3    H156200   2.766   0.980  16.037  1.5236  0.1300  0.0830
11595TIP3    H256201   2.697   1.036  16.160 -0.9588 -1.5959 -0.4463
11596TIP3   OH256202   4.990   1.897   6.297 -0.0667  0.1955  0.1531
11596TIP3    H156203   5.042   1.975   6.280  0.7660 -0.4884 -0.5772
11596TIP3    H256204   4.899   1.927   6.295  0.2385  1.1253 -0.1929
11597TIP3   OH256205   0.443   2.390  16.289  0.0208 -0.2977 -0.1543
11597TIP3    H156206   0.454   2.449  16.215 -0.9207 -0.5320 -0.4956
11597TIP3    H256207   0.376   2.431  16.344  0.6008 -0.1999  0.4951
11598TIP3   OH256208   4.250   2.846  14.992 -0.1860 -0.1503 -0.3860
11598TIP3    H156209   4.331   2.807  14.960  0.3093 -0.1974  0.8782
11598TIP3    H256210   4.253   2.937  14.961  0.0683 -0.2962 -0.8036
11599TIP3   OH256211   6.102   4.111  14.911  0.6822 -0.5953  0.3557
11599TIP3    H156212   6.124   4.136  14.822  0.1243 -1.9039 -0.1719
11599TIP3    H256213   6.038   4.040  14.902 -0.9264  0.5819  1.8036
11600TIP3   OH256214   2.416   2.307   4.681  0.1433 -0.6831  0.2079
11600TIP3    H156215   2.347   2.330   4.743 -0.0169 -0.7553  0.0556
11600TIP3    H256216   2.477   2.253   4.732  0.3972 -0.1299  0.5018
11601TIP3   OH256217   2.982   1.048   4.591 -0.1017  0.2504 -0.2963
11601TIP3    H156218   3.061   1.098   4.573 -0.1715  1.0491  1.3642
11601TIP3    H256219   2.926   1.109   4.640 -1.1862 -0.7231 -0.2633
11602TIP3   OH256220   1.692   3.915   1.322 -0.1823 -0.5295  0.0643
11602TIP3    H156221   1.638   3.964   1.384 -0.0035 -0.4016  0.1220
11602TIP3    H256222   1.745   3.982   1.279  1.0245 -0.7829  1.0844
11603TIP3   OH256223   1.084   0.223  10.794  0.5600  0.2599 -0.1621
11603TIP3    H156224   1.038   0.290  10.742  1.4636  0.2389 -1.0265
11603TIP3    H256225   1.162   0.204  10.743 -0.7835 -3.2110 -1.1726
11604TIP3   OH256226   6.725   5.322  14.281 -0.2232 -0.5986  0.1450
11604TIP3    H156227   6.809   5.313  14.326  1.5778  1.0449 -2.5936
11604TIP3    H256228   6.714   5.416  14.270 -1.3315 -0.8824 -1.4635
11605TIP3   OH256229   3.693   4.836   1.028  0.1401  0.1892  0.3422
11605TIP3    H156230   3.620   4.887   1.062 -0.5285 -1.3023  1.2511
11605TIP3    H256231   3.767   4.897   1.024 -0.2379  0.8712  2.7526
11606TIP3   OH256232   5.524   6.201   2.053 -0.2124 -0.3139  0.1975
11606TIP3    H156233   5.518   6.111   2.083  0.6113  0.2656  2.2234
11606TIP3    H256234   5.601   6.202   1.996  0.4927 -0.6529  1.1248
11607TIP3   OH256235   2.804   2.170   4.853  0.2905  0.3689  0.6222
11607TIP3    H156236   2.767   2.246   4.808  0.7944  0.1125 -0.2496
11607TIP3    H256237   2.770   2.095   4.804 -0.4123 -0.0018  1.6301
11608TIP3   OH256238   1.150   0.402   4.589  0.3187  0.0990  0.4217
11608TIP3    H156239   1.114   0.487   4.615 -2.5376  0.0824 -2.6990
11608TIP3    H256240   1.103   0.338   4.643 -1.0786  0.3638 -0.4091
11609TIP3   OH256241   3.032   2.349  12.799 -0.9590 -1.0047 -0.0659
11609TIP3    H156242   3.126   2.342  12.818 -1.1640 -1.8401  0.7043
11609TIP3    H256243   3.028   2.370  12.706  0.0347  0.8857  0.2540
11610TIP3   OH256244   5.488   2.927  12.889  0.2599 -0.3503 -0.3085
11610TIP3    H156245   5.459   2.954  12.976 -1.8938 -1.9298 -0.4219
11610TIP3    H256246   5.501   2.832  12.897 -0.6146 -0.6359 -1.8085
11611TIP3   OH256247   4.464   5.655  11.904 -0.1124  0.6909  0.6325
11611TIP3    H156248   4.370   5.639  11.911  0.0148 -0.4546  0.1111
11611TIP3    H256249   4.502   5.567  11.902  1.0627  1.1439  1.8488
11612TIP3   OH256250   4.213   0.983  13.440 -0.5951  0.0170 -0.2395
11612TIP3    H156251   4.209   0.954  13.349  2.7087 -0.8998 -0.2173
11612TIP3    H256252   4.127   0.960  13.476 -1.2719 -1.4846 -2.5822
11613TIP3   OH256253   0.934   2.665  13.135  0.5029  0.0414  0.0145
11613TIP3    H156254   0.960   2.750  13.170 -0.4488 -0.2433  1.4892
11613TIP3    H256255   0.839   2.670  13.127  0.5923 -0.2105 -1.8048
11614TIP3   OH256256   1.484   4.461  17.055 -0.0818  0.2241  0.1461
11614TIP3    H156257   1.571   4.428  17.033 -0.5231  0.2118 -1.6949
11614TIP3    H256258   1.424   4.405  17.007 -1.0887  0.6421  0.8884
11615TIP3   OH256259   5.575   0.170   3.495  0.1477 -0.3875 -0.1298
11615TIP3    H156260   5.609   0.083   3.515  1.7076  0.8292  3.1639
11615TIP3    H256261   5.497   0.179   3.550 -1.4110 -0.4058 -2.1604
11616TIP3   OH256262   1.138   6.717  15.230 -0.0755  0.2063  0.1093
11616TIP3    H156263   1.094   6.729  15.314 -0.6586  1.1172 -0.3112
11616TIP3    H256264   1.197   6.791  15.223  0.9843 -0.5919  0.3097
11617TIP3   OH256265   3.371   1.152   2.902 -0.2560 -0.0025  0.2706
11617TIP3    H156266   3.358   1.215   2.832 -1.0106  0.8970  1.1867
11617TIP3    H256267   3.463   1.162   2.927  0.1576 -0.6776 -0.8758
11618TIP3   OH256268   4.074   1.530   3.285  0.1369  0.5450  0.2402
11618TIP3    H156269   4.105   1.464   3.224 -0.0505  1.4797 -0.9037
11618TIP3    H256270   4.124   1.515   3.365 -0.5324 -1.5342  0.3305
11619TIP3   OH256271   1.689   0.818  15.342 -0.7005  0.6527 -0.5342
11619TIP3    H156272   1.744   0.740  15.346 -1.5919 -0.2263 -3.2442
11619TIP3    H256273   1.734   0.877  15.281 -1.4263  1.0371 -0.7120
11620TIP3   OH256274   3.968   6.506  11.291  0.0422  0.0842  0.6155
11620TIP3    H156275   3.969   6.532  11.199 -0.6731 -1.6913  0.0575
11620TIP3    H256276   3.967   6.411  11.289  1.8396 -0.0369  2.5255
11621TIP3   OH256277   4.881   0.652  12.350 -0.0911  0.5253  0.4219
11621TIP3    H156278   4.872   0.628  12.258 -0.5113  2.4641 -0.0823
11621TIP3    H256279   4.793   0.644  12.386  0.2011 -0.9556  0.8873
11622TIP3   OH256280   1.764   1.507  12.814  0.5174  0.1964  0.1789
11622TIP3    H156281   1.804   1.452  12.882 -0.9175  0.2922  1.1512
11622TIP3    H256282   1.794   1.595  12.833  2.0603 -0.0706 -0.8121
11623TIP3   OH256283   0.543   1.460   6.778 -0.0418 -0.2859 -0.2837
11623TIP3    H156284   0.587   1.382   6.744  1.4450 -0.2735  1.4186
11623TIP3    H256285   0.548   1.524   6.707 -0.3557 -1.3939 -1.3275
11624TIP3   OH256286   6.569   2.228  15.620 -0.3459  0.3620 -0.0194
11624TIP3    H156287   6.489   2.225  15.672 -1.4429  0.5727 -1.6069
11624TIP3    H256288   6.572   2.143  15.576  0.7645  0.0375  0.6422
11625TIP3   OH256289   4.661   5.515   2.828  0.1293  0.0104  0.0455
11625TIP3    H156290   4.639   5.582   2.893  1.7589 -0.6493  1.3385
11625TIP3    H256291   4.739   5.548   2.784  0.4161 -0.6279  0.0632
11626TIP3   OH256292   4.801   3.333  15.796  0.3208 -0.2451 -0.4183
11626TIP3    H156293   4.830   3.424  15.797  0.5470 -0.3125 -0.6875
11626TIP3    H256294   4.866   3.286  15.848  0.1084 -0.2246 -0.1343
11627TIP3   OH256295   6.531   2.859  13.810  0.2316 -0.2408 -0.1611
11627TIP3    H156296   6.519   2.899  13.896 -2.9286 -0.8619 -0.2142
11627TIP3    H256297   6.592   2.787  13.825 -1.2229 -1.1234  1.8538
11628TIP3   OH256298   6.180   2.210   3.584 -0.6380  0.0042 -0.4349
11628TIP3    H156299   6.205   2.177   3.670 -0.3306 -1.1872 -0.9645
11628TIP3    H256300   6.261   2.242   3.546 -0.6300 -0.2122 -0.5988
11629TIP3   OH256301   4.711   5.601   4.636  0.0233  0.2030 -0.3305
11629TIP3    H156302   4.644   5.649   4.685 -0.7925 -0.4643 -0.7545
11629TIP3    H256303   4.720   5.650   4.554 -3.1325 -1.9507 -2.1872
11630TIP3   OH256304   3.997   3.841  12.090 -0.0133 -0.0063 -0.3125
11630TIP3    H156305   4.083   3.842  12.132 -0.2631  0.6952  0.2044
11630TIP3    H256306   4.015   3.823  11.998  0.4052 -3.8935  0.3577
11631TIP3   OH256307   5.682   0.058  15.898 -0.1852  0.1086 -0.4119
11631TIP3    H156308   5.616   0.102  15.952  1.9470  1.1012  1.5708
11631TIP3    H256309   5.662  -0.035  15.906 -2.2082  0.4293 -1.1348
11632TIP3   OH256310   2.176   4.836  14.800 -0.2872  0.4235  0.0960
11632TIP3    H156311   2.239   4.781  14.752 -0.7766 -0.5172  0.5186
11632TIP3    H256312   2.126   4.880  14.731 -0.5219 -0.3896 -0.2618
11633TIP3   OH256313   4.257   0.227  11.190 -0.5362 -0.8663 -0.6256
11633TIP3    H156314   4.193   0.269  11.247 -1.6075 -3.1057 -0.0723
11633TIP3    H256315   4.228   0.249  11.101  0.1810  1.2546 -0.3951
11634TIP3   OH256316   0.283   4.397   5.824 -0.0571  0.1175  0.2738
11634TIP3    H156317   0.295   4.306   5.795  0.9098  0.2391  0.2773
11634TIP3    H256318   0.191   4.400   5.852 -0.3882 -0.5834 -0.6756
11635TIP3   OH256319   0.515   3.781  14.284  0.0648  0.2726 -0.1503
11635TIP3    H156320   0.591   3.724  14.293 -0.1373  0.1207  0.6246
11635TIP3    H256321   0.518   3.809  14.192  1.6366  1.0733  0.1004
11636TIP3   OH256322   4.442   4.390   4.964  0.8577  0.3604 -0.4087
11636TIP3    H156323   4.420   4.300   4.989 -0.3595  1.1644  1.6425
11636TIP3    H256324   4.357   4.432   4.952  1.3851  1.5996  0.1015
11637TIP3   OH256325   1.220   0.458   5.048  0.3011  0.1191  0.1123
11637TIP3    H156326   1.247   0.541   5.088  1.7246  0.8058 -2.0449
11637TIP3    H256327   1.131   0.474   5.017  0.0902  0.3759  0.8223
11638TIP3   OH256328   0.950   5.035   4.632  0.4835  0.2124  0.6194
11638TIP3    H156329   0.905   5.119   4.644 -1.2079 -0.1658 -2.0846
11638TIP3    H256330   0.886   4.969   4.659  1.2702 -0.2751  1.3495
11639TIP3   OH256331   6.200   1.841   4.487 -0.2355  0.3080 -0.9650
11639TIP3    H156332   6.267   1.780   4.458  0.4516  1.2518 -1.4085
11639TIP3    H256333   6.133   1.786   4.528  0.2482 -0.7529 -1.5674
11640TIP3   OH256334   6.323   3.409  12.810 -0.0744  0.4234 -0.4889
11640TIP3    H156335   6.356   3.361  12.885  0.3828  0.4978 -0.6387
11640TIP3    H256336   6.401   3.430  12.758 -0.4202  0.0149 -1.1966
11641TIP3   OH256337   4.099   4.798   3.381 -0.1446  0.0655  0.0192
11641TIP3    H156338   4.040   4.769   3.451  1.3928  0.2391  1.4389
11641TIP3    H256339   4.043   4.801   3.303 -1.2607 -3.0508  0.5371
11642TIP3   OH256340   3.757   1.429   2.484  0.8084 -0.0756  0.3738
11642TIP3    H156341   3.807   1.399   2.409 -0.0083 -0.0394 -0.2057
11642TIP3    H256342   3.666   1.433   2.452  0.4973  0.2579  1.2624
11643TIP3   OH256343   2.442   3.617  11.609  0.0152  0.0809 -0.2720
11643TIP3    H156344   2.402   3.539  11.571 -2.3784 -0.6689  3.2457
11643TIP3    H256345   2.411   3.689  11.554 -1.8736 -1.0439 -0.7605
11644TIP3   OH256346   6.592   1.064   4.685 -0.5507 -0.3910  0.0285
11644TIP3    H156347   6.556   0.976   4.675 -2.3148  0.2975 -0.0222
11644TIP3    H256348   6.581   1.104   4.599  0.9822 -0.3485 -0.1761
11645TIP3   OH256349   4.166   1.661  13.646  0.2774 -0.4647  0.0684
11645TIP3    H156350   4.207   1.579  13.673 -1.0671 -1.3970 -0.5947
11645TIP3    H256351   4.228   1.701  13.586  1.2689 -0.6175  0.9701
11646TIP3   OH256352   4.534   3.458   2.427  0.4158  0.2512 -0.0773
11646TIP3    H156353   4.564   3.413   2.349  0.4475  0.4744 -0.1949
11646TIP3    H256354   4.461   3.513   2.397  1.2927  1.3758 -0.2280
11647TIP3   OH256355   5.558   3.524  14.727 -0.1793 -0.8582  0.0376
11647TIP3    H156356   5.615   3.466  14.777 -0.3780 -0.7268  0.4200
11647TIP3    H256357   5.551   3.603  14.781 -0.6959 -0.8628 -0.0188
11648TIP3   OH256358   5.229   2.181  16.011 -0.3699  0.5466  0.0968
11648TIP3    H156359   5.205   2.210  15.923 -2.0122 -2.5393 -0.6330
11648TIP3    H256360   5.145   2.169  16.056  0.2258 -1.2952  0.8265
11649TIP3   OH256361   4.912   5.851  14.411  0.3985 -0.4043 -0.1021
11649TIP3    H156362   4.911   5.926  14.470  1.5599 -1.4257  1.2704
11649TIP3    H256363   5.001   5.848  14.376  0.6677 -1.6791  0.6201
11650TIP3   OH256364   6.217   3.205   4.908 -0.4038  0.7388  1.1095
11650TIP3    H156365   6.267   3.280   4.876 -1.4225  0.1992 -2.1325
11650TIP3    H256366   6.260   3.129   4.869 -1.3939 -0.0532  1.5151
11651TIP3   OH256367   4.626   6.051  15.483  0.2812  0.1578 -0.3661
11651TIP3    H156368   4.693   6.120  15.494 -0.2096  0.6164 -0.2256
11651TIP3    H256369   4.657   6.001  15.407  0.1639  1.1059 -1.0655
11652TIP3   OH256370   4.474   3.311   3.270  0.0513 -0.0190 -0.3289
11652TIP3    H156371   4.393   3.333   3.316 -0.6359 -0.8742 -1.0778
11652TIP3    H256372   4.462   3.220   3.243  2.8543 -1.5493  2.8428
11653TIP3   OH256373   0.821   4.531   0.285  0.2812  0.2484 -0.3434
11653TIP3    H156374   0.900   4.478   0.289 -0.0367 -0.1955  0.5595
11653TIP3    H256375   0.751   4.469   0.264 -0.2365  0.0894  1.5993
11654TIP3   OH256376   5.539   4.485   2.614 -0.5168  0.5059 -0.0479
11654TIP3    H156377   5.566   4.395   2.594  0.1337  0.1933  1.9628
11654TIP3    H256378   5.444   4.479   2.624 -0.5004  0.0667 -0.1260
11655TIP3   OH256379   2.907   4.718  14.621 -0.0904 -0.6417  0.0207
11655TIP3    H156380   2.903   4.667  14.540 -1.6805 -0.8077  0.1774
11655TIP3    H256381   2.989   4.768  14.614 -0.3897 -0.3548 -1.8463
11656TIP3   OH256382   4.919   2.992   1.581  0.1745  0.4754  0.3503
11656TIP3    H156383   4.875   2.984   1.665  1.3125  1.1339  1.0308
11656TIP3    H256384   4.993   2.932   1.586  1.1534  1.6641  0.4351
11657TIP3   OH256385   4.646   4.896   2.060  0.5448 -0.1509 -0.0890
11657TIP3    H156386   4.656   4.821   2.118 -0.6774 -0.4415 -0.2114
11657TIP3    H256387   4.674   4.864   1.974  0.8454 -0.2075  0.0320
11658TIP3   OH256388   2.266   4.760   0.409  0.8757 -0.2447  0.3616
11658TIP3    H156389   2.315   4.748   0.328 -0.3821 -1.7344 -0.2161
11658TIP3    H256390   2.300   4.693   0.468  1.7489  0.7985  1.0922
11659TIP3   OH256391   0.922   3.945  15.426  0.2713 -0.3998  0.1215
11659TIP3    H156392   0.877   3.890  15.362 -0.2283 -0.3827  0.4584
11659TIP3    H256393   0.939   4.027  15.379  2.2885 -1.3081 -0.8553
11660TIP3   OH256394   2.620   0.785  15.601  0.4575  0.5704 -0.4149
11660TIP3    H156395   2.573   0.809  15.681  1.2583 -0.9195  0.5746
11660TIP3    H256396   2.578   0.835  15.532 -1.0302  1.0419  0.7647
11661TIP3   OH256397   4.452   5.917  16.935  0.1829 -0.2045 -0.4442
11661TIP3    H156398   4.383   5.863  16.975  0.6675 -1.0753 -0.7507
11661TIP3    H256399   4.504   5.855  16.884  1.5702  0.3249  0.2749
11662TIP3   OH256400   5.296   5.102   3.561 -0.8094  0.0437  0.5085
11662TIP3    H156401   5.203   5.124   3.547 -0.7156  0.1329  0.0077
11662TIP3    H256402   5.306   5.015   3.522 -0.6022  0.1856  0.2404
11663TIP3   OH256403   4.958   5.818  12.312  0.0746 -0.0659 -0.1579
11663TIP3    H156404   4.915   5.810  12.226 -1.2861  1.1026  0.3703
11663TIP3    H256405   4.893   5.786  12.374  1.2516 -1.4118  0.4302
11664TIP3   OH256406   4.247   5.719  15.756  0.0246 -0.1812 -0.2237
11664TIP3    H156407   4.327   5.666  15.757 -0.7345 -1.3967 -1.0527
11664TIP3    H256408   4.182   5.666  15.802 -0.9992 -0.4246 -1.8621
11665TIP3   OH256409   4.214   3.636  11.542  0.3060  0.1046  0.3607
11665TIP3    H156410   4.305   3.653  11.519  0.7356 -2.1735  0.1397
11665TIP3    H256411   4.208   3.654  11.636  1.0417  0.0569  0.4157
11666TIP3   OH256412   0.386   6.220   1.609 -0.0272 -0.0464  0.4452
11666TIP3    H156413   0.456   6.237   1.547  0.2785  0.2509  0.8728
11666TIP3    H256414   0.306   6.218   1.555  0.0486  1.6659  0.2396
11667TIP3   OH256415   0.632   6.158  13.850  0.0330  0.1511  0.9442
11667TIP3    H156416   0.722   6.190  13.848 -0.0358  0.5574  2.5122
11667TIP3    H256417   0.638   6.071  13.889 -0.1284 -0.4455 -0.3029
11668TIP3   OH256418   5.284   4.044   6.618  0.6782 -0.4184 -0.3609
11668TIP3    H156419   5.239   3.962   6.598  1.7476 -0.9260 -0.7435
11668TIP3    H256420   5.373   4.030   6.588  0.7910  1.0192 -0.7222
11669TIP3   OH256421   2.128   1.589   4.038 -0.4243  0.1318  0.0998
11669TIP3    H156422   2.171   1.636   4.108  2.8362 -2.0620 -0.2311
11669TIP3    H256423   2.117   1.500   4.071  1.6695 -1.1037 -2.1916
11670TIP3   OH256424   6.549   0.171  16.366  0.4637  0.2497  0.0397
11670TIP3    H156425   6.482   0.143  16.428 -0.0246 -1.2881 -1.1374
11670TIP3    H256426   6.503   0.229  16.306  0.8922  1.5760  0.9447
11671TIP3   OH256427   5.556   2.325  17.186 -0.3001  0.0180  0.1956
11671TIP3    H156428   5.529   2.330  17.094 -1.8105  1.0074  0.6629
11671TIP3    H256429   5.649   2.349  17.184 -0.5549  1.0547 -0.9848
11672TIP3   OH256430   6.534   2.559  13.522 -0.3915 -0.1822 -0.1620
11672TIP3    H156431   6.482   2.521  13.593 -0.7243  1.6668  0.6385
11672TIP3    H256432   6.557   2.485  13.466  0.5153 -1.8344  2.2540
11673TIP3   OH256433   0.363   3.221   5.954  0.0762  0.1787  0.1369
11673TIP3    H156434   0.451   3.201   5.921  0.6878 -0.3251  1.9455
11673TIP3    H256435   0.317   3.257   5.879  1.1246 -1.6490 -1.4766
11674TIP3   OH256436   2.727   2.258  13.777  0.2339  0.6728  0.0597
11674TIP3    H156437   2.700   2.171  13.747  1.8517  1.0654 -2.9181
11674TIP3    H256438   2.751   2.246  13.869 -2.9052 -1.1887  0.7826
11675TIP3   OH256439   4.165   6.460  14.588  0.3927  1.2396 -0.2983
11675TIP3    H156440   4.135   6.444  14.677  0.9496  1.0116 -0.1493
11675TIP3    H256441   4.223   6.386  14.568 -0.2811  0.9084 -1.1096
11676TIP3   OH256442   1.349   3.587  15.324  0.5908 -0.2639 -0.4457
11676TIP3    H156443   1.372   3.678  15.346  1.4104 -0.6820  0.5096
11676TIP3    H256444   1.374   3.537  15.401 -0.6362 -1.2031 -0.6367
11677TIP3   OH256445   3.838   1.310  11.450  0.1898  0.0160 -0.9402
11677TIP3    H156446   3.884   1.320  11.533  1.2247  1.3603 -1.6242
11677TIP3    H256447   3.888   1.241  11.404 -0.4555 -0.8133 -0.4285
11678TIP3   OH256448   0.933   6.173   4.782 -0.4819  0.2376  0.3560
11678TIP3    H156449   0.960   6.124   4.704  0.9108  2.4219 -0.6452
11678TIP3    H256450   0.873   6.114   4.828  1.2540 -2.4514 -0.5966
11679TIP3   OH256451   2.656   2.102  12.898  0.0559  0.0611 -1.1875
11679TIP3    H156452   2.608   2.031  12.941 -1.3812  0.1888 -2.5045
11679TIP3    H256453   2.633   2.180  12.947 -2.3661  0.3657 -2.6527
11680TIP3   OH256454   0.745   1.140   0.157  0.1988 -0.5129  0.0299
11680TIP3    H156455   0.711   1.080   0.224  0.8394 -0.3895  0.4752
11680TIP3    H256456   0.681   1.135   0.086  1.6343 -3.9750 -1.2424
11681TIP3   OH256457   4.882   6.445   3.226  0.1066 -0.0469  0.0214
11681TIP3    H156458   4.900   6.365   3.277 -0.1225 -0.3694 -0.3986
11681TIP3    H256459   4.948   6.445   3.157 -0.2040 -0.1369 -0.2778
11682TIP3   OH256460   0.265   1.618  11.581 -0.4139 -0.0539 -0.7120
11682TIP3    H156461   0.351   1.660  11.581 -0.2524 -0.3735 -0.4289
11682TIP3    H256462   0.220   1.654  11.505 -0.7280  1.5316  0.1896
11683TIP3   OH256463   2.874   3.682  11.494  0.6947 -0.4982  0.0014
11683TIP3    H156464   2.944   3.643  11.546  1.4248 -0.6393 -1.0599
11683TIP3    H256465   2.811   3.611  11.481  0.3077 -0.3549  1.0089
11684TIP3   OH256466   6.419   4.525   4.619  0.6770 -0.3792  0.7118
11684TIP3    H156467   6.486   4.458   4.636 -0.7225 -2.0475 -0.1173
11684TIP3    H256468   6.350   4.506   4.682  0.8034  1.1481  1.3596
11685TIP3   OH256469   5.064   1.327   4.860 -0.0747  0.3042 -0.5975
11685TIP3    H156470   5.035   1.236   4.870 -0.8007  0.3771 -1.8794
11685TIP3    H256471   5.027   1.372   4.936 -1.4810 -0.0701 -1.0240
11686TIP3   OH256472   4.426   1.944  11.377  0.1790  0.3471 -0.2222
11686TIP3    H156473   4.510   1.902  11.392 -0.2967  0.2132  2.5341
11686TIP3    H256474   4.436   1.987  11.292  1.8899 -2.3063 -1.5119
11687TIP3   OH256475   3.272   6.373   0.089  0.1037  0.0087 -0.5544
11687TIP3    H156476   3.306   6.455   0.054 -0.5030 -0.2115 -1.7126
11687TIP3    H256477   3.299   6.306   0.025 -1.2773 -0.3580 -0.7911
11688TIP3   OH256478   0.527   0.291  14.572  0.4846  1.0473  0.0500
11688TIP3    H156479   0.456   0.312  14.633  1.7643 -1.0704  2.4622
11688TIP3    H256480   0.575   0.374  14.563 -0.3058  1.6650  1.1773
11689TIP3   OH256481   0.022   1.868  13.322  0.1578  0.2727  0.0238
11689TIP3    H156482  -0.069   1.881  13.349 -0.0752 -2.1301  0.5891
11689TIP3    H256483   0.062   1.820  13.394  1.3496 -0.3244 -0.9989
11690TIP3   OH256484   6.318   0.835  13.062  0.1000 -0.0032  0.1278
11690TIP3    H156485   6.242   0.777  13.062  0.3072 -0.2774 -0.5282
11690TIP3    H256486   6.318   0.874  12.975  1.7957 -1.4393 -0.5671
11691TIP3   OH256487   3.140   5.581   2.289  0.6352 -0.1695  0.1918
11691TIP3    H156488   3.144   5.566   2.195  0.7436 -2.4425  0.5063
11691TIP3    H256489   3.207   5.647   2.306 -0.3901  1.3973 -1.4695
11692TIP3   OH256490   1.298   1.840   1.301 -0.3235 -0.3445  0.6497
11692TIP3    H156491   1.294   1.772   1.369  1.0287 -0.4479  0.6645
11692TIP3    H256492   1.322   1.792   1.221 -0.8756 -0.0838  0.3227
11693TIP3   OH256493   1.943   4.498   4.558  0.0660 -0.4385 -0.2191
11693TIP3    H156494   1.847   4.505   4.554 -0.0646 -0.9403  1.3598
11693TIP3    H256495   1.966   4.532   4.644  1.2840 -0.6279 -0.4530
11694TIP3   OH256496   3.101   6.671   5.010  0.2186 -0.1639 -0.1376
11694TIP3    H156497   3.096   6.765   5.028  1.6024 -0.5291  2.7469
11694TIP3    H256498   3.075   6.663   4.918  3.4328  3.4597 -1.6687
11695TIP3   OH256499   1.058   2.237   4.908  0.0831  0.4833 -0.0665
11695TIP3    H156500   1.091   2.201   4.826 -0.0156 -0.2917  0.2173
11695TIP3    H256501   0.965   2.255   4.890 -0.3470 -1.1413  0.2950
11696TIP3   OH256502   5.465   5.386   5.713  0.1317 -0.4403  0.0116
11696TIP3    H156503   5.388   5.346   5.673 -1.1779  0.5769  1.3817
11696TIP3    H256504   5.491   5.325   5.781 -0.0663 -0.3435  0.1769
11697TIP3   OH256505   3.422   5.706  15.313 -0.6710 -0.6636  0.4865
11697TIP3    H156506   3.432   5.729  15.405  1.7471 -0.0803  0.1300
11697TIP3    H256507   3.409   5.790  15.268  0.7280 -0.6659  0.0356
11698TIP3   OH256508   5.389   0.637   6.201 -0.2079 -0.0996 -0.0688
11698TIP3    H156509   5.312   0.587   6.229 -0.3861 -0.0162 -0.4016
11698TIP3    H256510   5.378   0.723   6.241 -0.0008 -0.2630  0.3435
11699TIP3   OH256511   0.007   6.081  11.143  0.1460 -0.3442  0.4621
11699TIP3    H156512   0.009   6.013  11.209 -0.2364 -0.3691  0.4546
11699TIP3    H256513  -0.011   6.162  11.191 -0.6641 -0.4389  0.3429
11700TIP3   OH256514   0.492   4.280   6.140  0.5701 -0.3634  0.4893
11700TIP3    H156515   0.456   4.275   6.052 -0.2332  0.3630  0.7732
11700TIP3    H256516   0.467   4.197   6.181  3.3995 -2.0290 -0.8411
11701TIP3   OH256517   0.492   3.329   2.350 -0.2091  0.2106 -0.2616
11701TIP3    H156518   0.573   3.287   2.321  1.6858  2.5996  1.1516
11701TIP3    H256519   0.471   3.390   2.279 -0.1134  0.3962 -0.1314
11702TIP3   OH256520   1.292   5.449  14.712  0.4687 -1.1587  0.0196
11702TIP3    H156521   1.295   5.420  14.621  0.1980 -1.6393  0.1640
11702TIP3    H256522   1.247   5.379  14.759  0.7923 -1.0146  0.5621
11703TIP3   OH256523   3.940   2.700   3.284 -0.1179 -0.4203 -0.0224
11703TIP3    H156524   3.930   2.712   3.378 -1.8306 -0.6824 -0.1505
11703TIP3    H256525   3.920   2.786   3.247 -0.1149 -0.4902 -0.1881
11704TIP3   OH256526   3.184   5.803  16.797 -0.1401  0.4354 -0.1435
11704TIP3    H156527   3.097   5.798  16.837  0.3818 -0.9030  0.9254
11704TIP3    H256528   3.245   5.805  16.871  0.8538 -1.8064 -0.7977
11705TIP3   OH256529   2.321   4.372  15.903 -0.9659  0.4813  0.3404
11705TIP3    H156530   2.231   4.373  15.871 -0.5558 -0.7470 -0.9644
11705TIP3    H256531   2.361   4.297  15.859  0.5593  0.6944  1.2903
11706TIP3   OH256532   6.297   3.169  13.953 -0.6519 -0.4261 -0.3915
11706TIP3    H156533   6.301   3.260  13.982 -0.8783 -0.9928  1.5309
11706TIP3    H256534   6.278   3.175  13.859 -0.3116  1.4979 -0.3845
11707TIP3   OH256535   4.691   3.212  11.256  0.6214  0.1158 -0.1904
11707TIP3    H156536   4.787   3.206  11.258  0.5917 -0.1935  0.6955
11707TIP3    H256537   4.666   3.225  11.347 -0.2016 -0.0963 -0.3776
11708TIP3   OH256538   6.700   6.388  15.601  0.1376 -0.0323  0.2903
11708TIP3    H156539   6.621   6.393  15.654  0.7549 -1.3451  1.4118
11708TIP3    H256540   6.669   6.385  15.511 -0.9523  2.1330  0.5195
11709TIP3   OH256541   1.889   5.366   0.330 -0.0947  0.0138 -0.0151
11709TIP3    H156542   1.969   5.382   0.379  0.2753 -0.7419 -0.3572
11709TIP3    H256543   1.866   5.275   0.349  0.3116 -0.4512 -1.5842
11710TIP3   OH256544   5.307   5.225  15.338  0.7136 -1.0033 -0.0916
11710TIP3    H156545   5.262   5.151  15.379 -0.0122 -0.2780  0.4601
11710TIP3    H256546   5.399   5.214  15.362  0.5152 -1.3889  0.5201
11711TIP3   OH256547   3.809   4.199   4.917 -0.8994 -0.2750  0.6346
11711TIP3    H156548   3.876   4.179   4.982 -1.3833 -0.7818  0.9867
11711TIP3    H256549   3.858   4.220   4.837 -0.2658  1.2328  1.3827
11712TIP3   OH256550   6.510   4.351  17.053  0.1090 -0.0017  0.6896
11712TIP3    H156551   6.572   4.323  16.985 -1.0460  0.8694 -0.7961
11712TIP3    H256552   6.563   4.402  17.114  0.9229  0.6138 -0.4737
11713TIP3   OH256553   2.338   4.113  16.641 -0.3376  0.2050  0.2790
11713TIP3    H156554   2.431   4.134  16.630 -0.8219  2.1772 -0.6881
11713TIP3    H256555   2.306   4.100  16.552 -0.8241 -1.4665  0.6621
11714TIP3   OH256556   5.033   0.117  12.691  0.2550 -0.5330  0.3248
11714TIP3    H156557   4.968   0.142  12.757  0.0386 -3.0146  1.1521
11714TIP3    H256558   5.109   0.086  12.741  0.6903 -1.0261 -0.5946
11715TIP3   OH256559   3.335   4.952   5.323  0.0520  0.1369  0.0822
11715TIP3    H156560   3.335   4.959   5.228  0.4014  1.1175  0.1361
11715TIP3    H256561   3.422   4.921   5.345  1.0488  2.7431  0.2042
11716TIP3   OH256562   6.675   0.145   5.160  0.0644 -0.5640  0.0111
11716TIP3    H156563   6.703   0.237   5.164 -2.6014  0.2953  0.9065
11716TIP3    H256564   6.679   0.123   5.067 -0.1568  0.7785 -0.3383
11717TIP3   OH256565   3.935   2.512  17.241 -0.1139  0.2657  0.0647
11717TIP3    H156566   3.885   2.572  17.296  0.7077  0.8742  0.1586
11717TIP3    H256567   3.950   2.436  17.297 -0.3170  0.3754  0.2713
11718TIP3   OH256568   4.517   2.749  14.890 -0.0396 -0.4594 -0.2528
11718TIP3    H156569   4.567   2.744  14.809  0.4905  1.7302 -0.1240
11718TIP3    H256570   4.548   2.828  14.933 -5.1729  2.6437 -1.3345
11719TIP3   OH256571   0.593   1.363   2.483 -0.2960 -0.0982  0.0493
11719TIP3    H156572   0.591   1.303   2.409  1.1260  1.3615 -1.2353
11719TIP3    H256573   0.686   1.379   2.498 -0.6220  0.8400  1.1601
11720TIP3   OH256574   3.754   2.811  12.706 -0.3687 -0.0101 -0.1103
11720TIP3    H156575   3.767   2.868  12.782  0.6895  1.2672 -1.2166
11720TIP3    H256576   3.814   2.844  12.640 -1.8630 -0.5620 -1.8342
11721TIP3   OH256577   3.024   5.085  15.339  0.4051  0.6195  0.1927
11721TIP3    H156578   3.067   5.137  15.406  1.0817 -0.3318  0.5060
11721TIP3    H256579   3.092   5.069  15.273 -0.2655  1.6041 -0.7709
11722TIP3   OH256580   2.383   5.165   0.751  0.0505 -0.0369 -0.2316
11722TIP3    H156581   2.463   5.188   0.797  0.1124  0.3273 -0.5136
11722TIP3    H256582   2.370   5.072   0.769 -0.6252  0.3750  1.5717
11723TIP3   OH256583   1.067   5.368  15.467 -0.5159  0.0216 -0.3242
11723TIP3    H156584   0.987   5.321  15.491 -0.5467  0.4631  0.4650
11723TIP3    H256585   1.098   5.406  15.549  0.6856 -0.4107 -0.5537
11724TIP3   OH256586   5.037   1.051   0.181  0.2869  0.0603 -0.6182
11724TIP3    H156587   5.054   1.121   0.244 -2.4901 -1.3654  2.0096
11724TIP3    H256588   4.986   1.093   0.112 -1.9437  0.7024  1.2540
11725TIP3   OH256589   0.339   1.851   0.948  0.2565 -0.2388 -0.0867
11725TIP3    H156590   0.256   1.824   0.988 -0.0134  0.0834 -0.4192
11725TIP3    H256591   0.348   1.794   0.872  1.0349 -1.2144  0.7118
11726TIP3   OH256592   1.442   6.104   5.375  0.5929 -0.4371  0.0813
11726TIP3    H156593   1.416   6.047   5.447 -1.2498  1.7704  1.2874
11726TIP3    H256594   1.525   6.143   5.404  0.1901 -0.0512  0.7486
11727TIP3   OH256595   3.186   6.243  11.918 -0.0531 -0.5488  0.3251
11727TIP3    H156596   3.169   6.155  11.884  0.7431 -0.5494 -0.0954
11727TIP3    H256597   3.161   6.238  12.010 -2.5259 -0.4759 -0.2597
11728TIP3   OH256598   3.081   0.124   5.589  0.2637 -0.1855 -0.0145
11728TIP3    H156599   2.987   0.135   5.603 -0.1020  0.1417 -2.3174
11728TIP3    H256600   3.089   0.038   5.547  0.7963  0.3995 -1.1603
11729TIP3   OH256601   4.586   4.844  13.092 -0.6820 -0.6189 -0.3556
11729TIP3    H156602   4.572   4.785  13.166 -0.3437 -0.7863 -0.4218
11729TIP3    H256603   4.597   4.930  13.132  0.2547 -0.8222 -0.1482
11730TIP3   OH256604   4.605   4.095  16.310 -0.0408 -0.1288  0.1028
11730TIP3    H156605   4.536   4.059  16.366  0.2314  0.0956  0.5888
11730TIP3    H256606   4.566   4.173  16.271 -0.0826 -0.0247  0.3465
11731TIP3   OH256607   6.074   1.314   1.832  0.0808 -0.2462 -0.1693
11731TIP3    H156608   6.062   1.345   1.922  2.4279  1.4350 -0.3401
11731TIP3    H256609   6.075   1.219   1.839 -1.9445 -0.2313  1.2167
11732TIP3   OH256610   1.561   2.002  13.580  0.3484 -0.5215 -0.3242
11732TIP3    H156611   1.610   1.930  13.540  0.3221 -0.6956 -0.0464
11732TIP3    H256612   1.540   1.971  13.668 -0.9041 -0.7458 -0.6836
11733TIP3   OH256613   4.683   1.603   0.160 -0.0925 -0.5422  0.4085
11733TIP3    H156614   4.633   1.621   0.240 -1.2903  1.2536 -0.6730
11733TIP3    H256615   4.736   1.527   0.182 -0.0554  0.1363  3.0585
11734TIP3   OH256616   5.756   0.609   2.686  0.4388 -0.5840  0.4225
11734TIP3    H156617   5.717   0.535   2.641  2.2352  0.6464 -3.6860
11734TIP3    H256618   5.829   0.571   2.736 -1.1574 -1.9465  1.8127
11735TIP3   OH256619   6.142   4.999   0.075 -0.0573  0.3881  0.7906
11735TIP3    H156620   6.227   5.001   0.119  1.1052  2.2085 -1.3259
11735TIP3    H256621   6.100   4.918   0.105  2.2840 -0.4026  2.1234
11736TIP3   OH256622   0.597   5.142   3.517 -0.0408 -0.5627 -0.0728
11736TIP3    H156623   0.553   5.065   3.551 -0.9601  0.0818  0.2555
11736TIP3    H256624   0.626   5.117   3.430 -0.2905 -1.2913  0.0480
11737TIP3   OH256625   4.108   0.835  11.890  0.0878 -0.1471 -0.5303
11737TIP3    H156626   4.105   0.836  11.795  0.4285 -0.5141 -0.5476
11737TIP3    H256627   4.053   0.909  11.917  1.1209  0.8307 -1.0318
11738TIP3   OH256628   5.026   0.168   0.458 -0.2414  0.2665  0.4112
11738TIP3    H156629   5.033   0.262   0.470  4.5662  0.4230 -1.2845
11738TIP3    H256630   4.998   0.157   0.367  0.6922  0.1576  0.1247
11739TIP3   OH256631   3.961   6.033   5.342 -0.7429 -0.0719 -0.6061
11739TIP3    H156632   3.905   6.067   5.412  1.3509 -0.8706  1.5925
11739TIP3    H256633   3.934   6.082   5.264 -2.1023  2.0457  1.0704
11740TIP3   OH256634   2.479   3.027  15.448 -0.3568  0.0084  0.5535
11740TIP3    H156635   2.434   3.048  15.366 -1.0027  0.3250  0.9802
11740TIP3    H256636   2.409   2.998  15.507  0.0829 -0.0691  1.0457
11741TIP3   OH256637   4.823   2.257   4.332  0.1188  0.4511  0.0225
11741TIP3    H156638   4.913   2.249   4.302  0.0542  0.0561 -0.0802
11741TIP3    H256639   4.770   2.247   4.253 -0.1333 -2.5725  0.4536
11742TIP3   OH256640   2.285   4.425   5.190  0.4530 -0.6768  0.4706
11742TIP3    H156641   2.236   4.480   5.251 -2.4651 -0.1888 -2.0605
11742TIP3    H256642   2.284   4.475   5.108  0.2710 -3.1627 -1.1277
11743TIP3   OH256643   1.755   2.584  16.280  0.1542  0.6023 -0.7898
11743TIP3    H156644   1.699   2.523  16.233  1.3825 -1.5428  0.3716
11743TIP3    H256645   1.814   2.619  16.213 -0.2736  0.1788 -1.3974
11744TIP3   OH256646   2.319   3.782  16.381  0.0371 -0.5832  0.3033
11744TIP3    H156647   2.391   3.758  16.440 -0.9889 -0.7059  1.5491
11744TIP3    H256648   2.331   3.726  16.305  1.1216 -0.7725  0.5931
11745TIP3   OH256649   2.102   4.688   5.672 -0.2289  0.0129 -0.2974
11745TIP3    H156650   2.182   4.671   5.623 -0.1179  0.3740 -0.2403
11745TIP3    H256651   2.122   4.660   5.762 -1.1165 -2.6937 -0.8463
11746TIP3   OH256652   3.667   0.664  13.335 -1.0644  0.5032 -0.2551
11746TIP3    H156653   3.753   0.661  13.293 -0.7687 -2.0730  0.3706
11746TIP3    H256654   3.647   0.757  13.342  2.4581  1.3214  1.1039
11747TIP3   OH256655   5.772   0.536   1.569 -0.1186  0.0509 -0.5036
11747TIP3    H156656   5.699   0.576   1.522  0.0176 -0.6216 -1.3117
11747TIP3    H256657   5.834   0.607   1.583 -1.7600  1.1213  2.0017
11748TIP3   OH256658   2.562   2.312  12.499 -0.4408 -0.5252  0.1068
11748TIP3    H156659   2.517   2.275  12.423  0.2449  0.5388 -0.8526
11748TIP3    H256660   2.654   2.289  12.486 -0.2399  0.1329  0.3248
11749TIP3   OH256661   6.351   1.361  12.022  0.6726 -0.5050  0.5735
11749TIP3    H156662   6.272   1.392  11.978  0.0153 -2.8129  0.0158
11749TIP3    H256663   6.423   1.399  11.970 -0.0280  1.0086  0.6500
11750TIP3   OH256664   1.650   6.206   2.244  0.3670 -0.2498  0.1156
11750TIP3    H156665   1.608   6.172   2.323  0.3481 -0.4863  0.0034
11750TIP3    H256666   1.654   6.301   2.258  3.8246 -0.5210  2.1547
11751TIP3   OH256667   1.737   6.521   3.912  0.4122  0.6089 -0.4166
11751TIP3    H156668   1.827   6.524   3.943 -0.2752 -0.5005  1.9234
11751TIP3    H256669   1.709   6.431   3.926 -1.1294  0.9839 -0.8789
11752TIP3   OH256670   1.058   1.227   1.095  0.5670 -0.0948  0.0696
11752TIP3    H156671   0.981   1.172   1.083  1.0988 -0.5759 -1.3777
11752TIP3    H256672   1.122   1.170   1.136  0.9596 -0.4483 -0.9981
11753TIP3   OH256673   1.414   3.862  14.618 -0.1278  0.4682  0.2531
11753TIP3    H156674   1.495   3.861  14.669  0.2431  0.5948 -0.3270
11753TIP3    H256675   1.382   3.771  14.621  0.3679  0.2820 -0.0407
11754TIP3   OH256676   4.871   0.417  15.312  0.3229 -0.4272 -1.0864
11754TIP3    H156677   4.784   0.397  15.348 -0.1077  0.9986 -1.2713
11754TIP3    H256678   4.861   0.403  15.217  0.0978  0.3507 -1.1840
11755TIP3   OH256679   4.880   2.098  10.814  0.0243  0.0894  0.0923
11755TIP3    H156680   4.957   2.147  10.844  0.0055  0.2230 -0.0746
11755TIP3    H256681   4.808   2.160  10.822 -0.2470 -0.3423  1.1856
11756TIP3   OH256682   2.361   0.408   3.970 -0.1339  0.1376  0.3150
11756TIP3    H156683   2.269   0.387   3.951 -0.0924 -0.4623  0.7169
11756TIP3    H256684   2.404   0.322   3.972  0.5152  0.4449 -0.2582
11757TIP3   OH256685   3.760   5.992   1.502  0.2521 -0.4864 -0.0076
11757TIP3    H156686   3.798   5.955   1.422  1.0910  1.2644 -0.4709
11757TIP3    H256687   3.836   6.012   1.557 -0.1641  0.4336  0.2501
11758TIP3   OH256688   3.371   3.923   2.672  0.1030  0.7256 -0.4317
11758TIP3    H156689   3.410   4.011   2.676 -1.1696  1.2843  0.6721
11758TIP3    H256690   3.276   3.939   2.671 -0.1859 -0.5743 -3.0797
11759TIP3   OH256691   3.958   1.760  15.233 -0.6411  0.3153 -0.3304
11759TIP3    H156692   4.025   1.828  15.226  1.3864 -1.3050  1.6908
11759TIP3    H256693   3.927   1.766  15.323  1.7387 -3.1082  0.9309
11760TIP3   OH256694   0.501   1.672   1.232 -0.5479  0.3945 -0.1017
11760TIP3    H156695   0.579   1.715   1.267  0.0624 -0.8924  0.1682
11760TIP3    H256696   0.429   1.730   1.257  0.3807  2.1498 -1.2512
11761TIP3   OH256697   5.301   4.249  15.756  0.1737  0.0376  0.3273
11761TIP3    H156698   5.334   4.272  15.843  0.6383  2.1162 -0.3435
11761TIP3    H256699   5.207   4.238  15.768  0.4467 -1.5088  1.4030
11762TIP3   OH256700   2.568   6.175  13.520  0.0447  0.6986  0.1159
11762TIP3    H156701   2.610   6.110  13.577 -1.6403  0.6056  1.3384
11762TIP3    H256702   2.488   6.200  13.567  0.3723  3.3056 -0.5462
11763TIP3   OH256703   5.162   6.240   5.948 -0.0783  0.6221 -0.2615
11763TIP3    H156704   5.187   6.315   5.893  1.2774 -0.9027 -1.8649
11763TIP3    H256705   5.216   6.250   6.026 -0.4249  1.6782 -0.1342
11764TIP3   OH256706   1.460   5.961   6.900  0.1106  0.3659  0.3186
11764TIP3    H156707   1.544   6.007   6.903 -0.6330  1.7585  1.1252
11764TIP3    H256708   1.396   6.031   6.882 -1.1635 -0.1996  2.3887
11765TIP3   OH256709   1.586   3.651   3.649  0.3384  0.2120 -0.0276
11765TIP3    H156710   1.653   3.655   3.717  0.4334  1.1001 -0.1678
11765TIP3    H256711   1.551   3.739   3.644 -2.1714 -0.6113  1.3482
11766TIP3   OH256712   5.880   2.100  15.061 -0.1152  0.0316 -0.0008
11766TIP3    H156713   5.943   2.136  15.124  0.8342 -0.6083 -0.5549
11766TIP3    H256714   5.934   2.056  14.996 -0.9725  1.7869 -2.0256
11767TIP3   OH256715   1.335   6.136  12.258  0.0515 -0.2979  0.4848
11767TIP3    H156716   1.397   6.066  12.277 -1.0302 -1.9926 -1.7885
11767TIP3    H256717   1.257   6.114  12.309  0.0307 -0.2485  0.4750
11768TIP3   OH256718   3.550   4.134   1.443 -0.0176 -0.1039 -0.0648
11768TIP3    H156719   3.576   4.058   1.391 -1.4548 -1.2086  0.7750
11768TIP3    H256720   3.454   4.128   1.449  0.0550  0.1656  2.4183
11769TIP3   OH256721   1.017   6.462  15.237 -0.2868  0.3565 -0.1107
11769TIP3    H156722   1.033   6.474  15.331  1.2532 -0.1082 -0.2775
11769TIP3    H256723   1.050   6.543  15.197 -1.2639  0.7012 -0.2301
11770TIP3   OH256724   6.665   3.555   2.082  0.0196 -0.5606  1.1320
11770TIP3    H156725   6.692   3.574   1.992  1.0153 -2.8433  0.8577
11770TIP3    H256726   6.736   3.590   2.136 -0.3283  0.3620  0.9946
11771TIP3   OH256727   1.150   4.679   3.348  0.3205  0.1288  0.7221
11771TIP3    H156728   1.155   4.601   3.292  0.6471  0.6824 -0.0354
11771TIP3    H256729   1.071   4.666   3.400  0.1693 -0.5368  0.3423
11772TIP3   OH256730   0.529   0.135  13.908  0.2062  0.4015  0.6502
11772TIP3    H156731   0.594   0.154  13.976 -1.1961 -0.7923  2.4289
11772TIP3    H256732   0.577   0.143  13.826  1.9685  1.9851  1.7515
11773TIP3   OH256733   1.949   6.014   4.984 -0.0308 -0.2324 -0.3749
11773TIP3    H156734   1.947   6.091   5.041  0.3378 -0.0657 -0.5788
11773TIP3    H256735   1.881   5.956   5.018  1.6663 -1.1785  1.7146
11774TIP3   OH256736   2.566   6.468  11.942  0.1055  0.6629  0.4948
11774TIP3    H156737   2.481   6.437  11.973 -0.9510  1.2239 -1.5940
11774TIP3    H256738   2.545   6.542  11.884  1.9602  0.4597 -0.5462
11775TIP3   OH256739   2.286   3.985  12.575  0.0633  0.7909 -0.0458
11775TIP3    H156740   2.243   3.981  12.489  2.3313 -1.0943 -1.2088
11775TIP3    H256741   2.233   3.929  12.631 -1.5095  2.1296 -0.1155
11776TIP3   OH256742   2.762   0.458  14.663  0.1208 -0.0957 -0.4620
11776TIP3    H156743   2.758   0.472  14.758  0.4607 -1.7941 -0.1693
11776TIP3    H256744   2.705   0.526  14.627  1.3748  1.7304  0.8153
11777TIP3   OH256745   6.091   0.230   1.515 -0.0006  0.0371  0.2161
11777TIP3    H156746   6.180   0.198   1.506 -0.9896 -2.6603 -1.3244
11777TIP3    H256747   6.070   0.267   1.430 -0.6809 -0.3534  0.2039
11778TIP3   OH256748   0.404   4.479  17.020  0.1130 -0.2849 -0.4701
11778TIP3    H156749   0.443   4.397  17.051 -0.5389 -0.6294 -0.5572
11778TIP3    H256750   0.344   4.453  16.951 -2.4873 -0.1105  1.5726
11779TIP3   OH256751   1.062   0.858   4.217  0.3347  0.5140 -0.1341
11779TIP3    H156752   1.132   0.923   4.211  0.2742  0.6391  0.4864
11779TIP3    H256753   1.104   0.775   4.192 -0.0074  1.0383 -2.7884
11780TIP3   OH256754   4.122   1.286  16.584 -0.1235 -0.3430 -0.0950
11780TIP3    H156755   4.034   1.266  16.552 -0.3277  1.4435 -0.7566
11780TIP3    H256756   4.110   1.358  16.646  0.9907  0.9849 -1.3488
11781TIP3   OH256757   5.744   2.322  15.714 -0.4479 -0.1009 -0.0546
11781TIP3    H156758   5.716   2.325  15.805  0.1845  0.4150  0.1354
11781TIP3    H256759   5.813   2.256  15.712 -0.8760 -0.5493 -0.2891
11782TIP3   OH256760   1.061   4.964   6.523  0.1346 -0.0906 -0.2588
11782TIP3    H156761   1.091   4.905   6.592 -1.2916  0.0656  0.5166
11782TIP3    H256762   1.022   5.038   6.569 -0.9413 -0.0324 -1.2073
11783TIP3   OH256763   3.274   5.812   5.085  0.5816  0.1884 -0.6951
11783TIP3    H156764   3.300   5.890   5.036 -2.0140  1.4116 -0.3178
11783TIP3    H256765   3.304   5.830   5.175 -0.9506  1.3092 -0.3778
11784TIP3   OH256766   6.507   4.149  13.067 -0.2395 -0.1538 -0.1705
11784TIP3    H156767   6.594   4.119  13.096 -0.8101 -0.2629  1.5478
11784TIP3    H256768   6.492   4.230  13.116 -1.3406 -0.4321 -0.0268
11785TIP3   OH256769   3.549   6.118  12.419  0.0211 -0.0858  0.1074
11785TIP3    H156770   3.543   6.174  12.496 -3.1549 -1.3863  0.9883
11785TIP3    H256771   3.520   6.174  12.347 -2.1093 -0.1749  0.8087
11786TIP3   OH256772   1.149   4.580  16.782  0.2412 -0.2976  0.2922
11786TIP3    H156773   1.205   4.566  16.858  1.0098 -1.5705 -0.4829
11786TIP3    H256774   1.183   4.522  16.715 -1.0670  0.0259 -0.7094
11787TIP3   OH256775   2.778   2.245   2.374 -0.5947  0.1078 -0.0392
11787TIP3    H156776   2.826   2.209   2.448 -2.5882  0.1065  1.3473
11787TIP3    H256777   2.800   2.338   2.374 -0.2300  0.0249  0.2897
11788TIP3   OH256778   2.057   1.451  11.610  0.1868 -0.0334  0.8109
11788TIP3    H156779   2.007   1.397  11.549  1.7191  2.2885 -2.7946
11788TIP3    H256780   2.004   1.531  11.620  0.9230  0.4540  0.8548
11789TIP3   OH256781   6.749   1.961  15.611 -0.1717 -0.4296  0.5554
11789TIP3    H156782   6.823   1.982  15.554 -0.5936  0.8356  0.4348
11789TIP3    H256783   6.761   2.018  15.687 -1.3922  0.3180  0.2081
11790TIP3   OH256784   3.646   1.761   3.893 -0.5815  0.1266  0.8903
11790TIP3    H156785   3.659   1.703   3.967 -0.1174 -0.2958  0.4837
11790TIP3    H256786   3.553   1.751   3.871  0.1239 -3.0653 -1.2690
11791TIP3   OH256787   5.217   5.762   1.205 -0.2780  0.3912  0.2731
11791TIP3    H156788   5.148   5.827   1.197 -0.5298 -0.0413 -1.6659
11791TIP3    H256789   5.172   5.684   1.239 -0.4982  0.4771  0.1837
11792TIP3   OH256790   1.562   3.323  16.075  0.3945 -0.2248 -0.5041
11792TIP3    H156791   1.488   3.378  16.101  0.6931 -0.1447  0.1705
11792TIP3    H256792   1.630   3.384  16.047  0.7921 -0.2330  0.4192
11793TIP3   OH256793   0.189   5.312   1.992  0.4302 -0.1795  0.3255
11793TIP3    H156794   0.159   5.225   2.020  1.0264 -0.2064  0.8860
11793TIP3    H256795   0.257   5.293   1.927 -1.6631 -0.1301 -2.0347
11794TIP3   OH256796   4.066   5.454  11.762  0.7200 -0.3451 -0.3857
11794TIP3    H156797   4.126   5.382  11.744 -0.8092 -1.6994 -0.2905
11794TIP3    H256798   3.985   5.430  11.716 -0.1596  0.7852  0.5199
11795TIP3   OH256799   3.776   2.048   0.384 -0.5804  0.4150 -0.6179
11795TIP3    H156800   3.690   2.076   0.417 -1.4917 -1.4584 -1.2264
11795TIP3    H256801   3.755   1.994   0.307  1.1550 -0.1373 -0.7398
11796TIP3   OH256802   0.869   0.990   2.548  0.1189  0.1117  0.0202
11796TIP3    H156803   0.954   1.032   2.531  1.8337 -2.8064  0.7059
11796TIP3    H256804   0.817   1.009   2.470  1.3181  2.0989 -0.3641
11797TIP3   OH256805   4.304   5.082  16.969 -0.5165 -0.1773 -0.6183
11797TIP3    H156806   4.359   5.017  17.014  0.3710  0.6664 -0.4581
11797TIP3    H256807   4.221   5.081  17.018 -0.1978 -0.5624 -0.0809
11798TIP3   OH256808   2.886   3.864   3.029 -0.4088 -0.2194 -0.2558
11798TIP3    H156809   2.803   3.892   3.066 -1.0667 -0.3886 -1.5424
11798TIP3    H256810   2.950   3.880   3.098 -1.5551 -0.4352  0.8942
11799TIP3   OH256811   3.231   3.218   0.094 -0.8257  0.0787  0.0538
11799TIP3    H156812   3.302   3.269   0.134 -0.9472  0.0513  0.3039
11799TIP3    H256813   3.218   3.144   0.154 -0.9271 -0.0266 -0.0978
11800TIP3   OH256814   0.327   4.583   5.062 -0.5289  0.5069 -0.1234
11800TIP3    H156815   0.374   4.501   5.081  0.5640  0.8978 -1.0152
11800TIP3    H256816   0.294   4.612   5.147 -4.9286 -3.1119 -0.2367
11801TIP3   OH256817   2.063   2.317   5.141  0.1439  0.4636  0.3634
11801TIP3    H156818   2.067   2.332   5.047 -0.7840  1.0345  0.3945
11801TIP3    H256819   2.005   2.387   5.173  0.0609 -0.0171  1.2847
11802TIP3   OH256820   4.887   5.197  11.222 -0.1395 -0.3717 -0.1536
11802TIP3    H156821   4.939   5.199  11.303 -2.5022  2.6579  1.5614
11802TIP3    H256822   4.941   5.243  11.158  1.2302 -1.6329  0.0328
11803TIP3   OH256823   6.558   4.079   2.895 -0.2392  0.3419  0.4308
11803TIP3    H156824   6.560   4.134   2.817  0.7481 -0.3961 -0.0718
11803TIP3    H256825   6.470   4.041   2.896  0.4460 -1.4238 -1.5781
11804TIP3   OH256826   0.663   4.973   2.723  0.9513 -0.2319 -0.5550
11804TIP3    H156827   0.578   5.015   2.709  0.9550 -0.2587 -0.6576
11804TIP3    H256828   0.726   5.046   2.723  0.7324  0.0086  1.3929
11805TIP3   OH256829   4.878   3.065  11.012  0.2699  0.2260  0.4091
11805TIP3    H156830   4.822   3.107  10.946  2.2621  0.9631 -0.9026
11805TIP3    H256831   4.872   2.971  10.991 -0.8265  0.2378  0.6096
11806TIP3   OH256832   4.080   5.611  14.686  0.2045  0.7026 -0.9818
11806TIP3    H156833   4.137   5.555  14.738 -1.4690 -0.3602 -0.1715
11806TIP3    H256834   4.065   5.562  14.605 -0.8217  0.1589 -0.4986
11807TIP3   OH256835   5.982   2.182   4.319  0.5871 -0.9796  0.8839
11807TIP3    H156836   6.058   2.136   4.285  0.3961 -0.4282 -0.3307
11807TIP3    H256837   5.914   2.167   4.254  0.1400 -0.0814  1.1273
11808TIP3   OH256838   0.936   6.717   3.508 -0.1453  0.2066  0.5233
11808TIP3    H156839   0.841   6.712   3.496 -0.0184 -0.8334 -0.2451
11808TIP3    H256840   0.968   6.632   3.476  1.1052  0.8188  0.0969
11809TIP3   OH256841   6.675   3.383  12.200 -0.5121 -0.0221  0.4008
11809TIP3    H156842   6.725   3.360  12.122  1.4601 -0.9889  1.8799
11809TIP3    H256843   6.668   3.479  12.196  1.6128  0.1701  0.1918
11810TIP3   OH256844   4.873   3.442  14.961 -0.3096 -0.2079 -0.3253
11810TIP3    H156845   4.905   3.480  15.043  0.4748 -0.6936 -0.3986
11810TIP3    H256846   4.875   3.515  14.899  2.2843 -0.5677 -0.7648
11811TIP3   OH256847   3.278   0.865  13.422  0.0524 -0.0622 -0.0326
11811TIP3    H156848   3.284   0.828  13.510  1.3694  0.9615  0.3456
11811TIP3    H256849   3.196   0.915  13.422 -0.9598 -1.6655 -0.0632
11812TIP3   OH256850   6.303   1.390   4.022 -0.6721  0.7839  0.2043
11812TIP3    H156851   6.315   1.311   4.075 -0.0686  1.3775  0.9907
11812TIP3    H256852   6.209   1.396   4.007 -0.6793 -0.3546 -0.3125
11813TIP3   OH256853   2.622   4.357   4.558 -0.5327  0.5876  0.2652
11813TIP3    H156854   2.616   4.436   4.505 -1.4832  0.2503 -0.1470
11813TIP3    H256855   2.711   4.359   4.594  0.0093  1.0179 -1.0293
11814TIP3   OH256856   6.749   0.813  10.955 -0.3296 -0.4382 -0.4349
11814TIP3    H156857   6.756   0.826  10.861 -0.2495  1.5444 -0.2004
11814TIP3    H256858   6.830   0.769  10.980  0.2396  0.2284 -1.1030
11815TIP3   OH256859   0.399   2.112  13.900 -0.3420 -0.0966  0.0483
11815TIP3    H156860   0.493   2.112  13.918  0.0879  0.3459 -1.9470
11815TIP3    H256861   0.371   2.203  13.914 -0.3649 -0.1203  0.1554
11816TIP3   OH256862   0.320   0.004   1.158  0.2690 -0.1745  0.7288
11816TIP3    H156863   0.259  -0.024   1.090  1.8685  0.0688 -0.8439
11816TIP3    H256864   0.274  -0.015   1.240 -1.2345 -1.5241 -0.3777
11817TIP3   OH256865   0.974   2.361  12.648 -0.1748 -0.0025 -0.7451
11817TIP3    H156866   0.984   2.414  12.568  0.6715 -2.3366 -2.3006
11817TIP3    H256867   0.880   2.349  12.657 -0.2972  0.5484 -1.2226
11818TIP3   OH256868   3.389   3.553  16.507 -0.8834 -0.4711  0.7355
11818TIP3    H156869   3.425   3.497  16.576 -0.9291 -1.1689  0.1994
11818TIP3    H256870   3.301   3.519  16.491 -0.5593 -0.8767 -0.2720
11819TIP3   OH256871   3.336   0.888  10.679 -0.4774  0.5834  0.3152
11819TIP3    H156872   3.317   0.917  10.590  0.0798 -1.3534 -0.4894
11819TIP3    H256873   3.251   0.863  10.715 -0.4860 -0.4588 -0.3890
11820TIP3   OH256874   6.098   4.181   4.818  0.2110 -0.7165  0.0736
11820TIP3    H156875   6.074   4.127   4.894 -1.6342 -0.6129 -0.3726
11820TIP3    H256876   6.098   4.120   4.744  0.6243 -0.5604 -0.0565
11821TIP3   OH256877   3.622   4.899  10.650  0.4738  0.2799  0.5882
11821TIP3    H156878   3.664   4.819  10.617  0.7990 -0.4164  2.5254
11821TIP3    H256879   3.692   4.964  10.651  0.7627 -0.0269  0.9621
11822TIP3   OH256880   2.572   2.442  14.813  0.2973 -0.2743 -0.1244
11822TIP3    H156881   2.607   2.353  14.820  1.3665  0.1433  0.0040
11822TIP3    H256882   2.513   2.439  14.738 -1.4978 -1.6606  1.2348
11823TIP3   OH256883   4.565   1.855  13.433  0.0532 -0.3809  0.0020
11823TIP3    H156884   4.522   1.905  13.363 -2.1635 -1.6319  0.3681
11823TIP3    H256885   4.598   1.776  13.389  0.1385 -0.3843  0.0720
11824TIP3   OH256886   6.753   2.861   2.169  0.2292  0.7005 -0.4611
11824TIP3    H156887   6.687   2.931   2.173  0.4824  0.9455 -0.5113
11824TIP3    H256888   6.815   2.882   2.239  0.1152  0.3279 -0.2484
11825TIP3   OH256889   6.202   0.671   6.125  0.3761 -0.6401  0.2814
11825TIP3    H156890   6.274   0.730   6.145 -0.3305  0.1660  0.5125
11825TIP3    H256891   6.196   0.672   6.029 -0.4234  0.6850  0.3089
11826TIP3   OH256892   1.423   5.225  12.146  0.0580  0.2920  0.0177
11826TIP3    H156893   1.487   5.188  12.086 -0.4107  0.2875 -0.4926
11826TIP3    H256894   1.372   5.286  12.092 -1.3121 -0.7780  0.0439
11827TIP3   OH256895   0.395   0.626  14.841 -0.2107 -0.1311  0.2202
11827TIP3    H156896   0.352   0.579  14.913  1.1088 -0.2581  0.9490
11827TIP3    H256897   0.377   0.571  14.764  1.8296 -2.2658  1.1529
11828TIP3   OH256898   6.203   2.779   3.943  0.4665  0.0281 -0.0701
11828TIP3    H156899   6.144   2.710   3.972 -0.1598 -0.1699 -1.7059
11828TIP3    H256900   6.289   2.754   3.978  0.1392 -1.2872 -0.1685
11829TIP3   OH256901   0.839   4.456  14.626 -0.3743  0.0550 -0.2399
11829TIP3    H156902   0.825   4.543  14.588 -0.2343 -0.4070 -1.3823
11829TIP3    H256903   0.794   4.460  14.711  2.9219  2.5342  1.6293
11830TIP3   OH256904   2.234   5.301   1.040 -0.1766 -0.2835  0.1745
11830TIP3    H156905   2.139   5.293   1.052 -0.1301  0.1550  0.9399
11830TIP3    H256906   2.244   5.376   0.981 -0.3066 -0.3886  0.0164
11831TIP3   OH256907   3.550   1.884  10.810  0.3770  0.0504 -0.3403
11831TIP3    H156908   3.486   1.821  10.842 -2.0134  1.8612 -1.3283
11831TIP3    H256909   3.510   1.923  10.733  2.4762  1.6263 -0.7273
11832TIP3   OH256910   5.843   2.720   1.906 -0.3807  0.1179  0.2135
11832TIP3    H156911   5.788   2.720   1.828  1.0416 -1.5175 -0.8451
11832TIP3    H256912   5.789   2.763   1.973 -2.4048 -0.2065 -1.1207
11833TIP3   OH256913   1.546   2.622  14.773 -0.1839 -0.1189 -0.1415
11833TIP3    H156914   1.608   2.602  14.702  1.9937  0.7812  1.4077
11833TIP3    H256915   1.487   2.688  14.736 -0.5956 -1.3547 -1.8185
11834TIP3   OH256916   6.205   0.397  15.509  0.3225  0.4692 -0.4285
11834TIP3    H156917   6.207   0.490  15.533 -0.7721  0.4522 -0.2191
11834TIP3    H256918   6.203   0.351  15.592 -1.2083  0.3405 -0.5045
11835TIP3   OH256919   3.549   4.275  16.409  0.6047  0.1220  0.2689
11835TIP3    H156920   3.511   4.233  16.486 -1.8392 -0.4887 -1.1719
11835TIP3    H256921   3.620   4.329  16.444  1.2443 -2.0368  2.6317
11836TIP3   OH256922   1.357   1.206   2.429  0.0924 -0.0072 -0.2005
11836TIP3    H156923   1.444   1.213   2.390  0.3259  0.0322  0.3215
11836TIP3    H256924   1.367   1.246   2.516  0.2467 -2.4193  0.9672
11837TIP3   OH256925   2.758   0.939   1.214 -0.2275 -0.0811  0.1948
11837TIP3    H156926   2.662   0.937   1.217 -0.3707  1.6473 -1.2719
11837TIP3    H256927   2.785   0.944   1.306 -1.4731 -1.7164  0.6932
11838TIP3   OH256928   5.036   0.031   3.470 -1.0204  0.1611 -0.8222
11838TIP3    H156929   5.040   0.071   3.383 -0.6010 -0.7616 -1.2432
11838TIP3    H256930   4.991  -0.052   3.456 -0.8566 -0.0376 -0.1777
11839TIP3   OH256931   0.813   1.727  11.254  0.1909 -0.3383 -0.0345
11839TIP3    H156932   0.749   1.774  11.307 -0.0890 -1.5207  0.7271
11839TIP3    H256933   0.794   1.754  11.164 -0.7235  0.1083  0.2783
11840TIP3   OH256934   2.062   4.462  14.178 -0.0850 -0.0218  0.4549
11840TIP3    H156935   2.131   4.526  14.164  0.4819 -0.6905  0.1471
11840TIP3    H256936   1.984   4.514  14.196  0.4367  0.7429  0.5221
11841TIP3   OH256937   4.680   6.136  15.019 -0.0114  0.4447 -0.2666
11841TIP3    H156938   4.735   6.085  14.960  0.1025  1.4380 -1.0377
11841TIP3    H256939   4.626   6.071  15.064  1.8770 -0.5768  0.6401
11842TIP3   OH256940   3.731   4.438   4.313  0.3748 -0.2141  0.1753
11842TIP3    H156941   3.826   4.422   4.315  0.2608 -0.8836  0.9709
11842TIP3    H256942   3.709   4.443   4.220  1.1938 -0.0319 -0.0179
11843TIP3   OH256943   1.934   3.572  10.774 -0.0450 -0.0935 -0.4125
11843TIP3    H156944   1.849   3.615  10.758 -0.3907 -1.4004 -2.4758
11843TIP3    H256945   1.917   3.511  10.845 -0.3717  0.8670  0.3559
11844TIP3   OH256946   5.729   3.804   5.135  0.3084 -0.5058  0.1673
11844TIP3    H156947   5.758   3.811   5.044  0.2182  1.5848  0.2630
11844TIP3    H256948   5.681   3.721   5.138  1.2739 -1.1806 -1.3884
11845TIP3   OH256949   0.676   4.536  16.150 -0.3846 -0.5571 -0.1554
11845TIP3    H156950   0.757   4.538  16.201  0.4259 -1.7842 -1.3450
11845TIP3    H256951   0.690   4.468  16.084 -2.1748 -0.4096 -0.7481
11846TIP3   OH256952   5.109   0.704  13.059 -0.1280 -0.2229  0.0561
11846TIP3    H156953   5.025   0.669  13.090 -2.1337  2.8476 -1.3583
11846TIP3    H256954   5.107   0.690  12.964 -0.1440  1.8257 -0.2871
11847TIP3   OH256955   3.117   4.015   2.275  0.1146  0.0976 -0.0117
11847TIP3    H156956   3.198   3.998   2.324 -0.4536 -0.7173  0.6681
11847TIP3    H256957   3.075   4.086   2.323 -0.8004 -1.1868  1.1700
11848TIP3   OH256958   2.672   3.067  14.739 -0.0869 -0.4638 -0.1086
11848TIP3    H156959   2.764   3.041  14.742 -0.5935 -2.6033 -1.2926
11848TIP3    H256960   2.655   3.104  14.826  1.4970 -1.4818  0.6874
11849TIP3   OH256961   2.065   0.073  12.602 -0.0650 -0.2176 -0.3094
11849TIP3    H156962   2.063   0.143  12.537  0.1734  0.4414  0.3758
11849TIP3    H256963   2.017   0.000  12.562  0.0849  0.1771 -1.2127
11850TIP3   OH256964   2.927   2.487   2.963  0.3575  0.2265 -0.2647
11850TIP3    H156965   2.852   2.456   2.912  0.8216  0.7713 -1.3143
11850TIP3    H256966   2.976   2.408   2.983  0.0896 -0.0135 -0.5414
11851TIP3   OH256967   5.535   3.827  14.575 -0.7690 -0.1989  0.1112
11851TIP3    H156968   5.561   3.911  14.614 -2.0998 -0.0131  0.6531
11851TIP3    H256969   5.533   3.844  14.480 -0.0024  0.0759  0.1420
11852TIP3   OH256970   6.122   4.898   1.821  0.7311 -0.1740 -0.1625
11852TIP3    H156971   6.154   4.968   1.878  0.6970  0.2646 -0.6827
11852TIP3    H256972   6.059   4.850   1.876  0.0887  0.7370 -0.0884
11853TIP3   OH256973   2.177   6.725  14.663 -0.6133  0.2503 -0.2070
11853TIP3    H156974   2.151   6.761  14.748  1.5677  0.0638  0.5987
11853TIP3    H256975   2.257   6.771  14.641 -0.3163 -0.7994 -1.4404
11854TIP3   OH256976   5.800   4.281   1.440  0.2490 -0.2315  0.3595
11854TIP3    H156977   5.773   4.225   1.367 -0.9756 -0.5652  1.0374
11854TIP3    H256978   5.820   4.220   1.511 -3.4349  0.0982  1.9136
11855TIP3   OH256979   1.304   6.707   2.629  0.2052  0.4510 -0.6616
11855TIP3    H156980   1.234   6.720   2.565  0.4031 -1.6878 -1.3700
11855TIP3    H256981   1.363   6.644   2.588  0.7737 -0.3520  1.2915
11856TIP3   OH256982   4.804   6.731  14.620 -0.7669  0.2765 -0.2324
11856TIP3    H156983   4.715   6.738  14.656 -1.9599  1.8542 -3.1349
11856TIP3    H256984   4.844   6.660  14.669 -2.3501  1.8159  3.6434
11857TIP3   OH256985   1.310   6.172   0.149  0.0312  0.1049 -0.7722
11857TIP3    H156986   1.221   6.181   0.181 -0.1023  3.7809 -1.6178
11857TIP3    H256987   1.349   6.104   0.203 -2.3825  0.5597  1.7712
11858TIP3   OH256988   4.756   5.314  13.726  0.2685 -0.3112  0.3261
11858TIP3    H156989   4.841   5.274  13.707  0.1163 -0.0886 -0.9274
11858TIP3    H256990   4.693   5.261  13.677 -0.0600  0.7643 -0.4567
11859TIP3   OH256991   5.622   1.798   4.818 -0.7224 -0.5289 -0.0007
11859TIP3    H156992   5.712   1.826   4.832 -0.8364  2.1278 -3.2573
11859TIP3    H256993   5.612   1.720   4.872  3.7557 -1.4420 -0.1450
11860TIP3   OH256994   1.039   3.827  16.750  0.6314 -0.3340  0.8865
11860TIP3    H156995   0.966   3.888  16.746  1.0975  0.4684  3.0545
11860TIP3    H256996   0.999   3.740  16.744 -0.2679  0.1190  0.0629
11861TIP3   OH256997   1.698   5.078   5.622 -0.0636  0.0285 -0.1425
11861TIP3    H156998   1.617   5.065   5.672  0.3692  0.1877  0.6236
11861TIP3    H256999   1.766   5.087   5.689  0.4818  0.6205 -0.7625
11862TIP3   OH257000   6.692   0.904   2.917 -0.0898 -0.1961 -0.0412
11862TIP3    H157001   6.618   0.864   2.871 -0.8283  0.1969  0.7826
11862TIP3    H257002   6.750   0.936   2.847 -0.2169 -1.3556 -0.6943
11863TIP3   OH257003   0.160   1.426  14.238  0.3544  0.3149  0.6711
11863TIP3    H157004   0.125   1.337  14.233 -0.7403  0.7201  0.9908
11863TIP3    H257005   0.155   1.459  14.148  2.6499 -0.6108  0.1159
11864TIP3   OH257006   3.432   5.294  15.540 -0.6190 -0.1369  0.1895
11864TIP3    H157007   3.451   5.255  15.626  1.2622 -0.8341 -0.5100
11864TIP3    H257008   3.419   5.387  15.559  3.0275  0.3548  0.8917
11865TIP3   OH257009   2.835   1.750   0.723  0.1575 -0.3335 -0.2611
11865TIP3    H157010   2.767   1.715   0.665 -0.3781 -0.5361  0.4725
11865TIP3    H257011   2.909   1.767   0.666 -0.1888 -1.0044 -0.9216
11866TIP3   OH257012   4.963   5.779  13.246  0.4247 -0.5916 -0.5187
11866TIP3    H157013   5.010   5.732  13.315  2.0386 -0.4157 -1.4471
11866TIP3    H257014   4.966   5.870  13.273 -2.5691 -0.8871  1.2012
11867TIP3   OH257015   0.104   4.022   3.917 -0.1233  0.2667  0.1104
11867TIP3    H157016   0.187   3.998   3.957 -0.7735 -0.0333  1.3192
11867TIP3    H257017   0.042   4.024   3.989 -1.2772 -0.0002 -0.8376
11868TIP3   OH257018   2.983   1.544  15.543  1.0416  0.5148 -0.4313
11868TIP3    H157019   2.949   1.499  15.466  0.7533 -0.0950  0.0407
11868TIP3    H257020   3.076   1.524  15.544  0.8917 -0.1733 -0.1570
11869TIP3   OH257021   0.945   2.884  16.126 -0.0183 -0.2137  0.1507
11869TIP3    H157022   0.935   2.876  16.031 -1.3866  2.2705 -0.0186
11869TIP3    H257023   0.862   2.920  16.156  1.3612  1.8768  1.8277
11870TIP3   OH257024   2.696   5.796   0.691 -0.0635 -0.6068  0.3451
11870TIP3    H157025   2.672   5.777   0.600  0.7743  1.9359 -0.5042
11870TIP3    H257026   2.780   5.752   0.703  1.2773  1.3454 -1.1665
11871TIP3   OH257027   6.498   6.207  10.370 -0.1130 -0.3070 -1.0236
11871TIP3    H157028   6.433   6.186  10.304 -0.5018 -0.5255 -0.5724
11871TIP3    H257029   6.457   6.183  10.453  0.2915  0.1610 -0.6852
11872TIP3   OH257030   6.565   1.716  15.271 -0.2846  0.1528 -0.5941
11872TIP3    H157031   6.608   1.652  15.213 -0.3639  0.8772 -1.4693
11872TIP3    H257032   6.494   1.667  15.312  1.6612 -1.2704  1.3718
11873TIP3   OH257033   2.509   0.078   2.771 -0.0703 -0.1017  0.2600
11873TIP3    H157034   2.534  -0.014   2.759 -1.3927 -0.3697 -0.6497
11873TIP3    H257035   2.452   0.077   2.848  1.5461  0.3124  1.5322
11874TIP3   OH257036   1.055   2.969  12.244  0.0730  0.5457 -0.1838
11874TIP3    H157037   1.061   2.908  12.317  1.8924  1.3043  0.3690
11874TIP3    H257038   0.964   2.999  12.244  0.0782  0.7018  1.9431
11875TIP3   OH257039   5.467   3.206  11.509  0.0809  0.0321  0.3214
11875TIP3    H157040   5.425   3.139  11.455  0.0576 -0.0508  0.4449
11875TIP3    H257041   5.486   3.163  11.592 -1.4031  0.6184  0.9953
11876TIP3   OH257042   6.530   2.605   5.615 -0.1396 -0.2474  0.0992
11876TIP3    H157043   6.442   2.566   5.614  0.1170 -0.8764  0.7160
11876TIP3    H257044   6.585   2.542   5.569 -0.2498  0.8049 -1.5254
11877TIP3   OH257045   3.039   4.612  13.080 -0.4823 -0.4230 -0.3743
11877TIP3    H157046   2.987   4.563  13.143  0.2426 -1.0323 -0.2358
11877TIP3    H257047   3.066   4.548  13.014 -1.7402  0.3218 -1.6697
11878TIP3   OH257048   0.324   2.504  14.515 -0.2006  0.4532 -0.2445
11878TIP3    H157049   0.391   2.436  14.503  0.2031  0.4458  1.7608
11878TIP3    H257050   0.241   2.456  14.516 -0.0509  0.1878 -0.3730
11879TIP3   OH257051   2.359   5.277  16.125 -0.0795 -0.0318  0.2944
11879TIP3    H157052   2.360   5.350  16.063 -2.7116  0.8158  1.1275
11879TIP3    H257053   2.379   5.200  16.071 -0.7130  0.8842 -1.3271
11880TIP3   OH257054   3.518   6.006   1.031  0.3575 -0.3042  0.2630
11880TIP3    H157055   3.501   6.089   1.075 -1.6737 -0.0938 -0.8009
11880TIP3    H257056   3.512   6.027   0.937 -0.1548 -1.6206 -0.0218
11881TIP3   OH257057   3.756   6.522   2.827 -0.2805  0.0168 -0.0102
11881TIP3    H157058   3.840   6.516   2.872  0.5999  0.0303 -1.5743
11881TIP3    H257059   3.726   6.431   2.820  0.1216 -0.0976 -0.3437
11882TIP3   OH257060   1.134   5.269  16.111 -0.5973  0.2168 -0.3947
11882TIP3    H157061   1.202   5.215  16.151 -3.1120 -2.7727  0.1734
11882TIP3    H257062   1.178   5.313  16.039  2.3122 -0.1327  1.0102
11883TIP3   OH257063   2.981   3.829   5.368  0.1022 -0.2676  0.4181
11883TIP3    H157064   2.944   3.753   5.323 -1.1723  1.7768 -2.2911
11883TIP3    H257065   2.937   3.831   5.453 -0.3847 -2.0663  0.2520
11884TIP3   OH257066   5.950   6.210   5.224  0.5228 -0.0241 -0.2637
11884TIP3    H157067   6.040   6.216   5.192  1.0020  1.3195  1.1963
11884TIP3    H257068   5.948   6.128   5.274  1.3061  0.5121  0.6907
11885TIP3   OH257069   4.239   5.243   4.569 -0.1214  0.2124  0.0085
11885TIP3    H157070   4.211   5.203   4.486 -0.7141  0.1700  0.2224
11885TIP3    H257071   4.160   5.287   4.601  0.1453  0.3403  0.4838
11886TIP3   OH257072   6.262   2.928   5.471 -0.2198 -0.0829  0.2516
11886TIP3    H157073   6.336   2.932   5.533 -0.6717 -0.7851  0.8500
11886TIP3    H257074   6.189   2.895   5.523 -0.9537  0.5646 -0.3489
11887TIP3   OH257075   0.090   5.014  11.862 -0.1466  0.2887  0.1826
11887TIP3    H157076   0.130   5.101  11.868 -0.3020  0.4145 -0.5659
11887TIP3    H257077   0.011   5.020  11.916 -0.0554  0.5510  0.2903
11888TIP3   OH257078   6.760   2.578  14.360  0.5568  0.0355 -0.6158
11888TIP3    H157079   6.765   2.633  14.438  0.2844  0.0886 -0.6358
11888TIP3    H257080   6.669   2.586  14.331  0.3701 -0.8605 -0.3008
11889TIP3   OH257081   4.842   2.696   5.399  0.4470 -0.6792 -0.5978
11889TIP3    H157082   4.831   2.715   5.306 -1.7186  0.5648 -0.1851
11889TIP3    H257083   4.838   2.782   5.441 -1.1996 -1.3584  0.7865
11890TIP3   OH257084   0.583   2.196  15.867 -0.2787  0.4189  0.2697
11890TIP3    H157085   0.553   2.134  15.800 -0.8857  1.3141 -0.3156
11890TIP3    H257086   0.669   2.163  15.894 -1.7551 -2.3487  2.1142
11891TIP3   OH257087   0.011   3.408  17.253 -0.4151  0.4097  0.2557
11891TIP3    H157088  -0.055   3.342  17.232 -0.2103  0.3395 -0.1774
11891TIP3    H257089  -0.033   3.491  17.238 -0.2454  0.3610 -0.5708
11892TIP3   OH257090   2.270   1.023  11.465  0.4456  0.3285  0.1066
11892TIP3    H157091   2.294   1.116  11.461 -0.1728  0.4990  0.2636
11892TIP3    H257092   2.275   1.001  11.558  0.1665  0.3254  0.1227
11893TIP3   OH257093   3.706   0.046  12.271  0.0422 -0.1669  0.1903
11893TIP3    H157094   3.657  -0.032  12.295 -2.2637  0.5823 -1.6252
11893TIP3    H257095   3.640   0.115  12.265  1.7316  1.5360  0.0642
11894TIP3   OH257096   0.079   0.771  10.672 -0.2196 -0.1642  0.0421
11894TIP3    H157097   0.016   0.800  10.606  0.9226 -0.7469 -1.3707
11894TIP3    H257098   0.075   0.676  10.669  1.4078 -0.2505 -0.8313
11895TIP3   OH257099   6.048   0.556  16.042  0.0518  1.0536  0.3842
11895TIP3    H157100   5.989   0.608  16.096 -1.5332  0.1127 -0.3706
11895TIP3    H257101   6.033   0.588  15.953  0.6438  0.7452  0.1689
11896TIP3   OH257102   4.042   1.311  11.651 -0.6077 -0.2997 -0.4486
11896TIP3    H157103   4.096   1.353  11.585  0.1673 -1.3893 -0.5493
11896TIP3    H257104   4.042   1.372  11.725 -0.7409  0.5181 -1.1159
11897TIP3   OH257105   4.866   5.046  10.508 -0.1666  0.0943 -0.9454
11897TIP3    H157106   4.829   4.959  10.526 -1.9109  0.8380 -0.7479
11897TIP3    H257107   4.806   5.085  10.445  0.8169  1.0285 -1.3271
11898TIP3   OH257108   2.347   3.096  16.251  0.4219 -0.7473  0.0885
11898TIP3    H157109   2.397   3.177  16.253  0.5397 -0.7708 -1.0249
11898TIP3    H257110   2.310   3.093  16.163 -3.0962  0.1868  1.3708
11899TIP3   OH257111   6.155   6.433  15.803  0.4748  0.2302 -0.5981
11899TIP3    H157112   6.155   6.408  15.710 -0.5037  1.7245 -1.0480
11899TIP3    H257113   6.076   6.487  15.813 -0.1100 -0.8836  1.4073
11900TIP3   OH257114   0.782   4.834   4.753  0.0553 -0.2457  0.3229
11900TIP3    H157115   0.696   4.874   4.768 -0.3449 -0.7433 -0.5253
11900TIP3    H257116   0.826   4.839   4.838  0.2429  2.4506  0.1383
11901TIP3   OH257117   1.326   0.133   4.136  0.3947  0.2614 -0.1626
11901TIP3    H157118   1.290   0.075   4.069  0.2999  0.2687 -0.1178
11901TIP3    H257119   1.250   0.173   4.177  0.4636  0.4920 -0.2587
11902TIP3   OH257120   3.557   6.065  14.877  0.5132  0.1961  0.4253
11902TIP3    H157121   3.519   5.984  14.844  0.3992 -0.4890  2.1464
11902TIP3    H257122   3.515   6.079  14.962 -1.5120  3.5379 -0.9121
11903TIP3   OH257123   5.197   0.882  15.638 -0.3176 -0.4346  0.4245
11903TIP3    H157124   5.185   0.791  15.664  0.0956 -0.0299  2.1630
11903TIP3    H257125   5.120   0.927  15.672 -0.3087 -0.0607 -0.0398
11904TIP3   OH257126   0.954   1.347   3.870 -0.2278 -0.0922 -0.4662
11904TIP3    H157127   0.980   1.261   3.904  1.6523  0.3470 -0.6622
11904TIP3    H257128   0.943   1.401   3.948  0.5585 -0.0139 -0.4000
11905TIP3   OH257129   2.783   2.618  13.574 -0.5598  0.0556 -0.5408
11905TIP3    H157130   2.800   2.569  13.494 -0.5912  0.6641 -0.9164
11905TIP3    H257131   2.701   2.580  13.608 -1.3194  0.7443 -1.5397
11906TIP3   OH257132   5.494   5.366  13.670 -0.3743  0.0696  0.1829
11906TIP3    H157133   5.515   5.418  13.592 -1.0080 -1.9162 -1.3871
11906TIP3    H257134   5.573   5.314  13.686 -1.0614 -1.2856 -0.6472
11907TIP3   OH257135   4.540   4.007   3.998  0.0311  0.9075 -0.3537
11907TIP3    H157136   4.538   3.915   3.974 -0.9464  0.8087  0.0729
11907TIP3    H257137   4.564   4.007   4.090 -0.1452  1.0670 -0.3070
11908TIP3   OH257138   3.841   6.239   0.492 -0.0429 -0.2149 -0.3173
11908TIP3    H157139   3.850   6.157   0.541  0.4977  0.4191  0.6775
11908TIP3    H257140   3.762   6.280   0.527  1.0414  0.8505  1.0073
11909TIP3   OH257141   6.527   5.625   0.749  0.3773  0.2919 -0.2089
11909TIP3    H157142   6.524   5.612   0.844 -0.4625 -1.0604 -0.3835
11909TIP3    H257143   6.589   5.559   0.718 -0.7779 -0.5631 -0.7581
11910TIP3   OH257144   6.680   3.212   3.900  0.2994 -0.8154 -0.0800
11910TIP3    H157145   6.764   3.187   3.939  0.3180 -1.5532 -0.5742
11910TIP3    H257146   6.635   3.261   3.969  0.6912 -1.3464  0.5588
11911TIP3   OH257147   6.586   1.005  11.961  0.3700 -0.6491 -0.8799
11911TIP3    H157148   6.550   0.916  11.971  1.1316 -0.8073  0.8568
11911TIP3    H257149   6.677   0.996  11.987  0.0555  0.9332  0.9964
11912TIP3   OH257150   1.856   1.347  15.637 -0.4453  0.2122  0.8579
11912TIP3    H157151   1.876   1.296  15.559 -1.1199  1.1067  0.0662
11912TIP3    H257152   1.798   1.291  15.689 -1.0796  0.1225  0.0634
11913TIP3   OH257153   6.643   0.526   1.550 -0.2746  0.1715 -0.3214
11913TIP3    H157154   6.583   0.589   1.591  0.8888  0.6011  0.8024
11913TIP3    H257155   6.683   0.480   1.624  0.8503 -0.0315 -1.0363
11914TIP3   OH257156   0.883   0.199   1.181  0.1128  0.0029  0.4848
11914TIP3    H157157   0.978   0.196   1.183  0.1469  0.5936  0.2250
11914TIP3    H257158   0.862   0.226   1.092 -0.2285  1.5125  0.9921
11915TIP3   OH257159   1.940   4.178   4.496  0.2348  0.2223 -0.0347
11915TIP3    H157160   1.981   4.140   4.418 -0.2319 -2.1808  0.7826
11915TIP3    H257161   1.925   4.270   4.474  1.4599 -0.0406 -2.1996
11916TIP3   OH257162   2.716   3.603  13.266  0.5625  0.3779 -0.4774
11916TIP3    H157163   2.657   3.662  13.313 -0.5196 -0.2023 -1.0822
11916TIP3    H257164   2.789   3.591  13.326 -0.1628  0.7233  0.5081
11917TIP3   OH257165   0.528   6.269  10.964 -0.4171  0.3336 -0.1291
11917TIP3    H157166   0.602   6.305  10.916  0.3255 -0.6283  0.2457
11917TIP3    H257167   0.490   6.204  10.905 -1.0907  0.9598 -0.3958
11918TIP3   OH257168   5.536   6.390  16.228 -0.1162 -0.5801 -0.5322
11918TIP3    H157169   5.614   6.380  16.173 -0.1054 -1.0944 -0.4311
11918TIP3    H257170   5.474   6.326  16.193  0.9097 -3.0615  1.8455
11919TIP3   OH257171   0.603   3.693   3.310 -0.2076  0.6374  0.2597
11919TIP3    H157172   0.648   3.614   3.281 -0.1181  0.0896  1.7837
11919TIP3    H257173   0.671   3.761   3.306  0.3754  0.1288  1.1462
11920TIP3   OH257174   3.237   6.687  14.112 -0.3045 -0.5531  0.2406
11920TIP3    H157175   3.163   6.677  14.171 -0.5534 -1.5493 -0.2047
11920TIP3    H257176   3.264   6.597  14.093  1.2006 -0.2072  0.6156
11921TIP3   OH257177   1.717   5.678   5.745  0.4673  0.0365  0.2984
11921TIP3    H157178   1.630   5.678   5.786 -0.0211 -2.1113 -0.5952
11921TIP3    H257179   1.736   5.770   5.727 -1.2236  0.6209  1.3227
11922TIP3   OH257180   1.976   6.716  11.780 -0.9646 -0.1537 -0.4222
11922TIP3    H157181   1.943   6.630  11.808  0.3582 -0.8183 -0.8028
11922TIP3    H257182   2.068   6.715  11.805 -0.3372  0.1929 -2.5204
11923TIP3   OH257183   5.551   1.027   1.276 -0.9059  0.2575 -0.0896
11923TIP3    H157184   5.493   1.005   1.349  0.0921 -0.9789  0.3433
11923TIP3    H257185   5.595   1.107   1.304 -1.6199  0.6322  0.0086
11924TIP3   OH257186   5.601   4.751  13.600  0.3648  0.0667 -0.1746
11924TIP3    H157187   5.529   4.688  13.603  0.8117 -0.4247  0.6198
11924TIP3    H257188   5.666   4.710  13.544  0.9025 -0.4645  0.8155
11925TIP3   OH257189   3.942   2.546   0.494 -0.0668 -0.0313  0.5572
11925TIP3    H157190   3.977   2.539   0.582 -0.7800  0.1289  0.8640
11925TIP3    H257191   3.993   2.484   0.442  0.9095  0.4630  0.8936
11926TIP3   OH257192   1.779   2.953  16.175 -0.5993 -0.0024  0.1117
11926TIP3    H157193   1.691   2.964  16.138 -0.6148 -0.5507 -0.0237
11926TIP3    H257194   1.785   3.020  16.243 -0.7633  0.6848 -0.5349
11927TIP3   OH257195   3.035   6.566  14.282  0.3049  0.0648  0.0302
11927TIP3    H157196   3.047   6.498  14.348  0.4522 -0.3876 -0.4576
11927TIP3    H257197   3.054   6.648  14.328  0.8121 -0.2786  0.4436
11928TIP3   OH257198   2.008   4.832   2.646  0.1829  0.0393 -0.5810
11928TIP3    H157199   2.038   4.748   2.610 -0.3367 -0.7648  0.7864
11928TIP3    H257200   2.057   4.842   2.727 -0.6956  0.4305 -0.0884
11929TIP3   OH257201   3.561   3.338  11.358 -0.0504  0.4248  0.2432
11929TIP3    H157202   3.558   3.337  11.262 -1.9392 -0.7316  0.2773
11929TIP3    H257203   3.650   3.368  11.378  0.9680 -0.9597 -1.8545
11930TIP3   OH257204   3.893   0.604  14.656  0.1655 -0.4772 -0.4136
11930TIP3    H157205   3.899   0.553  14.738  1.4232 -1.2942 -0.9812
11930TIP3    H257206   3.799   0.611  14.640 -0.0826 -2.6904 -0.3134
11931TIP3   OH257207   2.077   0.663  16.251 -0.3533  0.8270  0.2504
11931TIP3    H157208   2.102   0.666  16.344  1.3570 -0.4408 -0.1313
11931TIP3    H257209   1.992   0.619  16.251 -0.4681  1.0266  1.2236
11932TIP3   OH257210   4.693   4.522  11.463  0.8585 -0.2828  0.0957
11932TIP3    H157211   4.714   4.588  11.529 -2.4009 -0.2287  1.2676
11932TIP3    H257212   4.718   4.439  11.503  1.1967 -0.0739  0.3268
11933TIP3   OH257213   5.254   4.249  12.348  0.0390  0.0827 -0.2778
11933TIP3    H157214   5.311   4.261  12.424  0.4876  2.7610 -0.9533
11933TIP3    H257215   5.176   4.299  12.368 -0.8656 -1.1415 -0.6230
11934TIP3   OH257216   3.825   0.446  15.702 -0.0918  0.5350  0.3298
11934TIP3    H157217   3.845   0.412  15.790  0.9966 -0.3846 -0.2439
11934TIP3    H257218   3.845   0.373  15.643  0.5749  1.6043 -0.8078
11935TIP3   OH257219   6.745   4.475  12.181  0.1676 -0.1956 -0.1610
11935TIP3    H157220   6.794   4.548  12.144 -0.9813 -0.3327 -2.0426
11935TIP3    H257221   6.765   4.479  12.275  0.0282  2.6243 -0.1631
11936TIP3   OH257222   5.692   6.198   5.375  0.3875 -0.2452  0.7526
11936TIP3    H157223   5.660   6.256   5.306  1.6717  0.4756  0.7219
11936TIP3    H257224   5.638   6.219   5.451  0.0560  0.1548  0.4093
11937TIP3   OH257225   4.226   2.633   1.357  0.2805 -0.4069  0.6009
11937TIP3    H157226   4.280   2.573   1.409 -0.8318 -1.2462  0.8318
11937TIP3    H257227   4.138   2.623   1.392  0.1233  1.7533  0.9547
11938TIP3   OH257228   6.404   0.315  14.916  0.6761  0.6025 -0.0242
11938TIP3    H157229   6.415   0.233  14.867 -1.2863  0.0826  0.3301
11938TIP3    H257230   6.459   0.378  14.869  2.1194 -0.8630 -0.3812
11939TIP3   OH257231   0.027   1.216  11.629  0.4358 -0.1584  0.3486
11939TIP3    H157232  -0.048   1.226  11.687 -0.2691  1.4984 -0.7662
11939TIP3    H257233   0.064   1.304  11.622  1.2728 -0.5628 -0.6903
11940TIP3   OH257234   3.063   3.751   0.989 -0.5415  0.1351  0.2023
11940TIP3    H157235   3.073   3.714   0.901  0.4714  2.0859 -0.5372
11940TIP3    H257236   3.152   3.766   1.019 -0.9129  0.8329  0.9757
11941TIP3   OH257237   2.287   6.104   4.054  0.2200 -0.2803 -0.4483
11941TIP3    H157238   2.311   6.072   4.141  0.8587  0.5381 -0.3167
11941TIP3    H257239   2.211   6.050   4.029  0.8101 -1.3843  0.0734
11942TIP3   OH257240   2.550   1.784   2.211  0.0419 -0.0619  0.0543
11942TIP3    H157241   2.516   1.855   2.156 -2.2516 -0.9672  0.2284
11942TIP3    H257242   2.589   1.829   2.286 -0.5728  1.0402 -0.2678
11943TIP3   OH257243   4.046   4.528  12.321  0.3860  0.6336  0.1565
11943TIP3    H157244   4.068   4.549  12.412  0.0444 -2.3712  1.0395
11943TIP3    H257245   4.100   4.587  12.269  2.2731  0.9295  2.2890
11944TIP3   OH257246   2.316   4.210  11.968  0.1210  0.1229  0.1982
11944TIP3    H157247   2.273   4.294  11.950  0.5973  0.2475 -0.3724
11944TIP3    H257248   2.249   4.144  11.947  0.3832  0.2920 -1.3118
11945TIP3   OH257249   4.211   3.684   0.914  0.5571  0.0776  0.3052
11945TIP3    H157250   4.201   3.642   0.828 -1.8905 -1.2668  1.1226
11945TIP3    H257251   4.245   3.614   0.971 -1.0099 -0.0901  1.0994
11946TIP3   OH257252   3.384   0.999  11.960 -0.4107  0.0636 -0.7301
11946TIP3    H157253   3.334   0.917  11.960 -1.5691  0.7063 -2.4936
11946TIP3    H257254   3.359   1.042  12.043 -2.0768 -0.0802 -1.1193
11947TIP3   OH257255   1.714   3.484   2.284 -0.0134 -0.1576 -0.4283
11947TIP3    H157256   1.623   3.466   2.308  0.1186 -0.7844 -0.3831
11947TIP3    H257257   1.736   3.415   2.221  1.0663 -1.2732  1.0933
11948TIP3   OH257258   1.876   3.319  11.827  0.0957  0.6087  0.4413
11948TIP3    H157259   1.898   3.227  11.831 -0.5280  0.4571  0.5661
11948TIP3    H257260   1.958   3.365  11.846  0.5556  0.0983 -0.3143
11949TIP3   OH257261   0.418   4.912  17.198 -0.4530  0.3793  0.3177
11949TIP3    H157262   0.380   4.877  17.118  0.2287  0.7467 -0.1779
11949TIP3    H257263   0.380   4.860  17.268  1.0268 -1.8144 -0.4201
11950TIP3   OH257264   4.406   6.749   0.119 -0.3031 -0.0227 -0.2079
11950TIP3    H157265   4.343   6.676   0.123 -0.6879  0.3431  0.8987
11950TIP3    H257266   4.403   6.787   0.207  1.1509  0.2848 -0.2724
11951TIP3   OH257267   3.843   1.927  14.233 -0.5017  0.5218  0.1730
11951TIP3    H157268   3.821   2.017  14.207 -0.7755  0.6390  0.8122
11951TIP3    H257269   3.894   1.893  14.159 -0.0106  1.3505  0.1168
11952TIP3   OH257270   2.577   2.335  14.544 -0.3343 -0.0183  0.0742
11952TIP3    H157271   2.623   2.387  14.478  1.0738 -1.8501 -0.4625
11952TIP3    H257272   2.485   2.337  14.515  0.2480 -0.7822 -2.0051
11953TIP3   OH257273   1.607   3.036  11.728  0.4772  0.0054  0.1773
11953TIP3    H157274   1.703   3.034  11.735  0.5883 -0.1907 -1.2350
11953TIP3    H257275   1.590   3.072  11.641 -0.7215 -0.9435  0.0014
11954TIP3   OH257276   5.519   3.301  15.753  0.2019 -0.2220 -0.0815
11954TIP3    H157277   5.546   3.324  15.664 -1.3031 -0.8767 -0.7377
11954TIP3    H257278   5.585   3.342  15.809  1.0864  0.3474 -1.4789
11955TIP3   OH257279   4.956   1.583   3.457 -0.0945 -0.2913  0.4458
11955TIP3    H157280   4.889   1.517   3.472 -0.9964  0.5988  0.3883
11955TIP3    H257281   5.000   1.592   3.542 -0.3391 -0.5546  0.6043
11956TIP3   OH257282   4.509   3.545  14.634 -0.3352  0.2263  0.2725
11956TIP3    H157283   4.594   3.573  14.601 -0.6764 -1.0343 -1.8004
11956TIP3    H257284   4.525   3.458  14.672 -0.3588  0.7918  1.6389
11957TIP3   OH257285   6.374   1.272  14.811 -0.1756  0.0694 -0.1202
11957TIP3    H157286   6.333   1.341  14.863  0.4798  0.1012  0.3620
11957TIP3    H257287   6.465   1.299  14.802  0.9672 -2.3067  2.9133
11958TIP3   OH257288   0.396   0.535   1.466 -0.0650  0.2701 -0.0022
11958TIP3    H157289   0.488   0.509   1.461 -0.0873  0.1896  0.0034
11958TIP3    H257290   0.360   0.514   1.380 -0.6869 -2.0262  0.7403
11959TIP3   OH257291   2.483   3.503  15.787 -0.1196 -0.4497  0.5102
11959TIP3    H157292   2.442   3.568  15.845 -1.8887 -0.5344 -0.5560
11959TIP3    H257293   2.411   3.444  15.763  1.5673 -3.3116  2.0031
11960TIP3   OH257294   5.191   5.197  14.573 -0.4101  0.5424  0.1866
11960TIP3    H157295   5.282   5.177  14.552 -0.8781 -1.4420 -0.1222
11960TIP3    H257296   5.188   5.197  14.668 -0.4159 -1.1551  0.2059
11961TIP3   OH257297   1.262   6.733   1.742  0.7049 -0.3586 -0.1946
11961TIP3    H157298   1.283   6.824   1.763 -2.0781  0.1443  0.9066
11961TIP3    H257299   1.346   6.689   1.737  2.0968  2.0774  0.1733
11962TIP3   OH257300   6.160   0.772  13.484 -0.0218 -0.0357  0.0669
11962TIP3    H157301   6.161   0.838  13.414  0.0797  0.0409  0.1401
11962TIP3    H257302   6.075   0.785  13.527 -0.0700 -0.0602 -0.0214
11963TIP3   OH257303   2.244   1.240  14.916  0.3406  0.2930 -0.0505
11963TIP3    H157304   2.239   1.294  14.995 -0.6130  4.2294 -2.5400
11963TIP3    H257305   2.334   1.252  14.884  0.5840 -0.9032  0.1351
11964TIP3   OH257306   2.043   1.800  10.399  0.0910 -0.2452  0.3159
11964TIP3    H157307   1.989   1.847  10.463 -0.6243 -0.1778 -0.3175
11964TIP3    H257308   1.984   1.784  10.325  0.9725 -0.0875 -0.4380
11965TIP3   OH257309   5.604   4.426  16.111 -0.2614  0.2788  0.2192
11965TIP3    H157310   5.636   4.369  16.181  0.4054  0.0576 -0.2563
11965TIP3    H257311   5.606   4.514  16.149  0.8555  0.2607  0.2231
11966TIP3   OH257312   3.366   0.827   4.303  0.3241  0.5880  0.2571
11966TIP3    H157313   3.433   0.817   4.370 -1.8359 -0.6122  2.3878
11966TIP3    H257314   3.317   0.905   4.330  0.1296  0.7823 -0.6177
11967TIP3   OH257315   1.815   1.736  12.963  0.2436  0.1341 -0.5195
11967TIP3    H157316   1.803   1.690  13.046  0.4182 -0.6061 -0.9031
11967TIP3    H257317   1.727   1.758  12.935 -0.1337 -2.7143 -1.8700
11968TIP3   OH257318   0.114   6.440   1.741 -0.4340  0.2295  0.0649
11968TIP3    H157319   0.083   6.506   1.804  0.0495  2.5591 -1.9865
11968TIP3    H257320   0.206   6.460   1.728 -0.1023 -1.3028 -0.1448
11969TIP3   OH257321   6.630   2.845  15.696  0.1496 -0.3664 -0.9385
11969TIP3    H157322   6.677   2.926  15.676 -0.2468  0.0572 -0.2115
11969TIP3    H257323   6.674   2.778  15.644  1.0518  0.1538 -0.8645
11970TIP3   OH257324   3.202   4.414  14.839 -0.4373  0.0310  0.3728
11970TIP3    H157325   3.229   4.323  14.835 -3.0934 -0.8403 -2.9907
11970TIP3    H257326   3.119   4.412  14.888 -0.8185  0.4711 -0.2301
11971TIP3   OH257327   5.676   1.198   4.576  0.0123  0.1063  0.1089
11971TIP3    H157328   5.638   1.285   4.563 -1.4564 -0.6014 -0.6148
11971TIP3    H257329   5.604   1.137   4.556  0.6815 -1.2713  1.6635
11972TIP3   OH257330   0.137   2.286   1.534  0.0200 -0.1311  0.0337
11972TIP3    H157331   0.147   2.316   1.444  1.5446  1.5257  0.6738
11972TIP3    H257332   0.113   2.365   1.583 -1.8704 -1.2163  0.9399
11973TIP3   OH257333   1.247   2.713  14.883 -0.3679 -0.1461  0.0154
11973TIP3    H157334   1.159   2.707  14.847 -0.9224  0.7941  1.1170
11973TIP3    H257335   1.246   2.795  14.933  1.0552 -0.2497  0.2493
11974TIP3   OH257336   6.445   3.597   1.819  0.2773  1.1715  0.0498
11974TIP3    H157337   6.506   3.670   1.811  1.7937  0.0683  1.1390
11974TIP3    H257338   6.419   3.598   1.911  2.1329 -0.9981  0.6840
11975TIP3   OH257339   2.849   0.699  11.622 -0.2951 -0.6785 -0.3237
11975TIP3    H157340   2.797   0.719  11.699 -1.7205 -0.6375 -1.2542
11975TIP3    H257341   2.818   0.613  11.593  2.4376 -2.2322  0.9076
11976TIP3   OH257342   5.033   0.543  16.482 -0.3444  0.0231 -0.3735
11976TIP3    H157343   4.977   0.492  16.425 -0.4189 -0.4217  0.0898
11976TIP3    H257344   5.104   0.573  16.426 -0.7613  0.1365 -0.8397
11977TIP3   OH257345   5.636   6.689   5.621  0.0502 -0.1573 -0.5095
11977TIP3    H157346   5.687   6.681   5.540 -0.1889 -2.1788 -0.4917
11977TIP3    H257347   5.583   6.768   5.608  0.5092 -0.0739 -2.0341
11978TIP3   OH257348   0.121   3.913   0.393 -0.0399 -0.3048 -0.2612
11978TIP3    H157349   0.114   4.009   0.400  1.2702 -0.2510  0.7148
11978TIP3    H257350   0.189   3.899   0.327 -0.4374 -0.5806 -0.6164
11979TIP3   OH257351   3.150   6.359  13.308 -0.4250  0.0453 -0.0439
11979TIP3    H157352   3.128   6.420  13.239 -0.0801  1.6856  1.2307
11979TIP3    H257353   3.069   6.311  13.325 -0.5836 -0.1767 -1.3502
11980TIP3   OH257354   5.605   5.065   3.826 -0.2927 -0.0474 -0.6610
11980TIP3    H157355   5.646   5.148   3.852  0.8648 -0.2509 -1.7282
11980TIP3    H257356   5.578   5.080   3.736  0.8979 -1.1454 -1.2337
11981TIP3   OH257357   0.790   0.828   2.109  0.0526 -0.5572 -0.3578
11981TIP3    H157358   0.865   0.777   2.077 -1.0875 -2.2611 -0.4054
11981TIP3    H257359   0.750   0.865   2.031  1.2274  0.9896 -0.2798
11982TIP3   OH257360   4.959   1.415   6.312  0.1281  0.3341 -0.0042
11982TIP3    H157361   4.999   1.343   6.360 -0.1223 -1.0711 -1.7995
11982TIP3    H257362   4.876   1.380   6.280  0.2162  1.2478 -1.3330
11983TIP3   OH257363   5.429   1.759  14.201  0.0565 -0.0508 -0.3842
11983TIP3    H157364   5.367   1.749  14.273 -1.9994 -0.0526 -2.0305
11983TIP3    H257365   5.478   1.838  14.222  0.6716 -0.9289  1.7569
11984TIP3   OH257366   3.314   4.316  15.302  0.2649 -0.6719  0.1635
11984TIP3    H157367   3.224   4.306  15.271 -0.4886  0.5494  1.8301
11984TIP3    H257368   3.368   4.299  15.224 -1.2948 -2.8443 -0.5548
11985TIP3   OH257369   0.868   3.771   5.609 -0.3401  0.2185 -0.0015
11985TIP3    H157370   0.802   3.728   5.555  0.3029  0.7539 -1.2685
11985TIP3    H257371   0.859   3.864   5.588 -0.1222  0.4511  0.8879
11986TIP3   OH257372   6.111   4.917   1.533  0.1086  0.3942 -0.3361
11986TIP3    H157373   6.084   4.891   1.621  0.6646  0.5142 -0.1268
11986TIP3    H257374   6.093   4.839   1.479  0.3369  0.1029  0.0006
11987TIP3   OH257375   2.197   1.278  12.209  0.1304  0.1420  0.3407
11987TIP3    H157376   2.193   1.211  12.277 -0.9813  1.0265  1.1752
11987TIP3    H257377   2.106   1.294  12.185  0.4596  0.4101 -0.8165
11988TIP3   OH257378   6.193   1.469  12.351 -0.5075 -0.3410 -0.5004
11988TIP3    H157379   6.214   1.388  12.397 -1.2726 -1.2347 -1.7009
11988TIP3    H257380   6.258   1.475  12.281  0.1971  0.6468  0.2041
11989TIP3   OH257381   6.569   4.902  13.856 -0.0081  0.1482 -0.0908
11989TIP3    H157382   6.564   4.833  13.922  0.7637 -1.0972 -1.2738
11989TIP3    H257383   6.660   4.931  13.858  0.1542 -0.2565 -0.9189
11990TIP3   OH257384   6.583   6.543   3.581 -0.1507 -0.3125 -0.4266
11990TIP3    H157385   6.505   6.591   3.551 -0.0432  1.3707  1.7365
11990TIP3    H257386   6.656   6.601   3.561  0.1188 -0.1118  1.0165
11991TIP3   OH257387   5.701   1.380  14.863 -0.4176  0.0778 -0.4427
11991TIP3    H157388   5.626   1.438  14.876 -1.2556 -1.1380  0.3948
11991TIP3    H257389   5.741   1.373  14.949 -1.1421 -1.6117 -0.2056
11992TIP3   OH257390   5.066   1.608   3.743 -0.1454 -0.0149  0.1631
11992TIP3    H157391   5.028   1.664   3.811  0.3571 -0.4047  0.7707
11992TIP3    H257392   5.056   1.519   3.777 -1.3922 -0.3578 -1.0095
11993TIP3   OH257393   3.218   1.519  14.853  0.3104  0.3147  0.3447
11993TIP3    H157394   3.254   1.432  14.832 -0.0426  0.5048 -1.1099
11993TIP3    H257395   3.138   1.500  14.901  0.6157 -0.1497  0.6889
11994TIP3   OH257396   6.272   1.363   2.349  0.5340  0.0280  0.8246
11994TIP3    H157397   6.226   1.377   2.432  0.6878 -1.6441  1.2245
11994TIP3    H257398   6.214   1.306   2.299 -0.0484  1.8294 -0.6946
11995TIP3   OH257399   3.799   1.257   3.520 -0.2747 -0.8025  0.2431
11995TIP3    H157400   3.802   1.243   3.425 -1.6478  2.7138 -0.4597
11995TIP3    H257401   3.888   1.238   3.550  0.2979 -1.6305 -1.7838
11996TIP3   OH257402   2.790   5.814  13.374  0.1296  0.4565  0.4252
11996TIP3    H157403   2.700   5.847  13.369  0.7723  2.2764  0.0135
11996TIP3    H257404   2.844   5.888  13.346  1.6773 -1.1319 -0.9765
11997TIP3   OH257405   0.295   4.566  10.959  0.0792 -0.4365 -0.2819
11997TIP3    H157406   0.239   4.568  11.036  0.1624 -0.1696 -0.2259
11997TIP3    H257407   0.322   4.474  10.951 -1.8172 -0.9578 -1.3822
11998TIP3   OH257408   4.821   3.718  11.980  0.4751 -0.2444  0.0278
11998TIP3    H157409   4.851   3.652  11.919  1.3511 -0.3796  0.5856
11998TIP3    H257410   4.883   3.714  12.053 -0.3247  0.1599  0.7603
11999TIP3   OH257411   0.310   6.700  13.278  0.5221  0.0565  0.4114
11999TIP3    H157412   0.254   6.773  13.305 -2.1394 -0.6766 -2.4898
11999TIP3    H257413   0.368   6.737  13.211 -0.8649 -0.3881 -1.1000
12000TIP3   OH257414   1.259   1.446  14.917 -0.4968 -0.0468  0.7604
12000TIP3    H157415   1.194   1.427  14.850  0.1388 -1.3162  0.4586
12000TIP3    H257416   1.341   1.457  14.869 -0.3816  0.9714  1.1755
12001TIP3   OH257417   1.063   4.901  15.139  0.2620  0.4350 -0.1095
12001TIP3    H157418   1.052   4.942  15.225  0.8552 -0.0709  0.2129
12001TIP3    H257419   0.985   4.929  15.090  0.3320  1.4169  0.3027
12002TIP3   OH257420   3.183   6.249   4.477 -0.7518 -0.5036  0.0866
12002TIP3    H157421   3.099   6.251   4.522 -0.4069  3.8176  0.9363
12002TIP3    H257422   3.172   6.306   4.401  1.2668 -0.0534  0.0684
12003TIP3   OH257423   4.980   3.056   6.498 -0.4563 -0.3086 -0.1538
12003TIP3    H157424   4.989   2.969   6.536 -0.1736 -0.4266 -0.4922
12003TIP3    H257425   4.890   3.082   6.520 -0.2133 -0.2638  0.8276
12004TIP3   OH257426   6.318   4.218   2.886 -0.0944 -0.2044  0.1809
12004TIP3    H157427   6.404   4.251   2.912  0.3068 -0.6451 -0.5469
12004TIP3    H257428   6.288   4.166   2.960  0.2610 -0.0320  0.4483
12005TIP3   OH257429   6.707   0.409  11.542  0.2077 -0.3138  0.0606
12005TIP3    H157430   6.643   0.480  11.544 -0.0501 -0.5422  2.0132
12005TIP3    H257431   6.768   0.430  11.613  1.2710 -1.0417 -0.6067
12006TIP3   OH257432   5.784   1.883  14.679 -0.3510 -0.0526  0.3047
12006TIP3    H157433   5.760   1.891  14.771  1.3799  1.5500  0.6832
12006TIP3    H257434   5.739   1.957  14.637 -0.3221 -0.1840  0.0434
12007TIP3   OH257435   2.325   5.184  14.943 -0.1124  0.5549 -0.1204
12007TIP3    H157436   2.262   5.214  14.878 -0.8488 -2.0059 -0.6776
12007TIP3    H257437   2.390   5.135  14.893  2.5526  3.2552  0.4143
12008TIP3   OH257438   2.979   3.869  12.761 -0.3593  0.3134 -0.0243
12008TIP3    H157439   2.913   3.855  12.693 -0.5076 -0.1590  0.2151
12008TIP3    H257440   2.953   3.811  12.832  0.8074 -0.5581 -0.2811
12009TIP3   OH257441   1.665   3.751  16.146 -0.1214 -0.2539 -0.0030
12009TIP3    H157442   1.637   3.774  16.235 -0.9271  1.3431 -0.6466
12009TIP3    H257443   1.674   3.834  16.101  2.1648 -0.9100 -0.9201
12010TIP3   OH257444   5.244   2.498  16.915  0.6601 -0.9960  0.0490
12010TIP3    H157445   5.172   2.467  16.970  1.4314  0.5260  2.0050
12010TIP3    H257446   5.204   2.563  16.858  0.2497 -1.0361  0.2864
12011TIP3   OH257447   5.286   1.348  14.035  0.0849  0.4707 -0.1070
12011TIP3    H157448   5.303   1.255  14.017  0.5304  0.4314  0.5002
12011TIP3    H257449   5.324   1.394  13.960  0.1552  0.1901 -0.2469
12012TIP3   OH257450   5.071   4.883   2.822 -0.0656 -0.3531 -0.0201
12012TIP3    H157451   5.065   4.866   2.916 -1.4083 -1.4945 -0.2811
12012TIP3    H257452   5.136   4.953   2.814  1.2610 -1.3494  1.6101
12013TIP3   OH257453   0.614   4.360  13.492  0.0888  0.4561  0.0605
12013TIP3    H157454   0.669   4.418  13.439  0.2649  0.7131  0.5138
12013TIP3    H257455   0.654   4.363  13.579  1.1257 -1.6817 -0.2931
12014TIP3   OH257456   3.753   0.200   4.686  0.4242 -0.4228 -0.0750
12014TIP3    H157457   3.680   0.196   4.625 -0.3240 -0.5824  0.8096
12014TIP3    H257458   3.776   0.293   4.691 -1.0095 -0.1099  1.1215
12015TIP3   OH257459   6.377   4.086  16.330 -0.1706  0.3839 -0.0508
12015TIP3    H157460   6.391   4.166  16.381 -1.0766 -0.0790  0.9735
12015TIP3    H257461   6.287   4.061  16.350  0.0833 -0.8635 -0.4154
12016TIP3   OH257462   5.255   4.446   2.637 -0.1147  0.0502 -0.4924
12016TIP3    H157463   5.213   4.360   2.629 -1.7343  0.3396  2.8441
12016TIP3    H257464   5.228   4.477   2.724  3.1626  2.4825 -0.1568
12017TIP3   OH257465   3.292   6.124   0.271 -0.2108  0.0789  0.2707
12017TIP3    H157466   3.375   6.092   0.238 -1.0580  0.6634 -2.7429
12017TIP3    H257467   3.285   6.213   0.236 -2.9239 -0.6405 -1.3119
12018TIP3   OH257468   1.852   4.559  16.052 -0.7365  0.3174  0.3279
12018TIP3    H157469   1.869   4.624  15.984  0.5048  0.2183  0.5160
12018TIP3    H257470   1.797   4.493  16.010  0.2365  0.1229 -0.6616
12019TIP3   OH257471   0.377   0.484  15.102 -0.6740 -0.8873  0.0332
12019TIP3    H157472   0.291   0.462  15.139 -1.8185  1.8262 -0.7404
12019TIP3    H257473   0.427   0.516  15.177 -0.6150 -1.6615  0.3351
12020TIP3   OH257474   6.305   4.594  17.070  0.5678  0.1331  0.1837
12020TIP3    H157475   6.227   4.549  17.038 -0.2046  0.9759  0.8273
12020TIP3    H257476   6.371   4.525  17.077 -0.2192 -0.6659 -0.0444
12021TIP3   OH257477   5.419   4.992   0.953 -0.3478 -0.5411 -0.2184
12021TIP3    H157478   5.438   5.029   0.867 -0.3332  0.7310  0.3068
12021TIP3    H257479   5.486   4.924   0.965 -0.6302 -1.0523 -1.3754
12022TIP3   OH257480   2.991   3.595   2.066 -0.0426  0.2588  0.0238
12022TIP3    H157481   3.078   3.600   2.026  0.7025  0.3815  1.5862
12022TIP3    H257482   2.939   3.546   2.003  1.5644 -1.1523 -0.2878
12023TIP3   OH257483   2.599   3.353   4.917  0.1624  0.2877  0.2827
12023TIP3    H157484   2.610   3.296   4.840 -0.4418  1.2036 -0.5023
12023TIP3    H257485   2.530   3.414   4.892  0.0059  0.6564  1.5404
12024TIP3   OH257486   1.877   5.809   2.273 -0.2741  0.0215  0.4867
12024TIP3    H157487   1.943   5.750   2.236  0.3541 -0.4428  2.2208
12024TIP3    H257488   1.855   5.770   2.357 -0.9378  1.4923  1.0346
12025TIP3   OH257489   2.659   5.427   3.388  0.0124  0.2472 -0.3628
12025TIP3    H157490   2.569   5.397   3.383  0.1009  0.0876 -1.0564
12025TIP3    H257491   2.679   5.428   3.482 -0.2737 -1.0153 -0.2694
12026TIP3   OH257492   2.380   0.396  15.466  0.2823 -0.2182 -0.1406
12026TIP3    H157493   2.294   0.390  15.424  0.3658  0.5641 -0.4444
12026TIP3    H257494   2.439   0.351  15.406  0.4199  0.9809 -0.9592
12027TIP3   OH257495   4.202   0.249  13.883 -0.0910  0.3042 -0.6241
12027TIP3    H157496   4.182   0.184  13.950 -1.7340  0.5922 -0.7844
12027TIP3    H257497   4.279   0.295  13.916  0.9290 -1.4929 -0.3678
12028TIP3   OH257498   2.907   0.292   0.873 -0.1285 -0.4231  0.1959
12028TIP3    H157499   2.916   0.384   0.896  1.6989  0.0006 -1.9296
12028TIP3    H257500   2.995   0.257   0.879 -0.3880 -1.4312 -1.3086
12029TIP3   OH257501   1.991   2.985  14.116 -0.2090 -0.3009  0.0737
12029TIP3    H157502   2.002   3.008  14.024  0.1619 -1.4850 -0.1846
12029TIP3    H257503   1.933   3.054  14.150 -0.3005  0.1904 -1.0170
12030TIP3   OH257504   6.204   2.100  12.031 -0.0691  0.3023 -0.4266
12030TIP3    H157505   6.260   2.177  12.023 -0.5025  0.7178  0.4215
12030TIP3    H257506   6.115   2.134  12.025 -0.3215  0.1413  1.7815
12031TIP3   OH257507   2.883   0.206  16.447  0.1451 -0.1154  0.8271
12031TIP3    H157508   2.916   0.125  16.407  2.1993  1.3940 -0.7461
12031TIP3    H257509   2.960   0.244  16.490 -0.3852  1.7967  0.1565
12032TIP3   OH257510   3.601   2.205  16.494 -0.2995  0.0167  0.3234
12032TIP3    H157511   3.641   2.239  16.574 -0.6103 -0.0415  0.5039
12032TIP3    H257512   3.528   2.150  16.525  0.7140 -1.5363  0.0770
12033TIP3   OH257513   1.240   1.000   0.440 -0.1282  0.2134  0.0889
12033TIP3    H157514   1.179   0.936   0.401 -2.2805  1.2667  1.5596
12033TIP3    H257515   1.223   0.995   0.534  1.2844  1.3643  0.4279
12034TIP3   OH257516   1.429   4.131   3.814  1.5677 -0.1090 -0.0024
12034TIP3    H157517   1.492   4.189   3.857 -0.3227 -0.9440  4.3838
12034TIP3    H257518   1.344   4.154   3.852 -0.1317 -2.0242 -2.3195
12035TIP3   OH257519   1.190   2.469  14.496 -0.3360 -0.1518 -0.6011
12035TIP3    H157520   1.146   2.384  14.490  0.4116 -0.4646 -2.0685
12035TIP3    H257521   1.153   2.520  14.424 -0.2952  0.5324 -0.1391
12036TIP3   OH257522   6.708   4.541   3.797  0.1314  0.1879  0.0122
12036TIP3    H157523   6.640   4.601   3.764 -0.0377 -0.0486 -0.0746
12036TIP3    H257524   6.666   4.496   3.870  0.5416  0.7799  0.6180
12037TIP3   OH257525   3.603   0.365   1.461  0.0749 -0.2652  0.5090
12037TIP3    H157526   3.693   0.385   1.435 -0.7932  0.6828 -2.0860
12037TIP3    H257527   3.598   0.269   1.458  0.5409 -0.2710 -1.2527
12038TIP3   OH257528   4.177   1.993   2.536 -0.0226  0.0840  0.0493
12038TIP3    H157529   4.218   1.907   2.540 -0.5293 -0.1476  0.5303
12038TIP3    H257530   4.181   2.025   2.626 -1.0900 -0.0481  0.1612
12039TIP3   OH257531   5.024   5.020  12.159  0.1212 -0.5540 -0.1831
12039TIP3    H157532   5.102   5.072  12.179 -0.7549  0.3307  1.1147
12039TIP3    H257533   4.967   5.080  12.112 -0.6409 -0.5136  0.7668
12040TIP3   OH257534   2.281   5.999  13.973 -0.0701 -0.1474  0.8991
12040TIP3    H157535   2.187   5.989  13.957 -0.1295 -0.6705  1.5602
12040TIP3    H257536   2.310   5.913  14.004  0.6792 -0.0578  0.4791
12041TIP3   OH257537   0.223   3.684  16.779  0.1473 -0.1027 -0.0796
12041TIP3    H157538   0.241   3.709  16.688 -0.3762 -0.0875 -0.1832
12041TIP3    H257539   0.153   3.620  16.772  1.3698 -1.5399  0.1902
12042TIP3   OH257540   3.009   5.838  12.194 -0.0094 -0.2622 -0.0910
12042TIP3    H157541   2.951   5.834  12.118  0.8349  0.8438 -0.8331
12042TIP3    H257542   2.954   5.814  12.268 -0.9012 -1.1734 -1.0260
12043TIP3   OH257543   3.114   0.829   5.140 -0.2940  0.0493  0.3791
12043TIP3    H157544   3.040   0.832   5.201  0.2506 -0.0276  1.0677
12043TIP3    H257545   3.137   0.736   5.136  0.7108  0.2305  1.3739
12044TIP3   OH257546   5.360   2.264  16.981  0.0288  0.4935  0.4480
12044TIP3    H157547   5.356   2.214  16.900 -1.7308 -0.2737  0.9749
12044TIP3    H257548   5.311   2.344  16.962 -2.5223 -0.7333  1.3905
12045TIP3   OH257549   1.931   1.653  10.751  0.5474  0.2465 -0.1038
12045TIP3    H157550   1.988   1.713  10.797  0.0160  2.0090 -1.6105
12045TIP3    H257551   1.990   1.589  10.711  1.0476 -1.0065  2.4317
12046TIP3   OH257552   6.751   1.505   1.832  1.0095  0.4006 -0.8811
12046TIP3    H157553   6.764   1.599   1.835  1.8583  0.2776  0.0903
12046TIP3    H257554   6.834   1.470   1.799  0.6685  0.0004 -1.3314
12047TIP3   OH257555   5.591   2.888   5.652 -0.1432  0.5099  0.1476
12047TIP3    H157556   5.662   2.948   5.677 -0.3275  1.2031 -0.9641
12047TIP3    H257557   5.623   2.845   5.573 -1.5349  1.8982 -1.2204
12048TIP3   OH257558   4.382   5.704  12.507 -0.4858  0.7581 -0.3075
12048TIP3    H157559   4.404   5.611  12.511  0.7889  1.0184 -0.7912
12048TIP3    H257560   4.343   5.715  12.420 -0.2398  0.7478 -0.4213
12049TIP3   OH257561   5.412   2.220  11.388  0.1504  0.0738  0.2845
12049TIP3    H157562   5.484   2.169  11.426  2.6492  1.4146 -2.2257
12049TIP3    H257563   5.363   2.157  11.335  1.3991 -0.3517 -0.4100
12050TIP3   OH257564   3.340   0.518   5.498  0.0235  0.1886 -0.1141
12050TIP3    H157565   3.325   0.463   5.421  0.3102 -1.8130  1.1906
12050TIP3    H257566   3.260   0.509   5.549  0.0093  1.1441  0.0401
12051TIP3   OH257567   4.012   0.187  16.793  0.0732 -0.2564 -0.2900
12051TIP3    H157568   3.973   0.218  16.875  2.2322  2.1723 -0.0527
12051TIP3    H257569   3.943   0.200  16.727 -0.7189  0.5519  0.6562
12052TIP3   OH257570   3.222   4.005   5.360  0.3235 -0.1558  0.5458
12052TIP3    H157571   3.284   4.050   5.303 -0.1813  0.0167  0.1198
12052TIP3    H257572   3.193   3.929   5.310  0.0008 -0.0957  0.6342
12053TIP3   OH257573   1.435   0.297   3.196  0.4246 -0.4093  0.0341
12053TIP3    H157574   1.399   0.213   3.225  1.5832 -0.9996 -0.1845
12053TIP3    H257575   1.389   0.316   3.114 -1.0593  0.0331  0.9325
12054TIP3   OH257576   0.933   5.716  10.933 -0.4904  0.4967  0.1709
12054TIP3    H157577   0.865   5.783  10.931  0.1185  1.1195 -0.2426
12054TIP3    H257578   0.906   5.656  11.002 -0.6802  1.5706  1.0573
12055TIP3   OH257579   4.080   1.619   2.177  0.1017 -0.1434 -0.2015
12055TIP3    H157580   4.043   1.705   2.195 -0.1035  0.0742 -1.5276
12055TIP3    H257581   4.169   1.637   2.148  0.3694 -0.4593  0.4105
12056TIP3   OH257582   6.681   0.029  13.714 -0.2554  1.1827  0.2207
12056TIP3    H157583   6.617   0.097  13.695  0.0158  0.9117 -1.8698
12056TIP3    H257584   6.653  -0.047  13.662  0.6383  0.3990  0.8381
12057TIP3   OH257585   5.408   6.104  16.416 -0.5286 -0.0662  0.8689
12057TIP3    H157586   5.492   6.103  16.371 -0.9856  1.5833 -0.1219
12057TIP3    H257587   5.419   6.166  16.488 -1.3100  1.4314 -0.2425
12058TIP3   OH257588   0.021   5.817  14.177 -0.4652 -0.0754  0.2260
12058TIP3    H157589   0.081   5.767  14.121 -0.3648  0.1514  0.1301
12058TIP3    H257590   0.048   5.908  14.166 -0.6048 -0.0054  0.4522
12059TIP3   OH257591   5.797   3.761  16.626 -0.2044  0.5280  0.7219
12059TIP3    H157592   5.782   3.666  16.625 -2.4517  0.8225 -0.0463
12059TIP3    H257593   5.792   3.785  16.719  0.3534 -0.0893  0.9187
12060TIP3   OH257594   4.967   5.161  14.778  0.5302  0.2046  0.4153
12060TIP3    H157595   4.933   5.152  14.689 -0.1057 -1.3862  0.7921
12060TIP3    H257596   5.005   5.076  14.798  1.9867  0.9909  1.1579
12061TIP3   OH257597   5.626   1.960  14.194  0.4623 -0.1620  0.0621
12061TIP3    H157598   5.623   2.050  14.161  2.4512 -0.2086 -0.3332
12061TIP3    H257599   5.682   1.965  14.272 -0.9066 -0.7705  1.1289
12062TIP3   OH257600   4.484   3.753   3.941 -0.1198  0.5125 -0.3825
12062TIP3    H157601   4.568   3.705   3.942 -0.0841  0.4694  2.6319
12062TIP3    H257602   4.422   3.691   3.902  0.2259 -1.6022  2.1458
12063TIP3   OH257603   2.581   0.825  15.288 -0.7002 -0.4763  0.0203
12063TIP3    H157604   2.514   0.804  15.222  0.1392  0.5898 -1.2140
12063TIP3    H257605   2.651   0.762  15.271 -0.5500 -0.3008 -0.0165
12064TIP3   OH257606   1.314   5.814  13.490  0.8468 -0.3429 -0.2238
12064TIP3    H157607   1.359   5.731  13.474  3.0453  0.5747  0.7203
12064TIP3    H257608   1.308   5.819  13.586  0.6924  0.5589 -0.2735
12065TIP3   OH257609   2.594   1.769  12.694 -0.1726  0.0419 -0.2713
12065TIP3    H157610   2.546   1.711  12.635 -0.0397 -0.2565 -0.0910
12065TIP3    H257611   2.544   1.767  12.776  1.7298 -2.7513  0.9982
12066TIP3   OH257612   6.633   4.984   4.744 -0.1728 -0.1574  0.2121
12066TIP3    H157613   6.555   5.025   4.706  0.0113  1.4226  1.4089
12066TIP3    H257614   6.704   5.045   4.725  0.1670  0.0102  1.8410
12067TIP3   OH257615   4.478   0.232  15.596  0.4930  0.4887  0.0012
12067TIP3    H157616   4.558   0.197  15.557 -0.3812 -2.5207  0.6957
12067TIP3    H257617   4.466   0.181  15.676 -1.6444  1.5332  0.4123
12068TIP3   OH257618   0.102   2.020   6.360 -0.1461  0.4529  0.8347
12068TIP3    H157619   0.099   2.108   6.397 -0.9967  0.3712  0.9696
12068TIP3    H257620   0.015   1.984   6.374 -0.8922  0.7994 -2.1868
12069TIP3   OH257621   4.141   1.320  13.451  0.1936 -0.0220  0.2965
12069TIP3    H157622   4.177   1.323  13.540  1.2528 -1.3463 -0.0545
12069TIP3    H257623   4.204   1.268  13.401 -0.4261  0.6157 -1.2231
12070TIP3   OH257624   1.609   5.548   2.058  0.4680 -0.3203 -0.0032
12070TIP3    H157625   1.598   5.618   2.122 -1.1926 -1.5227  1.0807
12070TIP3    H257626   1.565   5.581   1.979  1.6311  0.7324 -0.2495
12071TIP3   OH257627   1.283   5.449  10.799  0.1473  0.0106  0.0968
12071TIP3    H157628   1.342   5.426  10.726 -0.9094 -2.2911 -0.1254
12071TIP3    H257629   1.328   5.415  10.877 -0.4263 -0.9780  0.0227
12072TIP3   OH257630   3.283   2.128   2.827  0.1194  0.4908 -0.0864
12072TIP3    H157631   3.240   2.169   2.752 -0.0501  2.0197  0.8086
12072TIP3    H257632   3.370   2.168   2.829 -0.1180  0.9876  0.9275
12073TIP3   OH257633   2.787   5.244  17.218 -0.0358  0.2352 -0.0093
12073TIP3    H157634   2.785   5.155  17.183  1.7895 -0.4134  1.3711
12073TIP3    H257635   2.709   5.250  17.272 -0.2741 -0.4764 -0.2597
12074TIP3   OH257636   0.666   0.021  15.814  0.6733  0.4793 -0.1919
12074TIP3    H157637   0.684  -0.027  15.734  1.8060  0.6460 -0.0573
12074TIP3    H257638   0.709   0.106  15.801  1.3381  0.3185  0.7787
12075TIP3   OH257639   0.882   6.361  16.401  0.1528  0.2175  0.6030
12075TIP3    H157640   0.852   6.279  16.361 -1.1635  1.0756 -0.2733
12075TIP3    H257641   0.847   6.429  16.343 -0.1342  1.4444  2.1635
12076TIP3   OH257642   0.772   1.319   1.684  0.4097  0.4399 -0.3005
12076TIP3    H157643   0.824   1.246   1.651  0.4593  0.0916  0.5221
12076TIP3    H257644   0.695   1.321   1.628  0.8905  0.4013 -0.9716
12077TIP3   OH257645   5.672   3.461  12.228  0.2358 -0.0821 -0.3098
12077TIP3    H157646   5.612   3.475  12.301  0.4219 -1.7809  0.2142
12077TIP3    H257647   5.618   3.417  12.161 -0.2150  2.3711 -1.6977
12078TIP3   OH257648   2.311   2.949   5.909 -0.2714  0.5953 -0.1593
12078TIP3    H157649   2.387   3.003   5.886 -0.8235  1.1161 -0.8230
12078TIP3    H257650   2.328   2.920   5.998 -0.3141  2.5682  0.5510
12079TIP3   OH257651   2.001   5.021   0.972  0.3681 -0.3071  0.0273
12079TIP3    H157652   2.055   4.974   0.908 -1.5402 -1.3307 -0.9030
12079TIP3    H257653   2.032   4.989   1.057  1.1594 -0.9204 -0.4703
12080TIP3   OH257654   1.887   1.326  11.445  0.3600  0.2414 -0.2954
12080TIP3    H157655   1.798   1.357  11.458  0.5834  1.0623 -0.6685
12080TIP3    H257656   1.896   1.314  11.351  0.6682  0.2623 -0.2714
12081TIP3   OH257657   3.462   1.553   0.991 -0.0635  0.1023 -0.3194
12081TIP3    H157658   3.466   1.459   0.974 -0.6011  0.1473 -0.7170
12081TIP3    H257659   3.413   1.588   0.917  2.1707  1.0111 -1.4504
12082TIP3   OH257660   0.515   3.708  15.101 -0.0065  0.6907 -0.5186
12082TIP3    H157661   0.464   3.635  15.066 -0.5570  0.4538  0.7182
12082TIP3    H257662   0.534   3.683  15.192 -0.6175  2.2841  0.0832
12083TIP3   OH257663   2.244   0.751   2.465 -0.6286  0.8246  0.1188
12083TIP3    H157664   2.182   0.780   2.399 -0.3233  1.3087  0.0351
12083TIP3    H257665   2.298   0.685   2.421 -1.1130  0.3648  0.2092
12084TIP3   OH257666   4.503   1.429  16.278 -0.0730 -0.1052 -0.3458
12084TIP3    H157667   4.410   1.412  16.264  0.2345 -0.3908 -2.3569
12084TIP3    H257668   4.539   1.346  16.308 -0.1457 -0.5461 -1.4470
12085TIP3   OH257669   5.223   2.476   2.440  0.5319 -0.2038  0.2221
12085TIP3    H157670   5.268   2.425   2.372  2.8102 -0.3925  1.7465
12085TIP3    H257671   5.280   2.468   2.516 -1.6235  0.4980  1.9953
12086TIP3   OH257672   6.293   6.533  12.616 -0.0093 -0.0886 -0.6216
12086TIP3    H157673   6.296   6.531  12.521  1.3209  0.2304 -0.6022
12086TIP3    H257674   6.221   6.593  12.637  0.3176  0.5980 -1.4349
12087TIP3   OH257675   3.213   0.765  16.366 -0.2148 -0.0902 -0.2444
12087TIP3    H157676   3.225   0.822  16.442  0.2795  0.4026 -0.6821
12087TIP3    H257677   3.162   0.818  16.305  0.6696  0.0837 -0.8538
12088TIP3   OH257678   2.490   0.243   4.382  0.6412 -0.4210 -0.5296
12088TIP3    H157679   2.578   0.220   4.353  0.8523 -0.5862  0.2166
12088TIP3    H257680   2.432   0.205   4.317  1.1240 -0.2175 -1.0873
12089TIP3   OH257681   6.301   0.375  16.528  0.3027 -0.3518 -0.3873
12089TIP3    H157682   6.374   0.394  16.588 -0.9121  0.5354  0.8800
12089TIP3    H257683   6.332   0.406  16.443  0.6337  2.0396  0.5209
12090TIP3   OH257684   2.009   1.102   2.942  0.2365  0.8439  0.3032
12090TIP3    H157685   2.102   1.104   2.919  0.3624  0.8914  0.7930
12090TIP3    H257686   1.981   1.193   2.935 -0.1621  0.6122 -1.3442
12091TIP3   OH257687   0.125   2.872  11.782 -0.2837 -0.0539  0.4694
12091TIP3    H157688   0.160   2.802  11.726 -0.2510 -1.3469  2.0252
12091TIP3    H257689   0.083   2.825  11.854 -0.2518  1.5552  1.5720
12092TIP3   OH257690   2.038   3.085   1.142 -0.8344  0.0969  0.1703
12092TIP3    H157691   2.072   3.021   1.080 -0.8783  2.1011 -2.0876
12092TIP3    H257692   1.962   3.042   1.183 -0.5409 -1.4501 -0.8407
12093TIP3   OH257693   5.467   5.693  16.810  0.3842 -0.8150 -0.2389
12093TIP3    H157694   5.546   5.666  16.856  0.2077 -0.6768  0.1484
12093TIP3    H257695   5.451   5.624  16.746  1.0654 -0.6305 -0.6177
12094TIP3   OH257696   3.054   1.858   0.568  0.1974  0.2109  0.2979
12094TIP3    H157697   2.990   1.878   0.500  1.2765  1.1794 -0.4867
12094TIP3    H257698   3.134   1.836   0.519  0.8670  0.4694  1.2443
12095TIP3   OH257699   4.903   5.493   0.115  0.4190 -0.2813  0.3365
12095TIP3    H157700   4.858   5.527   0.038  0.7115  0.6707  0.5781
12095TIP3    H257701   4.990   5.532   0.112  0.4340 -0.2429  1.1485
12096TIP3   OH257702   3.184   1.862   1.098  0.4509 -0.2201 -0.8512
12096TIP3    H157703   3.111   1.808   1.070 -0.6321  0.1285  1.1282
12096TIP3    H257704   3.184   1.936   1.038  0.1058 -0.9265 -1.7480
12097TIP3   OH257705   3.211   6.409  16.000  0.3891 -0.0279  0.0773
12097TIP3    H157706   3.254   6.477  15.949  1.5111 -2.0293 -1.8539
12097TIP3    H257707   3.129   6.392  15.954 -0.5634  0.9240  1.3611
12098TIP3   OH257708   2.185   4.644   1.586  0.5918  0.4505 -0.5893
12098TIP3    H157709   2.246   4.647   1.512  0.4661  0.3024 -0.6986
12098TIP3    H257710   2.108   4.600   1.551  2.3055 -4.4038  0.8667
12099TIP3   OH257711   0.730   6.131  16.477  0.0792 -0.1750 -0.1221
12099TIP3    H157712   0.823   6.113  16.463  0.1767  1.2110 -1.5423
12099TIP3    H257713   0.705   6.073  16.548  2.6491  1.1642  2.0877
12100TIP3   OH257714   6.652   1.514   6.501  0.0935  0.2920 -0.2241
12100TIP3    H157715   6.667   1.504   6.407  1.1666 -0.2979 -0.0101
12100TIP3    H257716   6.662   1.608   6.517 -1.1781  0.5582 -0.8506
12101TIP3   OH257717   2.537   6.547   0.515  0.0434  0.2569 -0.2955
12101TIP3    H157718   2.589   6.619   0.479 -2.3180  2.1209 -0.2116
12101TIP3    H257719   2.570   6.537   0.604  0.4633  1.1906 -0.3312
12102TIP3   OH257720   0.158   4.556   2.775 -0.6119  0.1261 -0.5147
12102TIP3    H157721   0.168   4.651   2.784 -1.4219  0.1517  0.2546
12102TIP3    H257722   0.226   4.519   2.830  0.6318  0.2293 -1.9169
12103TIP3   OH257723   3.478   2.368   3.782  0.3516 -0.1604 -0.6349
12103TIP3    H157724   3.402   2.328   3.739  1.9191 -2.9440 -1.0486
12103TIP3    H257725   3.536   2.392   3.710  1.3922 -1.4145 -0.2402
12104TIP3   OH257726   1.093   1.299  13.465 -0.0163 -0.3951  0.2356
12104TIP3    H157727   1.076   1.354  13.388  0.2458 -0.2777  0.2602
12104TIP3    H257728   1.067   1.354  13.540  0.0142 -0.3959  0.2466
12105TIP3   OH257729   6.527   3.332   1.239 -0.3038  0.2373  0.1035
12105TIP3    H157730   6.589   3.381   1.184  2.3537  0.8501  3.3119
12105TIP3    H257731   6.441   3.359   1.208  0.9725  0.9382 -3.3056
12106TIP3   OH257732   1.303   6.126   2.759 -0.2522  0.0648 -0.3256
12106TIP3    H157733   1.238   6.192   2.784  0.0871 -0.6160  2.6790
12106TIP3    H257734   1.387   6.165   2.785  0.3077 -0.2019 -1.6524
12107TIP3   OH257735   1.581   0.734   5.513 -0.6329 -0.1708  0.4083
12107TIP3    H157736   1.581   0.821   5.475  0.3901 -0.3125  0.0704
12107TIP3    H257737   1.544   0.746   5.601 -2.0266  0.3219 -0.2221
12108TIP3   OH257738   6.756   4.078  11.138  0.2188  0.0686 -0.0619
12108TIP3    H157739   6.677   4.130  11.126 -1.4172 -2.1004  0.5444
12108TIP3    H257740   6.821   4.139  11.171 -1.2007  1.9352 -0.5805
12109TIP3   OH257741   0.592   6.652  15.595  0.1090 -0.2877 -0.8921
12109TIP3    H157742   0.524   6.718  15.612  1.8274  1.5169 -0.6524
12109TIP3    H257743   0.603   6.652  15.500 -0.0798 -0.4283 -0.9144
12110TIP3   OH257744   1.684   2.516  17.080 -0.4425 -0.2121  0.0492
12110TIP3    H157745   1.644   2.463  17.149 -1.1237  0.1433 -0.0624
12110TIP3    H257746   1.686   2.458  17.003  0.1899 -0.5621  0.3221
12111TIP3   OH257747   5.040   4.576   0.364 -0.0286 -0.3592 -0.3380
12111TIP3    H157748   5.099   4.506   0.336  0.3499  0.1750 -0.8894
12111TIP3    H257749   4.960   4.560   0.315  0.0156 -0.4714 -0.3750
12112TIP3   OH257750   5.293   3.643  13.817 -0.5650 -0.0703  0.0691
12112TIP3    H157751   5.336   3.728  13.833  1.1743 -1.1275  1.3738
12112TIP3    H257752   5.200   3.660  13.832 -0.2185  1.5348  0.6225
12113TIP3   OH257753   2.271   3.400   5.686 -0.3207  0.1781  0.6572
12113TIP3    H157754   2.220   3.362   5.757  2.6099  0.2560  2.9638
12113TIP3    H257755   2.281   3.492   5.709  0.9435  0.1380  0.3578
12114TIP3   OH257756   4.411   4.028  12.658 -0.0789  0.7178  0.2186
12114TIP3    H157757   4.396   4.115  12.622 -0.6103  0.2172 -0.8357
12114TIP3    H257758   4.324   3.995  12.679  0.0191  0.0759 -0.3243
12115TIP3   OH257759   0.897   6.011   3.916  0.6534 -0.0495  0.6196
12115TIP3    H157760   0.953   5.989   3.991 -0.4972  1.3683  1.9847
12115TIP3    H257761   0.901   6.106   3.911 -0.5153 -0.0264 -0.1478
12116TIP3   OH257762   0.972   1.041  16.915  0.8767  0.5618 -0.0258
12116TIP3    H157763   1.066   1.045  16.897  0.4539  0.2666 -2.7194
12116TIP3    H257764   0.962   0.971  16.979  2.4336  0.2048 -0.1542
12117TIP3   OH257765   5.403   4.822  16.651 -0.2618  0.4289  0.2528
12117TIP3    H157766   5.461   4.749  16.676 -0.3673  0.5753  0.9434
12117TIP3    H257767   5.322   4.806  16.700 -0.0264  1.3966  0.9790
12118TIP3   OH257768   3.483   3.411  12.141  0.5281 -0.1575  0.1311
12118TIP3    H157769   3.543   3.479  12.110 -0.5384  0.5675 -0.4411
12118TIP3    H257770   3.448   3.446  12.223 -0.4437  0.2687 -0.4471
12119TIP3   OH257771   2.850   2.039   0.783  0.0157  0.1112  0.5257
12119TIP3    H157772   2.890   2.070   0.701  0.2951 -0.2816  0.5106
12119TIP3    H257773   2.856   1.943   0.778 -0.9007  0.0464  0.5398
12120TIP3   OH257774   2.584   6.328  12.150  0.1280  0.6042  0.3403
12120TIP3    H157775   2.641   6.370  12.214 -0.1968  2.2399 -0.3982
12120TIP3    H257776   2.628   6.342  12.066  0.3275 -1.1254  0.1165
12121TIP3   OH257777   2.741   0.117   2.145  0.1033 -0.2296 -0.0960
12121TIP3    H157778   2.731   0.106   2.239 -1.3679  0.4244 -0.1441
12121TIP3    H257779   2.718   0.209   2.129 -0.9473 -0.6473 -1.2186
12122TIP3   OH257780   5.918   5.392   4.926  0.3291  0.2647  0.2886
12122TIP3    H157781   5.939   5.336   5.001  0.5417 -0.0649 -0.0094
12122TIP3    H257782   5.836   5.357   4.893 -0.0581  0.7711  0.7093
12123TIP3   OH257783   2.654   3.638   5.664 -0.0273 -0.0988 -0.5601
12123TIP3    H157784   2.682   3.584   5.591 -0.5645 -0.3694 -0.5772
12123TIP3    H257785   2.558   3.637   5.659 -0.0554  0.4376 -0.2580
12124TIP3   OH257786   5.975   1.417   1.277 -0.6954 -0.4738 -0.9073
12124TIP3    H157787   6.067   1.391   1.282 -1.0686 -1.5998  1.6621
12124TIP3    H257788   5.977   1.512   1.277  0.5044 -0.2986  3.3275
12125TIP3   OH257789   2.190   6.518  15.424 -0.0585  0.0243  0.8658
12125TIP3    H157790   2.102   6.517  15.388  0.6445 -0.5192 -0.9529
12125TIP3    H257791   2.206   6.427  15.451  0.1615 -0.0134  0.6130
12126TIP3   OH257792   3.589   4.799  11.288  0.3564  0.3463 -0.2700
12126TIP3    H157793   3.661   4.832  11.342  0.5481 -0.8340  0.2206
12126TIP3    H257794   3.623   4.803  11.198  0.7996  0.3996 -0.1036
12127TIP3   OH257795   3.963   6.022   1.707 -0.3020 -0.5407 -0.3176
12127TIP3    H157796   3.949   6.108   1.747 -2.7758 -1.0902  0.2127
12127TIP3    H257797   4.045   6.031   1.659 -0.2848  1.9953  0.0208
12128TIP3   OH257798   2.294   0.259  11.950 -0.0576 -0.3878 -0.2239
12128TIP3    H157799   2.286   0.173  11.991 -1.0165 -0.6653 -0.9578
12128TIP3    H257800   2.354   0.307  12.007  0.6425 -1.5936  0.1014
12129TIP3   OH257801   0.327   6.036   4.073 -0.1940 -0.1426 -0.4350
12129TIP3    H157802   0.421   6.033   4.054  0.3110  0.6073  1.6996
12129TIP3    H257803   0.292   6.101   4.012  1.0291  0.9249 -0.0488
12130TIP3   OH257804   4.240   4.915  12.278 -0.2007 -0.5469 -0.7329
12130TIP3    H157805   4.178   4.975  12.320  0.6743  0.7172 -1.1794
12130TIP3    H257806   4.276   4.966  12.205 -0.4321 -2.0980 -1.9903
12131TIP3   OH257807   5.201   4.452  11.364  0.1165 -0.3687  0.0945
12131TIP3    H157808   5.116   4.466  11.324 -0.3077  0.8077  1.3356
12131TIP3    H257809   5.223   4.535  11.406  0.8150 -1.3130  1.7156
12132TIP3   OH257810   6.691   4.222  14.434 -0.9389 -0.2337 -0.2108
12132TIP3    H157811   6.659   4.290  14.493 -0.1244  0.7649 -0.8757
12132TIP3    H257812   6.697   4.144  14.488 -1.0153  0.4514  0.8129
12133TIP3   OH257813   3.719   1.552   4.485 -0.4480 -0.2494  0.0425
12133TIP3    H157814   3.777   1.569   4.559 -1.7261 -0.2149  1.0576
12133TIP3    H257815   3.769   1.492   4.429  0.3728 -0.6150  1.1369
12134TIP3   OH257816   4.416   5.477  11.264  0.0428 -0.4394  0.8521
12134TIP3    H157817   4.368   5.494  11.183  1.3976  4.1276  0.7382
12134TIP3    H257818   4.348   5.461  11.329 -1.5118  1.6092 -0.1286
12135TIP3   OH257819   1.854   3.027  11.828 -0.1416  0.1717  0.0270
12135TIP3    H157820   1.833   2.974  11.905  0.3096 -1.0416 -0.6571
12135TIP3    H257821   1.928   2.983  11.787 -0.5236  0.6482 -1.2380
12136TIP3   OH257822   0.090   3.139   5.093  0.2269  0.3201  0.0130
12136TIP3    H157823   0.051   3.203   5.153 -1.0262 -0.6510  0.2860
12136TIP3    H257824   0.124   3.191   5.020 -0.0391  1.3521  0.6101
12137TIP3   OH257825   0.472   5.418   4.067 -0.0617 -0.4992 -0.1254
12137TIP3    H157826   0.423   5.500   4.061  0.6853  0.2811  2.8100
12137TIP3    H257827   0.415   5.354   4.023 -2.2709  0.9406  0.4423
12138TIP3   OH257828   2.066   6.761   1.415  0.3416  0.3238  0.1750
12138TIP3    H157829   1.971   6.767   1.417  0.1961 -0.3170 -1.8566
12138TIP3    H257830   2.085   6.700   1.344  2.3027  2.9369 -1.7985
12139TIP3   OH257831   2.556   5.419   6.075  0.2647 -0.4131 -0.5942
12139TIP3    H157832   2.599   5.464   6.149 -1.8769  3.0372 -1.1942
12139TIP3    H257833   2.627   5.401   6.014  1.6963 -0.8118  1.0874
12140TIP3   OH257834   5.674   0.370  17.231  0.2835 -0.5557 -0.6273
12140TIP3    H157835   5.700   0.452  17.189  0.8374 -0.4765 -0.1379
12140TIP3    H257836   5.732   0.304  17.191 -0.6498 -0.8458 -1.5560
12141TIP3   OH257837   2.353   0.484   2.391 -0.0548  0.0882  0.5859
12141TIP3    H157838   2.361   0.415   2.457 -0.9509  0.4371  1.0758
12141TIP3    H257839   2.311   0.441   2.316  2.0367 -0.6136 -0.2637
12142TIP3   OH257840   1.693   5.879  15.158  0.1677 -0.2535 -0.1224
12142TIP3    H157841   1.624   5.945  15.153  0.9707  0.5655 -0.9411
12142TIP3    H257842   1.773   5.930  15.176  0.6841 -1.0869 -0.0057
12143TIP3   OH257843   2.670   4.896  16.068  0.2996 -0.3401  0.2603
12143TIP3    H157844   2.759   4.927  16.052  0.4473 -1.2196 -0.7311
12143TIP3    H257845   2.617   4.939  16.001  0.2515 -1.0358 -0.1550
12144TIP3   OH257846   0.739   0.055  17.083  0.1924  0.0342 -0.0256
12144TIP3    H157847   0.768   0.035  17.172  0.6039  1.8015  0.2737
12144TIP3    H257848   0.806   0.015  17.027  0.1954 -0.6624  0.4548
12145TIP3   OH257849   3.367   5.107  16.024  0.2319  0.3748 -0.4904
12145TIP3    H157850   3.351   5.034  16.084 -0.7927 -0.0309 -1.2325
12145TIP3    H257851   3.439   5.077  15.968 -0.3449 -0.1847 -0.9502
12146TIP3   OH257852   0.787   6.387  16.693  0.4913 -0.0359  0.5447
12146TIP3    H157853   0.694   6.408  16.697 -0.1799 -2.5228 -0.5999
12146TIP3    H257854   0.810   6.396  16.601  0.7583 -1.7510  0.4191
12147TIP3   OH257855   4.490   4.796   4.634 -0.2347 -0.4873  0.2304
12147TIP3    H157856   4.500   4.790   4.539 -0.3387 -0.1615  0.1960
12147TIP3    H257857   4.469   4.888   4.649  1.6342 -0.1009  0.7321
12148TIP3   OH257858   5.707   4.792   5.673  0.2386 -0.3524 -0.0423
12148TIP3    H157859   5.637   4.854   5.653  1.2319  0.3787 -1.4831
12148TIP3    H257860   5.664   4.720   5.719 -2.1346 -1.5407 -3.6799
12149TIP3   OH257861   6.314   3.656   5.104  0.2248 -0.2334  0.3557
12149TIP3    H157862   6.373   3.581   5.103  1.5920  0.8004 -0.0191
12149TIP3    H257863   6.336   3.703   5.184 -1.1988 -0.6242  1.0220
12150TIP3   OH257864   2.228   5.498  16.972  0.2465 -0.1579  0.9351
12150TIP3    H157865   2.236   5.570  17.035  0.4663  0.4175  0.2629
12150TIP3    H257866   2.176   5.432  17.017 -1.4192  1.1118  0.9578
12151TIP3   OH257867   1.470   1.846  12.664 -0.3980 -0.1301  0.2083
12151TIP3    H157868   1.429   1.853  12.578  1.3831 -2.8036 -1.0129
12151TIP3    H257869   1.498   1.935  12.685 -2.6191  0.9285 -1.0163
12152TIP3   OH257870   1.292   0.041  14.685  0.1961  0.3991  0.0767
12152TIP3    H157871   1.241   0.121  14.672  0.7281  0.9458  1.2376
12152TIP3    H257872   1.249  -0.024  14.629 -2.2781  0.6003  1.6188
12153TIP3   OH257873   3.787   3.585  12.066  0.6042  0.1546  0.1838
12153TIP3    H157874   3.706   3.633  12.049  1.0714  1.9430  2.5017
12153TIP3    H257875   3.855   3.638  12.024  0.9330  0.7732  1.4166
12154TIP3   OH257876   4.159   2.520  13.643  0.2467  0.1251 -0.2642
12154TIP3    H157877   4.242   2.546  13.604  0.6231  2.6354  1.9202
12154TIP3    H257878   4.093   2.543  13.577  1.0814  1.0193 -0.8134
12155TIP3   OH257879   1.803   0.469  14.591  0.0777 -0.0653  0.8488
12155TIP3    H157880   1.882   0.472  14.644 -0.0618  0.4765  1.0377
12155TIP3    H257881   1.770   0.380  14.600  0.8365 -0.3882  0.5147
12156TIP3   OH257882   1.773   4.001   3.237  0.1192 -0.7391 -0.2458
12156TIP3    H157883   1.692   4.047   3.257 -1.2123 -2.7390 -0.7150
12156TIP3    H257884   1.786   3.942   3.311  2.2837  0.9238  0.7859
12157TIP3   OH257885   3.696   1.744  14.542 -0.0279  0.0594 -0.2187
12157TIP3    H157886   3.620   1.798  14.522 -0.4886 -0.2139  0.7102
12157TIP3    H257887   3.767   1.807  14.556 -0.0647  0.3132 -1.1431
12158TIP3   OH257888   2.502   5.197  13.199 -0.4917  0.3743  0.4101
12158TIP3    H157889   2.450   5.272  13.226  0.0850  0.3601  1.6383
12158TIP3    H257890   2.589   5.234  13.181 -0.1553 -0.0008  1.1985
12159TIP3   OH257891   0.704   0.146  14.910  0.1329 -0.4859  0.2616
12159TIP3    H157892   0.757   0.159  14.989  2.4461  2.5074 -1.5455
12159TIP3    H257893   0.641   0.218  14.911 -1.4525 -1.7998  0.4354
12160TIP3   OH257894   3.100   3.599   0.760 -0.2614 -0.1348 -0.5229
12160TIP3    H157895   3.074   3.604   0.668  1.6621  2.4512 -1.0569
12160TIP3    H257896   3.189   3.565   0.759 -0.1302  0.1387  0.3578
12161TIP3   OH257897   0.569   3.339   0.035 -0.0679 -0.0645  0.2643
12161TIP3    H157898   0.559   3.254  -0.009  0.3923 -0.7564  1.4348
12161TIP3    H257899   0.656   3.369   0.011 -0.9447  1.0702 -1.7461
12162TIP3   OH257900   0.776   3.174   5.325 -0.2032  0.2674 -0.5798
12162TIP3    H157901   0.681   3.169   5.333 -0.0055 -2.0676  1.4943
12162TIP3    H257902   0.797   3.265   5.345 -1.8516  0.1822  2.0397
12163TIP3   OH257903   1.610   3.156   3.620 -0.2400  0.0066  0.0986
12163TIP3    H157904   1.621   3.065   3.646  0.0087  0.6601  2.6069
12163TIP3    H257905   1.667   3.167   3.544  1.5619 -1.3808  1.1574
12164TIP3   OH257906   3.843   3.864  15.633  0.2837 -0.4486  0.4144
12164TIP3    H157907   3.786   3.928  15.676 -0.1013 -0.7177  0.3185
12164TIP3    H257908   3.782   3.802  15.591  0.6396 -0.1248 -0.6282
12165TIP3   OH257909   1.484   5.525   3.020  0.0308  0.1256  0.1337
12165TIP3    H157910   1.551   5.523   2.951 -0.7062 -1.2086 -0.5904
12165TIP3    H257911   1.401   5.525   2.972 -0.4928  0.1522  1.0289
12166TIP3   OH257912   2.918   1.873   6.281 -0.0406 -0.8869 -0.3748
12166TIP3    H157913   2.843   1.898   6.334  0.4737 -1.6790  0.7639
12166TIP3    H257914   2.986   1.937   6.303  0.2677 -1.3918  0.1566
12167TIP3   OH257915   3.941   2.936   0.655 -0.0058 -0.1954 -0.4026
12167TIP3    H157916   3.972   2.899   0.572  0.8035 -2.6798  0.8853
12167TIP3    H257917   3.846   2.941   0.645  0.0175 -1.0558 -1.2744
12168TIP3   OH257918   4.694   5.210   2.279  1.1423  0.1289 -0.0578
12168TIP3    H157919   4.748   5.186   2.354  0.2683  0.1333  0.5739
12168TIP3    H257920   4.735   5.291   2.246  0.9419  0.6899  1.0242
12169TIP3   OH257921   3.639   6.106   3.582 -0.0156 -0.0034  0.6065
12169TIP3    H157922   3.579   6.163   3.630 -0.4344 -1.0360  1.3270
12169TIP3    H257923   3.584   6.062   3.518 -0.0591 -0.9914  1.3009
12170TIP3   OH257924   3.905   0.942   3.975  0.1087  0.2732  0.2592
12170TIP3    H157925   3.902   0.862   3.922 -2.9946 -0.3802  1.1867
12170TIP3    H257926   3.954   0.916   4.053  1.2802  0.0723 -0.5111
12171TIP3   OH257927   1.949   3.506   1.466 -0.6174 -0.0190  0.0506
12171TIP3    H157928   1.855   3.522   1.457 -0.5485 -0.7647 -3.4024
12171TIP3    H257929   1.966   3.431   1.409  1.8526 -1.0616  1.9655
12172TIP3   OH257930   1.833   5.414  12.078  0.1922 -0.2318  0.1665
12172TIP3    H157931   1.769   5.479  12.047 -1.6012 -2.8577 -2.1234
12172TIP3    H257932   1.803   5.392  12.166 -0.5362  0.4281  0.1001
12173TIP3   OH257933   2.229   3.248   4.639  0.9306  0.0796  0.1345
12173TIP3    H157934   2.213   3.168   4.588  0.3932  0.8482 -0.9334
12173TIP3    H257935   2.244   3.216   4.728 -0.8157 -1.1376  0.0554
12174TIP3   OH257936   2.408   4.937   4.033 -0.3254 -0.2360 -0.8203
12174TIP3    H157937   2.354   4.916   4.110 -0.2277  1.4138 -0.2451
12174TIP3    H257938   2.351   4.918   3.958 -1.4822  0.7822 -0.2401
12175TIP3   OH257939   1.385   1.511   6.033  0.5700 -0.7360 -0.2828
12175TIP3    H157940   1.311   1.553   5.989  0.1223 -1.2488 -0.0369
12175TIP3    H257941   1.368   1.525   6.126  1.0288 -0.4509 -0.2429
12176TIP3   OH257942   2.210   0.687  16.487 -0.0400  0.1977 -0.1092
12176TIP3    H157943   2.204   0.592  16.478 -1.8674  0.2648 -0.0294
12176TIP3    H257944   2.296   0.703  16.524  0.4598 -1.3926 -0.5234
12177TIP3   OH257945   0.511   6.273   0.975 -0.0149  0.2346 -0.3168
12177TIP3    H157946   0.525   6.367   0.979 -0.7443  0.3555 -0.4305
12177TIP3    H257947   0.474   6.250   1.060  0.8585 -0.0752 -0.0146
12178TIP3   OH257948   3.704   2.985   4.197  0.4037 -0.4473 -0.3215
12178TIP3    H157949   3.632   3.047   4.208  1.8331  1.2583 -0.0322
12178TIP3    H257950   3.715   2.977   4.102  0.5213  0.1493 -0.3632
12179TIP3   OH257951   1.776   6.675  12.524 -0.0012 -0.6997 -0.0364
12179TIP3    H157952   1.712   6.656  12.592  1.7754 -0.6290  1.7813
12179TIP3    H257953   1.767   6.605  12.460 -2.6534 -0.0307 -0.4907
12180TIP3   OH257954   6.134   1.665   3.713 -0.2266 -0.2277 -0.2254
12180TIP3    H157955   6.203   1.668   3.779 -0.5890  2.8029  0.1757
12180TIP3    H257956   6.055   1.643   3.762  0.1076 -1.8679 -0.3742
12181TIP3   OH257957   5.260   1.931   1.932 -0.5336 -0.1916 -0.2611
12181TIP3    H157958   5.320   1.947   2.004 -0.4402 -2.1792  0.1615
12181TIP3    H257959   5.246   1.836   1.933 -1.0815 -0.1860 -2.4189
12182TIP3   OH257960   5.612   3.671  13.262 -0.0282 -0.6030  0.5106
12182TIP3    H157961   5.592   3.651  13.353 -0.4887  0.6730  0.7031
12182TIP3    H257962   5.540   3.632  13.212  0.9841 -2.6294  0.5143
12183TIP3   OH257963   6.055   1.788  13.313  0.2154  0.0329  0.4635
12183TIP3    H157964   5.962   1.795  13.332 -0.1117 -0.9226 -0.6436
12183TIP3    H257965   6.098   1.796  13.398 -0.8918  0.2370  1.0207
12184TIP3   OH257966   6.530   4.244   5.896 -0.0933  0.4272 -0.0523
12184TIP3    H157967   6.496   4.260   5.985 -1.1512  0.4962 -0.4511
12184TIP3    H257968   6.491   4.314   5.843 -2.8524 -1.8972 -1.3744
12185TIP3   OH257969   1.691   5.043  13.064  0.2498  0.0293 -0.1958
12185TIP3    H157970   1.734   5.009  13.142 -1.9225 -1.1112  0.6136
12185TIP3    H257971   1.639   5.117  13.096 -0.3834 -0.2281 -0.6152
12186TIP3   OH257972   1.180   0.449   2.675  0.1801 -0.2705 -0.3805
12186TIP3    H157973   1.086   0.459   2.686  0.2191 -0.0722 -0.2159
12186TIP3    H257974   1.191   0.362   2.638 -0.1846  0.2918 -1.9203
12187TIP3   OH257975   5.169   6.391   6.512  0.1081  0.2142 -0.2377
12187TIP3    H157976   5.154   6.485   6.498 -0.1649  0.4148  1.2908
12187TIP3    H257977   5.262   6.384   6.532  0.1531  0.1304 -0.4662
12188TIP3   OH257978   4.606   0.355   4.417  0.2361 -0.0322  0.7380
12188TIP3    H157979   4.555   0.421   4.465  1.9880  0.8429  1.4691
12188TIP3    H257980   4.560   0.346   4.334 -1.2371  0.5456  1.4488
12189TIP3   OH257981   1.836   3.811   2.547  0.0722 -0.0940  0.2803
12189TIP3    H157982   1.873   3.723   2.553 -1.0068 -0.5594  0.3304
12189TIP3    H257983   1.784   3.810   2.466  0.7290  0.7774 -0.1786
12190TIP3   OH257984   3.184   0.140   2.960 -0.1348 -0.4131 -0.1957
12190TIP3    H157985   3.203   0.102   3.046  2.2108 -1.4565 -1.0855
12190TIP3    H257986   3.114   0.203   2.977 -0.8016 -1.6619  2.1949
12191TIP3   OH257987   4.038   5.306   5.846  0.2388 -0.8145 -0.1972
12191TIP3    H157988   4.044   5.332   5.938 -1.2647 -0.8207 -0.0593
12191TIP3    H257989   4.119   5.336   5.807  0.2642  0.5345  0.8149
12192TIP3   OH257990   1.924   5.656   4.748  0.2500 -1.0551 -0.1130
12192TIP3    H157991   1.865   5.595   4.703  0.7520 -0.9092 -0.9995
12192TIP3    H257992   1.928   5.732   4.690  0.0288 -0.3829  0.7445
12193TIP3   OH257993   2.539   5.552  15.812  1.0989  0.1776  0.3551
12193TIP3    H157994   2.540   5.518  15.722  0.5233 -0.5754  0.6184
12193TIP3    H257995   2.450   5.535  15.843  0.5442  2.5835  0.2918
12194TIP3   OH257996   5.392   5.646   5.592 -0.0286 -0.4521  0.0299
12194TIP3    H157997   5.383   5.564   5.641 -0.1701  0.0192  0.8081
12194TIP3    H257998   5.354   5.627   5.507 -0.5457 -1.0410  0.3824
12195TIP3   OH257999   3.290   6.569  15.792 -0.3462 -0.5443  0.1058
12195TIP3    H158000   3.373   6.521  15.797  0.7368  1.2856  0.5186
12195TIP3    H258001   3.253   6.545  15.706  0.9429 -0.8662 -0.3790
12196TIP3   OH258002   0.389   5.109  16.552 -0.0968  0.4327 -0.3184
12196TIP3    H158003   0.445   5.176  16.592  2.3408 -2.3227  1.2634
12196TIP3    H258004   0.374   5.045  16.622 -2.2189 -0.7974 -1.7670
12197TIP3   OH258005   4.898   4.178  16.396 -0.3901  0.2461 -0.5076
12197TIP3    H158006   4.917   4.228  16.475 -0.8841 -0.0508 -0.1980
12197TIP3    H258007   4.817   4.132  16.415  1.1384 -2.4442  0.0766
12198TIP3   OH258008   0.438   0.218   1.018 -0.4071 -0.3659 -0.2084
12198TIP3    H158009   0.412   0.153   1.083 -0.3529 -0.4142 -0.2349
12198TIP3    H258010   0.456   0.167   0.939 -1.1500 -0.2486 -0.4691
12199TIP3   OH258011   5.362   0.543  11.667  0.0154 -0.1187 -0.2968
12199TIP3    H158012   5.270   0.570  11.664 -1.3086 -3.9256  0.2426
12199TIP3    H258013   5.378   0.500  11.584  0.3239 -2.0641  0.7132
12200TIP3   OH258014   1.265   6.569  16.063 -0.1760 -0.0296 -0.2090
12200TIP3    H158015   1.304   6.639  16.115 -0.0312  0.2933 -0.7368
12200TIP3    H258016   1.182   6.605  16.032 -0.8179 -0.6406  0.7410
12201TIP3   OH258017   1.895   0.848   4.806  0.0169 -0.0830  0.6284
12201TIP3    H158018   1.945   0.877   4.730  0.4075  1.7285  1.5221
12201TIP3    H258019   1.804   0.845   4.777  0.5103 -3.1093 -0.9337
12202TIP3   OH258020   0.877   0.967  14.062 -0.3082  0.0310 -0.5753
12202TIP3    H158021   0.966   0.932  14.066 -0.4998 -0.4678 -0.6007
12202TIP3    H258022   0.888   1.062  14.071  0.0636 -0.1743  1.5241
12203TIP3   OH258023   1.210   6.410   4.324  0.4562 -0.2261  0.1761
12203TIP3    H158024   1.146   6.461   4.373  0.4132  1.4915 -1.5345
12203TIP3    H258025   1.279   6.472   4.302  1.7757 -1.5805  0.3116
12204TIP3   OH258026   4.366   4.457   2.923  0.0891  0.0019 -0.4090
12204TIP3    H158027   4.459   4.445   2.908  0.3051 -2.0840  1.9005
12204TIP3    H258028   4.359   4.536   2.976  0.6473 -0.2542  0.0518
12205TIP3   OH258029   2.067   3.343   4.949  0.3388 -0.2040 -0.0968
12205TIP3    H158030   2.076   3.426   4.902  0.3493 -1.3702 -2.2843
12205TIP3    H258031   2.047   3.368   5.039 -2.6992  2.1720 -1.2657
12206TIP3   OH258032   1.993   6.387   2.064 -0.1521  0.1304  0.1017
12206TIP3    H158033   2.011   6.309   2.012 -0.8292 -2.0398  2.9030
12206TIP3    H258034   2.079   6.426   2.080  0.4184 -1.1527  0.2604
12207TIP3   OH258035   6.084   4.238   2.768  0.0870 -0.0917 -0.1697
12207TIP3    H158036   6.167   4.261   2.810  0.0093 -2.1811  1.2517
12207TIP3    H258037   6.068   4.148   2.794 -2.2431 -0.0124 -1.1113
12208TIP3   OH258038   3.078   6.263   5.520 -0.2206 -0.1417 -0.3649
12208TIP3    H158039   2.990   6.299   5.520 -1.3021 -2.0867  3.9203
12208TIP3    H258040   3.135   6.338   5.539 -1.1188  0.8795 -1.5882
12209TIP3   OH258041   6.117   2.492   3.834 -0.2694  0.5700  0.1691
12209TIP3    H158042   6.161   2.410   3.813 -0.6793  0.5702 -0.7751
12209TIP3    H258043   6.106   2.491   3.929  0.2777 -0.1805  0.2305
12210TIP3   OH258044   4.944   1.362  10.594 -0.5232  0.1941 -0.5961
12210TIP3    H158045   5.008   1.434  10.585 -1.4448  1.1017 -0.1407
12210TIP3    H258046   4.983   1.289  10.546  1.0953  0.5561  0.0808
12211TIP3   OH258047   6.493   5.391  10.856 -0.0089  0.1423 -0.7360
12211TIP3    H158048   6.461   5.303  10.835 -2.7847  0.3699  1.7918
12211TIP3    H258049   6.423   5.430  10.909  2.1177  3.0444  0.2196
12212TIP3   OH258050   1.671   5.427   2.860 -0.0872 -0.3473  0.0727
12212TIP3    H158051   1.754   5.404   2.900 -0.4708  1.1601  1.8809
12212TIP3    H258052   1.632   5.343   2.835  1.0363 -1.2169  1.1315
12213TIP3   OH258053   2.285   0.440  15.169 -0.0544  0.6027  0.5379
12213TIP3    H158054   2.274   0.462  15.077 -1.7038 -1.4193  0.1732
12213TIP3    H258055   2.379   0.449  15.185  0.0652  2.3721 -0.9346
12214TIP3   OH258056   4.625   2.146  12.056 -0.0825  0.3467  0.0252
12214TIP3    H158057   4.638   2.240  12.041 -0.1027  0.1607 -1.3586
12214TIP3    H258058   4.663   2.104  11.978  0.5784 -0.8468  0.9583
12215TIP3   OH258059   1.821   2.060   0.517  0.3404  0.1027  0.1836
12215TIP3    H158060   1.802   2.023   0.603  0.1907 -0.2982 -0.0189
12215TIP3    H258061   1.792   2.151   0.523 -1.2999 -0.3854  0.0024
12216TIP3   OH258062   6.439   4.965  13.181 -0.2435  0.8478 -0.0918
12216TIP3    H158063   6.521   4.983  13.137  1.2519 -1.0151  1.7212
12216TIP3    H258064   6.406   5.051  13.207  2.1318  1.5778  0.7888
12217TIP3   OH258065   0.642   0.193  16.877 -0.0382  0.0128 -0.1472
12217TIP3    H158066   0.667   0.160  16.964  1.6279  0.2358 -0.4979
12217TIP3    H258067   0.621   0.114  16.827 -0.0822 -0.1948  0.1977
12218TIP3   OH258068   4.370   5.508  16.247  0.0964  0.6626 -0.6359
12218TIP3    H158069   4.406   5.420  16.236 -1.0137  0.4141 -2.7548
12218TIP3    H258070   4.283   5.493  16.286  1.3176  1.1359  2.5915
12219TIP3   OH258071   2.132   4.300  12.459 -0.5720  0.1719  0.5333
12219TIP3    H158072   2.119   4.394  12.446  0.5728  0.6943  2.7095
12219TIP3    H258073   2.216   4.281  12.417 -1.8070 -0.4101 -1.8424
12220TIP3   OH258074   5.119   1.693   1.917  0.3284 -0.1185 -0.0618
12220TIP3    H158075   5.095   1.738   1.836 -0.6366  2.4876  1.5349
12220TIP3    H258076   5.036   1.665   1.954  0.6787 -0.5084  0.4310
12221TIP3   OH258077   0.128   0.686   6.175  0.6036  0.1429 -0.1440
12221TIP3    H158078   0.161   0.756   6.231  1.2767 -0.4082  0.1687
12221TIP3    H258079   0.204   0.629   6.162  0.3300  0.0080 -1.2282
12222TIP3   OH258080   1.890   3.203   3.795  0.4007 -0.2732  0.3626
12222TIP3    H158081   1.838   3.191   3.874 -0.5732 -1.4265 -0.4345
12222TIP3    H258082   1.829   3.189   3.723  1.0734  1.5766 -0.6291
12223TIP3   OH258083   2.294   5.066   2.943  0.2870  0.2614 -0.4859
12223TIP3    H158084   2.376   5.103   2.975  0.6655 -0.9905  0.0634
12223TIP3    H258085   2.254   5.026   3.020  0.4293 -1.3711 -1.1993
12224TIP3   OH258086   0.298   6.147  16.868 -0.0808  0.2604 -0.0697
12224TIP3    H158087   0.267   6.210  16.933 -0.0061 -1.1689  1.4097
12224TIP3    H258088   0.267   6.062  16.900  2.2468 -0.8192 -0.4242
12225TIP3   OH258089   2.421   3.950   5.811  0.0256  0.3224  0.3656
12225TIP3    H158090   2.402   3.908   5.727 -0.4833  0.4502  0.4123
12225TIP3    H258091   2.335   3.960   5.853  0.2971  0.0429  1.0060
12226TIP3   OH258092   2.925   2.779   0.253 -0.2040  0.5395 -0.1800
12226TIP3    H158093   2.938   2.874   0.260 -0.4369  0.7179 -1.7463
12226TIP3    H258094   3.010   2.741   0.275  0.2333  1.1811 -0.7266
12227TIP3   OH258095   0.814   1.682  15.998  0.3442  0.0819  0.0248
12227TIP3    H158096   0.794   1.592  16.026 -1.7470  0.7178  0.7812
12227TIP3    H258097   0.751   1.736  16.046  2.9861  2.2350  1.3352
12228TIP3   OH258098   4.507   6.603   5.664 -0.4778  0.0859 -0.2563
12228TIP3    H158099   4.436   6.595   5.728  1.0893 -0.2689  1.5540
12228TIP3    H258100   4.564   6.529   5.684  0.2067  0.1242 -1.9406
12229TIP3   OH258101   0.203   0.853  12.882 -0.5632  0.0517  0.7030
12229TIP3    H158102   0.126   0.888  12.838  0.9958  1.6536 -0.9420
12229TIP3    H258103   0.213   0.907  12.960 -0.8048  0.1905  0.6376
12230TIP3   OH258104   4.876   6.017   6.112 -0.4374 -0.6053  0.3181
12230TIP3    H158105   4.908   6.071   6.184  1.0286 -0.5079 -0.3786
12230TIP3    H258106   4.884   6.073   6.034  0.8264 -1.6756 -0.3638
12231TIP3   OH258107   6.460   0.685  15.893  0.1160  0.4222 -0.6937
12231TIP3    H158108   6.525   0.751  15.871  0.2816  0.3800 -0.3405
12231TIP3    H258109   6.497   0.638  15.968  0.1289 -0.2630 -1.1201
12232TIP3   OH258110   4.435   1.685  12.203 -0.3921 -0.4271  0.0676
12232TIP3    H158111   4.407   1.611  12.149  0.7828 -1.5581  0.9547
12232TIP3    H258112   4.508   1.723  12.155  1.5662 -2.2778  1.4138
12233TIP3   OH258113   0.823   0.258  15.849 -0.3084  0.3792 -0.0711
12233TIP3    H158114   0.889   0.208  15.896  0.2765 -0.4278 -1.6508
12233TIP3    H258115   0.801   0.331  15.907  1.5902  0.3750  0.7265
12234TIP3   OH258116   2.001   5.066  16.233  0.6275  0.1985  0.0431
12234TIP3    H158117   1.923   5.077  16.179  0.5361 -0.6461 -0.0171
12234TIP3    H258118   2.068   5.032  16.173  0.5269 -0.7452  0.4407
12235TIP3   OH258119   4.442   3.369   4.622  0.2834  0.0507  0.0568
12235TIP3    H158120   4.397   3.289   4.649  0.1245  0.8574  2.3918
12235TIP3    H258121   4.517   3.374   4.681 -0.5115  2.3480  0.9556
12236TIP3   OH258122   5.951   1.299   0.585 -0.0026 -0.5269  0.0957
12236TIP3    H158123   6.043   1.279   0.605 -0.3540 -0.3348  2.1162
12236TIP3    H258124   5.938   1.387   0.620 -1.0417 -0.6840  0.1121
12237TIP3   OH258125   6.162   2.586   0.707 -0.4494  0.6668  0.1285
12237TIP3    H158126   6.142   2.549   0.621  0.9954 -0.1810  0.1245
12237TIP3    H258127   6.145   2.680   0.698  0.4115  0.7031 -1.3228
12238TIP3   OH258128   1.672   0.636   6.779 -0.1148 -0.0576 -0.0258
12238TIP3    H158129   1.689   0.544   6.763 -0.2370  0.0460 -0.8023
12238TIP3    H258130   1.748   0.667   6.827 -0.2840 -0.6613  0.6429
12239TIP3   OH258131   4.398   1.060  17.033 -0.0981 -0.1455  0.1507
12239TIP3    H158132   4.322   1.003  17.044 -0.0489 -0.3470 -0.5031
12239TIP3    H258133   4.375   1.117  16.960  0.1433  0.1819  0.3267
12240TIP3   OH258134   0.552   5.796  13.216  0.3184  0.2971 -0.1252
12240TIP3    H158135   0.569   5.871  13.273  2.4651 -1.0576  1.1034
12240TIP3    H258136   0.459   5.778  13.228  0.4972  0.6629  2.2064
12241TIP3   OH258137   0.195   4.632  13.398 -0.2370  0.0611  0.0208
12241TIP3    H158138   0.245   4.564  13.353  0.6963  0.4098  0.4977
12241TIP3    H258139   0.119   4.586  13.434 -0.7732 -0.3016 -1.5036
12242TIP3   OH258140   0.511   6.534   6.184 -0.4455 -0.3121 -0.2369
12242TIP3    H158141   0.420   6.563   6.191 -0.0938  1.0694 -0.9443
12242TIP3    H258142   0.556   6.578   6.256 -0.0871  0.1670 -0.7401
12243TIP3   OH258143   2.643   4.884   0.115  0.1574 -0.4875  0.2654
12243TIP3    H158144   2.606   4.966   0.148 -1.0245 -1.4350  1.4433
12243TIP3    H258145   2.635   4.890   0.020  1.0582  1.1748  0.2623
12244TIP3   OH258146   5.348   6.597  15.960  0.4395  0.8149 -0.3338
12244TIP3    H158147   5.420   6.585  15.899  0.1490 -2.0210 -0.2727
12244TIP3    H258148   5.390   6.622  16.042  1.4253 -0.8155 -0.2922
12245TIP3   OH258149   1.789   1.065   1.588  0.3712 -0.5187  0.3256
12245TIP3    H158150   1.731   1.015   1.646  0.1181 -0.4091  0.1663
12245TIP3    H258151   1.787   1.154   1.622 -0.3114 -0.3066 -0.2582
12246TIP3   OH258152   5.454   0.147   4.402 -0.0020 -0.0615 -0.5874
12246TIP3    H158153   5.544   0.113   4.408  0.0304  0.2255  3.4636
12246TIP3    H258154   5.459   0.217   4.337  2.1534 -1.4237 -2.0455
12247TIP3   OH258155   4.785   2.536  13.484 -0.3384 -0.3631 -0.5934
12247TIP3    H158156   4.836   2.585  13.420 -1.1375  0.8796 -0.3100
12247TIP3    H258157   4.719   2.490  13.432 -1.3357  1.0788 -0.6524
12248TIP3   OH258158   6.166   6.523   0.114 -0.5082 -0.1869 -0.0629
12248TIP3    H158159   6.090   6.523   0.173 -1.3075  2.0826 -0.9509
12248TIP3    H258160   6.218   6.598   0.143 -0.2953  0.2250 -1.4625
12249TIP3   OH258161   2.683   5.652   0.449  0.0751 -0.7726  0.0605
12249TIP3    H158162   2.684   5.673   0.356  1.7342 -1.7136 -0.1823
12249TIP3    H258163   2.776   5.641   0.472 -0.1832  0.8941  2.1812
12250TIP3   OH258164   4.757   4.741   1.000 -0.1381 -0.3389  0.1076
12250TIP3    H158165   4.810   4.683   0.946 -1.2812 -0.8208 -0.5443
12250TIP3    H258166   4.811   4.819   1.013 -0.3097  0.4302 -2.9617
12251TIP3   OH258167   0.216   1.892   2.460 -0.3191 -0.2961 -0.6806
12251TIP3    H158168   0.283   1.861   2.399 -0.8155 -1.0825 -0.8378
12251TIP3    H258169   0.206   1.821   2.523 -0.6892  0.0024 -0.4001
12252TIP3   OH258170   4.747   3.140   0.067  0.7779  0.0839  0.2884
12252TIP3    H158171   4.661   3.183   0.068  1.3987  1.4475  2.2069
12252TIP3    H258172   4.790   3.174  -0.011 -0.0232  0.2282 -0.0995
12253TIP3   OH258173   5.790   2.592  13.658  0.6882  0.6257  0.6450
12253TIP3    H158174   5.739   2.559  13.732  2.1226 -0.6942  1.0939
12253TIP3    H258175   5.725   2.613  13.591 -0.4264 -1.9907  0.7990
12254TIP3   OH258176   5.301   3.068   3.824 -0.3895 -0.4408  0.1330
12254TIP3    H158177   5.297   3.088   3.918 -0.7028 -1.2966  0.3126
12254TIP3    H258178   5.393   3.053   3.807 -0.1694  0.9105  0.0332
12255TIP3   OH258179   2.827   2.076  11.482  0.7507 -0.1311  0.1080
12255TIP3    H158180   2.837   2.106  11.392 -1.0107 -0.6743 -0.3160
12255TIP3    H258181   2.830   2.155  11.535 -0.5057  0.4732 -0.6720
12256TIP3   OH258182   2.378   5.338   1.454  0.6243  0.0991 -0.1992
12256TIP3    H158183   2.354   5.249   1.428  1.0338  0.0092 -0.2916
12256TIP3    H258184   2.360   5.341   1.548  1.1069 -0.2604 -0.0885
12257TIP3   OH258185   2.308   3.064  15.653 -0.0510  0.4580  0.1020
12257TIP3    H158186   2.366   3.083  15.728 -0.5006  2.2261  0.0360
12257TIP3    H258187   2.240   3.130  15.658 -0.1495  0.5599 -1.8386
12258TIP3   OH258188   0.865   5.339   4.465 -0.6152 -0.7066  0.1411
12258TIP3    H158189   0.810   5.350   4.388 -1.2539  0.7226  0.7683
12258TIP3    H258190   0.811   5.292   4.528  0.2264 -2.7414 -0.5588
12259TIP3   OH258191   3.497   2.061  12.894  0.2021  0.2333  0.0298
12259TIP3    H158192   3.581   2.100  12.919  0.3716 -0.6826  0.9639
12259TIP3    H258193   3.472   2.007  12.969 -1.6731  1.1704  0.1482
12260TIP3   OH258194   1.225   2.905  16.516  0.2339  0.9890  0.4886
12260TIP3    H158195   1.317   2.923  16.534  0.7168 -0.2724 -0.5296
12260TIP3    H258196   1.185   2.991  16.503  1.9479  1.4770 -2.1889
12261TIP3   OH258197   2.641   5.302   4.783  0.5194  0.0878  0.3644
12261TIP3    H158198   2.637   5.246   4.861 -1.2776  1.6388  1.4647
12261TIP3    H258199   2.591   5.254   4.717 -0.3355 -0.0031  1.0476
12262TIP3   OH258200   4.942   5.466  14.722 -0.5570 -0.5687  0.7851
12262TIP3    H158201   4.977   5.376  14.720  1.1747  0.0620 -0.9455
12262TIP3    H258202   4.863   5.462  14.668  0.2225 -0.8441 -0.3859
12263TIP3   OH258203   2.583   0.648  12.517 -0.0998  0.4640 -0.0094
12263TIP3    H158204   2.627   0.715  12.465 -1.9157  1.7951  0.0489
12263TIP3    H258205   2.653   0.590  12.546  1.2949  1.1691 -1.7520
12264TIP3   OH258206   5.051   1.116  11.905  0.5068  0.0285  0.1856
12264TIP3    H158207   5.055   1.079  11.817  0.3540 -0.1203  0.2423
12264TIP3    H258208   5.011   1.048  11.958  2.1016 -0.5492  0.7202
12265TIP3   OH258209   6.429   2.983  14.083  0.1106 -0.1188 -0.6294
12265TIP3    H158210   6.368   3.035  14.030 -2.6363 -0.4729  1.8746
12265TIP3    H258211   6.414   3.014  14.173  1.9803 -1.8797  0.3646
12266TIP3   OH258212   6.684   0.888   4.276 -0.0359 -0.2776 -0.1111
12266TIP3    H158213   6.588   0.878   4.276 -0.0338 -0.2912  0.1139
12266TIP3    H258214   6.707   0.888   4.183 -0.2496 -0.3253 -0.1659
12267TIP3   OH258215   5.987   0.243  12.815 -0.1776 -0.7395 -0.6206
12267TIP3    H158216   6.002   0.222  12.907  0.0269 -3.0137 -1.1185
12267TIP3    H258217   5.893   0.230  12.803 -0.4528  0.8797 -0.4647
12268TIP3   OH258218   6.152   0.298   5.230 -0.4388 -0.0779 -0.0018
12268TIP3    H158219   6.210   0.248   5.287 -0.5254 -0.3684 -0.1651
12268TIP3    H258220   6.064   0.272   5.257 -0.4918  0.2814  0.1740
12269TIP3   OH258221   0.486   3.399   1.868  0.3035  0.4710 -0.1427
12269TIP3    H158222   0.436   3.409   1.949  1.1816 -2.0167  0.8095
12269TIP3    H258223   0.573   3.371   1.897  0.6578 -0.4232 -1.9172
12270TIP3   OH258224   1.541   2.338   3.527  0.0029  0.4015  0.1027
12270TIP3    H158225   1.622   2.364   3.483 -0.3735  0.1194 -0.7869
12270TIP3    H258226   1.535   2.244   3.511 -0.6003  0.4551 -0.0052
12271TIP3   OH258227   5.528   4.920  13.781 -0.0483 -0.1841 -0.5522
12271TIP3    H158228   5.564   4.869  13.708 -0.0406  0.2530 -0.8589
12271TIP3    H258229   5.445   4.877  13.802 -0.8632  0.6528 -1.9105
12272TIP3   OH258230   6.171   5.145  16.829 -0.6223 -0.4622  0.2942
12272TIP3    H158231   6.092   5.193  16.807 -0.0502 -0.0885 -1.1160
12272TIP3    H258232   6.168   5.133  16.924 -2.5487 -0.8148  0.2229
12273TIP3   OH258233   4.638   0.430   2.049 -0.0805 -0.6852 -0.4966
12273TIP3    H158234   4.548   0.462   2.047 -1.2000 -3.0442  2.7003
12273TIP3    H258235   4.681   0.485   2.115  0.1776 -0.9011 -0.4816
12274TIP3   OH258236   0.538   2.734  14.937 -0.1679 -0.2140 -0.5850
12274TIP3    H158237   0.500   2.672  14.875  0.1365  0.0780 -1.0663
12274TIP3    H258238   0.576   2.803  14.883 -0.5678  0.4372 -0.0642
12275TIP3   OH258239   5.358   5.129  16.633 -0.0630  0.2586 -0.4450
12275TIP3    H158240   5.402   5.052  16.668  3.2873  1.2140 -2.1241
12275TIP3    H258241   5.276   5.095  16.596  0.1247 -2.0129  1.0129
12276TIP3   OH258242   2.812   4.462   3.026 -0.1223 -0.7302  0.3291
12276TIP3    H158243   2.775   4.487   2.942  0.8427 -2.5083 -0.6916
12276TIP3    H258244   2.746   4.486   3.091 -2.1691 -1.9232 -1.2131
12277TIP3   OH258245   3.823   4.783  12.362 -0.7287  0.1950 -0.2643
12277TIP3    H158246   3.848   4.692  12.376 -0.9004  0.3612  1.3330
12277TIP3    H258247   3.742   4.779  12.310 -3.4670 -0.8783  3.6127
12278TIP3   OH258248   0.753   6.187   1.429  0.1058 -0.0521  0.3469
12278TIP3    H158249   0.726   6.100   1.460 -1.9112  0.9707  1.7298
12278TIP3    H258250   0.675   6.222   1.386  1.3424  0.5638 -1.4883
12279TIP3   OH258251   0.218   5.004   3.296  0.1422 -0.1734 -0.3343
12279TIP3    H158252   0.238   4.919   3.336 -1.2436 -0.3011  0.1584
12279TIP3    H258253   0.269   5.005   3.215  0.4035 -1.3550 -0.2084
12280TIP3   OH258254   5.244   2.214  12.164 -0.2235 -0.2317  0.1229
12280TIP3    H158255   5.214   2.189  12.077  0.2055 -1.6276  0.3517
12280TIP3    H258256   5.330   2.172  12.173 -0.2493 -0.0819  1.1996
12281TIP3   OH258257   3.762   5.549  13.551  0.7045  0.3172 -0.4200
12281TIP3    H158258   3.827   5.479  13.554 -0.4898 -0.9521 -1.8738
12281TIP3    H258259   3.810   5.627  13.526  2.3656  0.4990  2.7713
12282TIP3   OH258260   2.384   5.859   2.571  0.4761  0.3323  0.5048
12282TIP3    H158261   2.322   5.848   2.643 -2.3554  0.6839 -1.6852
12282TIP3    H258262   2.363   5.787   2.511  0.3632  1.9332 -1.4797
12283TIP3   OH258263   2.072   6.063  14.590  0.1861 -0.3966 -0.2675
12283TIP3    H158264   2.075   6.129  14.659 -1.1000 -1.8321  1.2527
12283TIP3    H258265   2.157   6.019  14.594  0.0346 -0.6226  0.5766
12284TIP3   OH258266   1.203   3.776  16.958 -0.0348  0.6005  0.0326
12284TIP3    H158267   1.150   3.798  16.881  0.1644 -0.5081 -0.4477
12284TIP3    H258268   1.196   3.680  16.965  1.5194  0.4833  0.2473
12285TIP3   OH258269   3.060   2.582   4.788 -0.0705 -0.6743 -0.4389
12285TIP3    H158270   3.096   2.543   4.709  1.9986  2.8786 -1.4841
12285TIP3    H258271   3.008   2.656   4.757 -1.7903 -1.0125  1.4523
12286TIP3   OH258272   6.303   2.719  17.107  0.6757 -0.2218 -0.5774
12286TIP3    H158273   6.267   2.808  17.108  1.2003 -0.0035  0.3303
12286TIP3    H258274   6.358   2.717  17.028  0.4077  0.1581 -0.7777
12287TIP3   OH258275   5.667   2.447  12.822 -0.1486  0.2813  0.0469
12287TIP3    H158276   5.750   2.453  12.869  0.9952  0.5998 -1.9026
12287TIP3    H258277   5.663   2.356  12.793 -0.7900  0.1164  0.6225
12288TIP3   OH258278   1.209   2.690   6.054 -0.3116 -0.1083 -0.0873
12288TIP3    H158279   1.134   2.744   6.080 -0.1513  0.8689 -1.5575
12288TIP3    H258280   1.274   2.706   6.122 -0.7932  0.4443  0.2556
12289TIP3   OH258281   4.293   0.613  12.705  0.2281 -0.0020  0.0492
12289TIP3    H158282   4.367   0.558  12.677  0.3130 -0.1465  0.5328
12289TIP3    H258283   4.326   0.657  12.784 -1.0691 -2.1197  1.8941
12290TIP3   OH258284   5.219   3.281  11.229 -0.2970  0.4860  0.5531
12290TIP3    H158285   5.131   3.249  11.210  0.4150 -0.9504 -0.5351
12290TIP3    H258286   5.269   3.202  11.251  0.7137  1.2780  1.2065
12291TIP3   OH258287   6.277   5.666  15.906 -0.2339 -0.1302  0.0277
12291TIP3    H158288   6.217   5.595  15.881 -2.2854  1.1065  1.1257
12291TIP3    H258289   6.220   5.731  15.947  1.6616  1.8978 -0.4027
12292TIP3   OH258290   5.217   5.135   5.407  0.0863 -0.5564  0.5694
12292TIP3    H158291   5.178   5.183   5.334  0.5492  0.7817  1.1768
12292TIP3    H258292   5.184   5.045   5.397 -1.2852  0.0080 -0.2454
12293TIP3   OH258293   6.395   6.243   0.660  0.4816  0.7506 -0.1481
12293TIP3    H158294   6.316   6.202   0.625 -0.8618  0.3683  3.0094
12293TIP3    H258295   6.438   6.174   0.710  1.5168  1.5781  0.1437
12294TIP3   OH258296   2.889   5.795   2.996 -0.8178 -0.4107 -0.4974
12294TIP3    H158297   2.909   5.888   3.010 -1.0344 -0.3327 -0.7132
12294TIP3    H258298   2.916   5.778   2.906 -1.7388 -0.3008 -0.8021
12295TIP3   OH258299   5.951   5.401   1.558  0.1371  0.3613  0.5800
12295TIP3    H158300   5.862   5.395   1.594  0.1841  2.2401  1.1039
12295TIP3    H258301   6.006   5.422   1.634  0.9296 -0.0235  0.1256
12296TIP3   OH258302   0.506   3.184   3.302 -0.1766  0.3913 -0.0964
12296TIP3    H158303   0.459   3.228   3.372  0.1615  1.3727 -0.4695
12296TIP3    H258304   0.511   3.248   3.232  0.0723 -0.3463 -0.7742
12297TIP3   OH258305   3.485   4.293  17.157 -0.4273 -0.4458  0.5251
12297TIP3    H158306   3.469   4.387  17.163  0.9802  0.0725 -2.0471
12297TIP3    H258307   3.495   4.264  17.248 -1.6595  1.7020  1.4246
12298TIP3   OH258308   5.170   1.176  14.827 -0.1953 -0.6050  0.1199
12298TIP3    H158309   5.163   1.224  14.745 -0.2142 -0.1341  0.3892
12298TIP3    H258310   5.088   1.126  14.833 -1.1640  0.9999  0.8564
12299TIP3   OH258311   4.287   0.909   1.694  0.4325 -0.0046  0.3045
12299TIP3    H158312   4.350   0.920   1.623 -1.1798  1.5600 -0.9789
12299TIP3    H258313   4.236   0.832   1.668  1.1375 -0.6615  0.8311
12300TIP3   OH258314   3.725   1.010  14.675 -0.5712 -0.0394  0.6295
12300TIP3    H158315   3.755   1.074  14.610  0.5439 -0.4884  0.6897
12300TIP3    H258316   3.633   0.994  14.651 -0.3549  0.2521 -0.4600
12301TIP3   OH258317   2.681   1.963   4.717  0.3523  0.3723 -0.3703
12301TIP3    H158318   2.739   1.890   4.739 -0.5958 -0.4948 -0.6986
12301TIP3    H258319   2.652   1.944   4.628  1.1623  1.8719 -0.9965
12302TIP3   OH258320   2.691   0.767   4.864 -0.6646  0.3132 -1.1139
12302TIP3    H158321   2.728   0.847   4.901 -2.2549 -0.1984  1.8996
12302TIP3    H258322   2.670   0.790   4.773 -0.9210  3.2850 -0.4123
12303TIP3   OH258323   2.061   3.925  15.600 -0.3044  0.2590  0.5453
12303TIP3    H158324   2.129   3.992  15.592  0.4505 -0.3078  1.7434
12303TIP3    H258325   2.110   3.845  15.620 -1.3184 -0.1752  1.3946
12304TIP3   OH258326   5.080   3.525  10.756 -0.5209  0.0533  0.0448
12304TIP3    H158327   5.080   3.432  10.732 -0.1906  0.2404 -0.7217
12304TIP3    H258328   5.007   3.534  10.818 -0.8390 -0.6227 -0.2182
12305TIP3   OH258329   6.034   6.205   1.533  0.0537 -0.3446  0.3695
12305TIP3    H158330   6.005   6.296   1.544  0.8776 -0.0324  0.0845
12305TIP3    H258331   6.051   6.174   1.622  0.5289  0.0512  0.4243
12306TIP3   OH258332   5.124   1.023  16.193 -0.5575 -0.3531  0.7565
12306TIP3    H158333   5.129   0.998  16.285  0.9380  0.1003  0.8167
12306TIP3    H258334   5.193   0.973  16.150 -0.9266 -0.1993 -0.0343
12307TIP3   OH258335   2.734   6.642   6.714 -0.0124  0.2786 -0.0341
12307TIP3    H158336   2.821   6.650   6.754  0.0510  1.8244 -0.4218
12307TIP3    H258337   2.689   6.576   6.767  1.7867 -1.5035 -0.5737
12308TIP3   OH258338   6.385   6.563   4.134 -0.3365  0.2094 -0.3508
12308TIP3    H158339   6.478   6.545   4.127 -0.3760  0.4059 -1.9265
12308TIP3    H258340   6.360   6.593   4.046 -1.7259  0.8723  0.2339
12309TIP3   OH258341   3.630   3.888  15.259 -0.4192 -0.5460  0.1327
12309TIP3    H158342   3.557   3.827  15.257 -1.5054  0.6650  1.1942
12309TIP3    H258343   3.684   3.859  15.334 -1.1842  0.0480  0.9309
12310TIP3   OH258344   3.454   5.033  12.344 -0.5012  0.0688  0.3659
12310TIP3    H158345   3.376   5.034  12.288 -0.7622  0.5098  0.7311
12310TIP3    H258346   3.454   5.119  12.386  0.7131  0.4401 -0.3562
12311TIP3   OH258347   4.159   0.220  14.744 -1.1560  0.1571 -0.0457
12311TIP3    H158348   4.163   0.313  14.720 -2.5911 -0.2179 -2.0763
12311TIP3    H258349   4.240   0.182  14.709 -1.7110  0.2388 -1.5016
12312TIP3   OH258350   0.930   4.879  11.377  0.8409 -0.6389 -0.4621
12312TIP3    H158351   0.865   4.906  11.311  0.8689  1.4167  0.2799
12312TIP3    H258352   0.880   4.825  11.438  0.2276 -0.4901 -0.8185
12313TIP3   OH258353   0.692   3.229  13.921  0.2013  0.4519 -0.3360
12313TIP3    H158354   0.668   3.155  13.866  0.2049  0.2860 -0.1153
12313TIP3    H258355   0.745   3.286  13.865  0.7049 -0.0056 -0.3288
12314TIP3   OH258356   2.560   1.333   1.909  0.1669 -0.6587  0.2632
12314TIP3    H158357   2.582   1.411   1.960 -2.1480  0.5320 -0.4358
12314TIP3    H258358   2.636   1.319   1.852  0.6251  1.1073  0.3789
12315TIP3   OH258359   3.033   2.866  12.074 -0.3372  0.0339 -0.6677
12315TIP3    H158360   3.109   2.863  12.015  0.2369 -3.0325  0.0831
12315TIP3    H258361   3.071   2.871  12.162 -1.1211  1.3314 -0.3811
12316TIP3   OH258362   6.016   2.064  15.570  0.2042 -0.1741  0.3089
12316TIP3    H158363   6.036   2.012  15.648 -0.0072 -0.9391 -0.1295
12316TIP3    H258364   6.093   2.054  15.514 -1.4748 -3.7434 -1.7067
12317TIP3   OH258365   1.967   4.970   0.627 -0.9705 -0.8554  0.0636
12317TIP3    H158366   1.910   4.894   0.638  0.2051 -1.7388  0.1744
12317TIP3    H258367   2.051   4.943   0.664 -0.8109  0.8592  1.0607
12318TIP3   OH258368   2.611   6.467   4.348  0.4934  0.4664 -0.0354
12318TIP3    H158369   2.548   6.423   4.404  0.9791 -0.3007 -0.0712
12318TIP3    H258370   2.607   6.559   4.374  0.5029  0.1717  1.0569
12319TIP3   OH258371   2.098   5.144   5.510  0.4235 -0.4924 -0.0966
12319TIP3    H158372   2.125   5.154   5.419  0.0793  0.3993 -0.1105
12319TIP3    H258373   2.003   5.134   5.506 -0.4386  4.6602  0.3655
12320TIP3   OH258374   5.951   4.648  13.975 -0.0779  0.4891  0.3040
12320TIP3    H158375   5.953   4.634  14.070  1.6677 -0.1304  0.2241
12320TIP3    H258376   5.980   4.738  13.964 -0.1118  0.5077  0.3656
12321TIP3   OH258377   5.070   3.869   3.329 -0.0569  0.6633  0.3737
12321TIP3    H158378   5.096   3.869   3.421  1.2721 -0.1648  0.0238
12321TIP3    H258379   5.083   3.959   3.300 -0.7514  0.9964  1.0489
12322TIP3   OH258380   6.582   4.515  13.241 -0.1475 -0.2480 -0.4553
12322TIP3    H158381   6.622   4.518  13.154 -0.2645 -0.5806 -0.5201
12322TIP3    H258382   6.524   4.591  13.244  1.5127  1.0580  0.1305
12323TIP3   OH258383   0.814   0.605   5.745  0.5708 -0.2449  0.8132
12323TIP3    H158384   0.902   0.639   5.756 -0.0251  1.7923 -0.1412
12323TIP3    H258385   0.825   0.529   5.687  1.6781  0.1692  0.4499
12324TIP3   OH258386   2.978   0.837  13.102 -0.1584  0.5240 -0.7883
12324TIP3    H158387   2.917   0.766  13.082 -0.3218  0.2711  0.4758
12324TIP3    H258388   2.992   0.882  13.019 -1.3472  0.0264 -1.2794
12325TIP3   OH258389   0.874   6.478  12.315 -0.0383 -1.0737  0.0841
12325TIP3    H158390   0.962   6.516  12.323  0.4854 -1.8033 -1.6798
12325TIP3    H258391   0.889   6.384  12.311 -0.6682 -1.1441 -2.1542
12326TIP3   OH258392   4.909   0.569   4.703 -0.8131 -0.9837 -0.6302
12326TIP3    H158393   4.830   0.622   4.702  0.5224  1.1985  0.7312
12326TIP3    H258394   4.912   0.531   4.791  1.6848  2.5022  1.0181
12327TIP3   OH258395   5.506   3.543   1.626 -0.2821 -0.3600  0.6146
12327TIP3    H158396   5.593   3.504   1.618 -0.0858 -0.3301  2.3315
12327TIP3    H258397   5.478   3.521   1.715 -1.8327  0.0480  0.2502
12328TIP3   OH258398   2.138   5.887  11.756  0.3475  0.0340  0.0622
12328TIP3    H158399   2.083   5.947  11.705  0.4570  0.4323  0.4055
12328TIP3    H258400   2.204   5.944  11.796  0.9102 -0.4176 -0.2110
12329TIP3   OH258401   1.185   6.592  10.741 -0.7927  0.2931  0.0964
12329TIP3    H158402   1.238   6.517  10.712 -0.6969 -0.9982  3.1766
12329TIP3    H258403   1.246   6.665  10.746 -0.0413 -0.3484  0.4350
12330TIP3   OH258404   4.429   4.199  15.018  0.4185  0.0855  0.4979
12330TIP3    H158405   4.387   4.267  15.071  0.5558  0.8090 -0.3012
12330TIP3    H258406   4.511   4.239  14.989 -0.2730  0.2253 -1.3874
12331TIP3   OH258407   1.937   4.644  14.551  0.3680  0.2325  0.2445
12331TIP3    H158408   1.923   4.662  14.644 -0.5531  0.2407  0.1176
12331TIP3    H258409   2.001   4.573  14.549  1.6039  1.2917  0.8386
12332TIP3   OH258410   5.973   4.076   5.300 -0.0480  0.0719  0.3392
12332TIP3    H158411   5.990   4.084   5.206 -2.0375  0.4906 -0.0309
12332TIP3    H258412   5.879   4.086   5.308 -0.6174 -4.2925  1.9148
12333TIP3   OH258413   3.817   0.435   5.945  0.0348  0.3770 -0.3354
12333TIP3    H158414   3.911   0.440   5.926 -0.0289  0.3710 -0.6642
12333TIP3    H258415   3.806   0.352   5.991 -0.2857 -1.3669 -3.2677
12334TIP3   OH258416   0.571   2.121  11.944  0.3287 -0.1323 -0.2777
12334TIP3    H158417   0.483   2.152  11.967  0.4799 -0.2492  0.4706
12334TIP3    H258418   0.594   2.172  11.867 -0.2178  0.2184 -0.2194
12335TIP3   OH258419   1.118   3.928   1.303 -0.8541 -0.3982  0.3931
12335TIP3    H158420   1.117   3.978   1.384 -0.4815 -0.8167  0.6634
12335TIP3    H258421   1.050   3.968   1.249 -0.9672  0.0115  0.8327
12336TIP3   OH258422   1.209   6.089  15.800 -0.3686  0.0532  0.1513
12336TIP3    H158423   1.203   6.039  15.881 -0.9518  0.2207  0.2205
12336TIP3    H258424   1.301   6.113  15.793 -0.2936 -0.0585  0.7070
12337TIP3   OH258425   4.551   0.985   1.646 -0.5265  0.5744  0.8096
12337TIP3    H158426   4.581   0.933   1.572 -2.0069  0.1904  0.4488
12337TIP3    H258427   4.590   0.942   1.723 -1.1978 -0.6965  0.4691
12338TIP3   OH258428   3.808   0.518   5.478 -0.9364  0.0500 -0.5780
12338TIP3    H158429   3.820   0.448   5.543 -0.0690 -0.2055 -0.9926
12338TIP3    H258430   3.836   0.478   5.395 -0.4683  0.8807 -0.8281
12339TIP3   OH258431   0.135   2.616  11.966 -0.1286 -0.1908 -0.4850
12339TIP3    H158432   0.094   2.676  12.028  0.8159  0.7624 -0.7603
12339TIP3    H258433   0.211   2.581  12.013  0.6819  0.6553 -1.1425
12340TIP3   OH258434   6.243   2.077   4.904 -0.3311  0.0483  0.1207
12340TIP3    H158435   6.265   2.017   4.976 -0.0313 -0.4397 -0.3714
12340TIP3    H258436   6.273   2.032   4.826 -1.4285  0.1810 -0.3985
12341TIP3   OH258437   3.892   6.263   6.225  0.5382 -0.0471 -0.2308
12341TIP3    H158438   3.869   6.170   6.226  2.1012 -0.4479  0.0611
12341TIP3    H258439   3.813   6.307   6.258  0.7820 -1.5499  2.7485
12342TIP3   OH258440   6.342   1.173   3.299 -0.1219  0.0696 -0.4015
12342TIP3    H158441   6.413   1.172   3.234 -1.4952  3.1389 -2.1965
12342TIP3    H258442   6.363   1.247   3.355 -1.6148  0.7335 -0.6796
12343TIP3   OH258443   0.902   0.005  15.399  0.2912 -0.5029 -0.5841
12343TIP3    H158444   0.916  -0.083  15.435 -1.5405  0.6214  3.4957
12343TIP3    H258445   0.975   0.057  15.433 -0.4355  0.2098 -0.0764
12344TIP3   OH258446   2.370   1.861  15.953  0.4119  0.2453  0.6823
12344TIP3    H158447   2.330   1.896  16.032  0.1701 -0.3457  0.8231
12344TIP3    H258448   2.297   1.842  15.895  0.5988  0.8911  0.2191
12345TIP3   OH258449   2.739   6.266  11.241  0.4554 -0.1723 -0.1602
12345TIP3    H158450   2.720   6.183  11.286  1.6939 -0.5282 -0.2695
12345TIP3    H258451   2.798   6.241  11.169  2.3842  1.0489  0.9334
12346TIP3   OH258452   0.221   6.667   3.177  0.3182 -0.4785 -0.4850
12346TIP3    H158453   0.217   6.760   3.201  1.3985 -0.2349 -1.1675
12346TIP3    H258454   0.187   6.664   3.088  0.7853 -0.6516 -0.6596
12347TIP3   OH258455   6.134   3.307  12.319  0.6266 -0.0652 -0.0336
12347TIP3    H158456   6.055   3.279  12.273 -1.4690  2.9791  1.4131
12347TIP3    H258457   6.198   3.324  12.249 -1.8581  2.6962 -1.8588
12348TIP3   OH258458   1.363   5.720  15.822 -0.3766 -0.4391  0.0212
12348TIP3    H158459   1.324   5.755  15.742 -0.5307 -0.8230 -0.0760
12348TIP3    H258460   1.401   5.636  15.795 -2.6563 -1.8447  0.8472
12349TIP3   OH258461   4.541   3.071  11.098  0.1062 -0.3108 -0.1690
12349TIP3    H158462   4.561   3.084  11.005  1.0458 -2.2188 -0.2782
12349TIP3    H258463   4.606   3.125  11.144  1.2184 -1.2171 -0.6218
12350TIP3   OH258464   3.039   0.372   1.548  0.3079  0.0714  0.1801
12350TIP3    H158465   2.959   0.347   1.502  0.1606 -0.2519  0.6090
12350TIP3    H258466   3.047   0.309   1.619  0.7391  0.3343  0.3689
12351TIP3   OH258467   6.147   3.900   0.120 -0.0378 -0.5356  0.0382
12351TIP3    H158468   6.104   3.815   0.113  0.2234 -0.6141 -0.7770
12351TIP3    H258469   6.100   3.956   0.058  1.7862 -0.9733 -1.8751
12352TIP3   OH258470   1.305   0.946  15.626  0.0767 -0.3893  0.9929
12352TIP3    H158471   1.351   0.971  15.706  0.4940  0.1612  0.5949
12352TIP3    H258472   1.288   0.853  15.636  2.1741 -0.8564  0.7435
12353TIP3   OH258473   2.353   2.370   1.818  1.0411  0.2399  0.2615
12353TIP3    H158474   2.274   2.363   1.764  0.0484  1.8408  1.3852
12353TIP3    H258475   2.402   2.290   1.801 -1.6211 -1.6218  0.7420
12354TIP3   OH258476   3.131   0.408   1.997  0.3333  0.2968 -0.0050
12354TIP3    H158477   3.082   0.342   2.046  0.2702  0.3001 -0.0625
12354TIP3    H258478   3.064   0.465   1.960  0.2985 -0.4390 -1.1339
12355TIP3   OH258479   4.060   1.370  12.029 -0.1478  0.2705  0.4313
12355TIP3    H158480   4.064   1.415  11.944  1.3003 -3.6193 -1.8384
12355TIP3    H258481   3.967   1.347  12.040 -0.3550  0.8403 -0.1033
12356TIP3   OH258482   5.183   3.253   6.459  0.1907 -0.1026 -0.0516
12356TIP3    H158483   5.132   3.322   6.417  1.6340 -0.3197 -2.3460
12356TIP3    H258484   5.122   3.180   6.467 -0.7039  0.6450  0.2497
12357TIP3   OH258485   1.490   3.081   4.191 -0.2271 -0.2296  0.4507
12357TIP3    H158486   1.529   3.047   4.111 -0.7667 -2.2279  0.9978
12357TIP3    H258487   1.398   3.095   4.170 -0.0943  0.5592  0.3505
12358TIP3   OH258488   1.423   0.287  10.776 -0.4124 -0.0833  0.4089
12358TIP3    H158489   1.516   0.302  10.760 -0.3923 -1.8729 -1.5831
12358TIP3    H258490   1.381   0.371  10.759  0.6794  0.3243 -0.2952
12359TIP3   OH258491   0.017   0.145  12.437 -0.4704 -0.4681  0.4550
12359TIP3    H158492  -0.005   0.179  12.350 -1.0250  0.8894  1.0856
12359TIP3    H258493  -0.047   0.076  12.453 -0.5237 -0.5546 -0.1167
12360TIP3   OH258494   3.426   6.549   1.838 -0.3904 -0.1401  0.0159
12360TIP3    H158495   3.502   6.580   1.886 -1.9557  1.1863  1.8169
12360TIP3    H258496   3.443   6.572   1.747  2.9962 -3.3563 -0.3766
12361TIP3   OH258497   2.750   1.002  13.607 -0.1016  0.2416 -0.0638
12361TIP3    H158498   2.692   0.973  13.677 -1.4828  1.4220 -0.6746
12361TIP3    H258499   2.707   0.975  13.526  1.5186 -1.1890 -0.5334
12362TIP3   OH258500   5.356   0.768   3.716 -0.2075 -0.1160 -0.0366
12362TIP3    H158501   5.356   0.835   3.784  0.9435  1.3813 -1.4555
12362TIP3    H258502   5.371   0.686   3.764 -0.3802  0.7660  1.5992
12363TIP3   OH258503   0.897   0.568   5.385 -0.1913  0.4392 -0.5768
12363TIP3    H158504   0.934   0.603   5.303  0.6101  2.3764  0.5422
12363TIP3    H258505   0.922   0.632   5.451  0.4190 -1.7868  1.4755
12364TIP3   OH258506   3.577   0.483   1.993 -0.3422  0.1621 -0.4778
12364TIP3    H158507   3.632   0.508   2.067 -0.3248  0.0558 -0.4545
12364TIP3    H258508   3.636   0.436   1.934 -0.5989 -0.7342 -0.0392
12365TIP3   OH258509   5.124   6.048   4.614 -0.2507 -0.6844  0.2307
12365TIP3    H158510   5.164   6.079   4.533 -0.5159  0.7402  0.6147
12365TIP3    H258511   5.038   6.015   4.587 -0.1441 -0.6729 -0.1330
12366TIP3   OH258512   3.393   2.224   0.165 -0.1659  0.2712 -0.6707
12366TIP3    H158513   3.459   2.185   0.108  1.3120  1.4979  0.1169
12366TIP3    H258514   3.310   2.198   0.127  0.7551  0.4718 -2.9653
12367TIP3   OH258515   1.952   1.383  16.809  0.4075 -0.2265  0.3323
12367TIP3    H158516   1.959   1.291  16.783  0.8875 -0.8754  2.5476
12367TIP3    H258517   2.035   1.422  16.781  1.4618 -1.2143  1.9036
12368TIP3   OH258518   1.044   3.478   5.919  0.7655 -0.0441  0.5408
12368TIP3    H158519   0.980   3.547   5.905  0.9273  0.1552  0.7679
12368TIP3    H258520   1.021   3.410   5.856  3.1279  1.9583 -2.7986
12369TIP3   OH258521   5.016   5.668  14.873  0.4683 -0.3398  0.6994
12369TIP3    H158522   4.960   5.594  14.850  0.9167 -0.2932 -0.5817
12369TIP3    H258523   5.100   5.649  14.832  0.8455  0.4682  1.0770
12370TIP3   OH258524   3.869   0.985  12.003 -0.4705  0.2328  0.7202
12370TIP3    H158525   3.921   0.957  12.079  1.0163  0.0462 -0.3266
12370TIP3    H258526   3.810   0.912  11.987  1.1401 -0.9820  0.0158
12371TIP3   OH258527   2.520   4.083  12.253 -0.5337 -0.1543  0.6818
12371TIP3    H158528   2.446   4.143  12.260 -1.0989 -0.9405  1.7296
12371TIP3    H258529   2.490   4.002  12.296  0.7633 -0.6438  0.7167
12372TIP3   OH258530   2.825   1.240   5.544  0.1713  0.5580 -0.5202
12372TIP3    H158531   2.837   1.218   5.451  0.5168  1.3188 -0.6611
12372TIP3    H258532   2.906   1.211   5.586 -0.7977 -1.7038 -0.0725
12373TIP3   OH258533   0.591   0.683   3.213  0.1686  0.2106 -0.1390
12373TIP3    H158534   0.620   0.751   3.152 -0.3071  1.2948  0.7998
12373TIP3    H258535   0.539   0.623   3.160  0.1840  0.8530 -0.8967
12374TIP3   OH258536   3.633   6.493  13.924  0.0955  0.1911 -0.3354
12374TIP3    H158537   3.548   6.451  13.911 -0.8699  2.1000 -0.4914
12374TIP3    H258538   3.691   6.422  13.952 -1.8906 -0.8939  1.2170
12375TIP3   OH258539   1.881   2.717  16.052 -0.8806 -0.5829 -0.0309
12375TIP3    H158540   1.864   2.807  16.081  0.3849 -1.0780  2.4432
12375TIP3    H258541   1.974   2.717  16.029 -0.7505 -1.3714  0.4743
12376TIP3   OH258542   1.911   3.727  15.793  0.0058  0.9633 -0.2797
12376TIP3    H158543   1.893   3.683  15.710  2.0168  0.4840 -0.5088
12376TIP3    H258544   2.005   3.746  15.790  0.0681  1.1827  1.7727
12377TIP3   OH258545   2.499   1.276  15.505  0.2098  0.9051 -0.9570
12377TIP3    H158546   2.562   1.206  15.522  2.1172  2.5558 -0.8163
12377TIP3    H258547   2.420   1.251  15.554  1.2904 -0.4916  0.1364
12378TIP3   OH258548   2.443   2.696   2.915 -0.6421 -0.2398  0.1523
12378TIP3    H158549   2.494   2.764   2.870 -0.1227 -0.7397 -0.0221
12378TIP3    H258550   2.421   2.633   2.846 -2.2902  0.4150  0.0323
12379TIP3   OH258551   5.663   5.757   1.517 -0.2801  0.4502  0.4410
12379TIP3    H158552   5.688   5.790   1.431 -1.3235 -0.8347 -0.4138
12379TIP3    H258553   5.585   5.704   1.499 -0.7350  0.4621  2.2471
12380TIP3   OH258554   6.648   6.391   0.003 -0.1644  0.1228  0.7888
12380TIP3    H158555   6.609   6.352   0.081 -0.4280  1.3343  1.2840
12380TIP3    H258556   6.724   6.440   0.036 -1.7297  2.7927  0.7092
12381TIP3   OH258557   3.335   6.068  11.029  0.2549 -0.3783  0.0727
12381TIP3    H158558   3.300   6.049  10.942  0.3872 -0.4237  0.0297
12381TIP3    H258559   3.267   6.119  11.072 -0.0208 -0.7872  0.1187
12382TIP3   OH258560   0.966   6.539  15.519 -0.1361  0.1653  0.1315
12382TIP3    H158561   0.881   6.508  15.552  0.0021 -2.0794 -1.4172
12382TIP3    H258562   1.025   6.534  15.594 -1.1703  1.0931  1.0476
12383TIP3   OH258563   4.366   4.653   5.606  0.3179  0.1651 -1.2294
12383TIP3    H158564   4.327   4.640   5.692  0.9640  2.0877 -0.6059
12383TIP3    H258565   4.369   4.565   5.567  0.5280 -0.8249  0.9137
12384TIP3   OH258566   4.046   5.008  14.685  0.8431 -0.2738 -0.0374
12384TIP3    H158567   3.999   4.946  14.740 -0.3063 -0.6107 -1.3490
12384TIP3    H258568   4.100   4.953  14.627 -0.4877 -0.1279 -1.4816
12385TIP3   OH258569   2.784   3.626   1.480 -0.2110 -0.3011  0.3000
12385TIP3    H158570   2.809   3.676   1.402  1.0840  1.1630  1.5771
12385TIP3    H258571   2.782   3.535   1.450  1.5823  0.0719 -1.1760
12386TIP3   OH258572   3.053   3.988  12.483 -0.2420 -0.0442  0.6253
12386TIP3    H158573   3.060   3.983  12.388 -0.9753  0.1391  0.5547
12386TIP3    H258574   3.056   3.897  12.513  1.5525 -0.0487  0.5676
12387TIP3   OH258575   5.096   4.224   5.493  0.0985  0.2439 -0.4819
12387TIP3    H158576   5.132   4.179   5.416 -0.9367 -0.3297 -0.6378
12387TIP3    H258577   5.046   4.157   5.539 -0.2590  0.8841  0.0668
12388TIP3   OH258578   2.061   3.402  12.793 -0.1691  0.3639  0.3002
12388TIP3    H158579   2.144   3.448  12.808  0.0565 -0.1260  0.5711
12388TIP3    H258580   2.006   3.427  12.866  0.1248 -0.1853  0.7117
12389TIP3   OH258581   2.425   5.591   4.384 -0.4479  0.5989  0.3859
12389TIP3    H158582   2.505   5.539   4.373  1.5550  3.2191  1.2760
12389TIP3    H258583   2.367   5.536   4.437  1.3599 -0.8724  0.9450
12390TIP3   OH258584   0.085   3.352  13.132 -0.3055 -0.4788 -0.9280
12390TIP3    H158585   0.102   3.374  13.223 -1.2240 -0.8831 -0.6461
12390TIP3    H258586   0.061   3.436  13.092  1.3626 -0.0608 -1.1328
12391TIP3   OH258587   1.780   1.651  11.096 -0.0595 -0.0798  0.5715
12391TIP3    H158588   1.834   1.574  11.079  1.0403  0.5271  1.2075
12391TIP3    H258589   1.761   1.687  11.010  2.4429  0.9378  0.3432
12392TIP3   OH258590   6.582   2.806   1.701 -0.1680 -0.2360 -0.5896
12392TIP3    H158591   6.514   2.856   1.747  0.1501  0.0957 -0.4761
12392TIP3    H258592   6.534   2.752   1.638 -0.6958 -1.3367  0.7044
12393TIP3   OH258593   4.797   1.608  10.770 -0.1900 -0.0080 -0.2435
12393TIP3    H158594   4.855   1.603  10.846  0.3807 -1.3520 -0.7359
12393TIP3    H258595   4.796   1.519  10.735 -1.1329  0.3988 -1.3026
12394TIP3   OH258596   4.014   2.208  15.199 -0.1755 -0.4675  0.1846
12394TIP3    H158597   4.018   2.272  15.127  1.1633 -1.2817 -0.4963
12394TIP3    H258598   3.983   2.128  15.157  2.1653 -1.4178  0.0881
12395TIP3   OH258599   6.290   0.492  12.671  0.2965  0.3559  0.3718
12395TIP3    H158600   6.375   0.535  12.683 -0.0249  0.9619  0.5437
12395TIP3    H258601   6.309   0.399  12.680  1.2038  0.3656 -1.0929
12396TIP3   OH258602   4.894   4.075  12.820 -0.7344  0.0205 -0.7286
12396TIP3    H158603   4.969   4.017  12.835 -0.9976 -0.4757 -1.2537
12396TIP3    H258604   4.928   4.143  12.763 -0.7250 -0.3181 -1.1352
12397TIP3   OH258605   4.314   2.918   5.869 -0.0791 -0.6790  0.2354
12397TIP3    H158606   4.352   2.873   5.794  0.5368  2.1828 -1.3409
12397TIP3    H258607   4.273   2.997   5.832  0.0504  0.7550  2.8495
12398TIP3   OH258608   0.580   1.454  16.377 -0.0505  0.7170 -0.4155
12398TIP3    H158609   0.564   1.383  16.439  0.4736  0.6971 -0.2960
12398TIP3    H258610   0.556   1.417  16.292  3.2126 -0.7701 -0.8389
12399TIP3   OH258611   1.542   1.395  14.058 -0.3374 -0.3695  0.1200
12399TIP3    H158612   1.471   1.384  14.121 -2.4060  4.2758 -0.9300
12399TIP3    H258613   1.508   1.356  13.977 -1.2183  0.6797 -0.0419
12400TIP3   OH258614   3.769   0.765   1.205  0.2455  0.0936  0.7158
12400TIP3    H158615   3.820   0.728   1.133 -1.4169 -0.6481 -0.1549
12400TIP3    H258616   3.769   0.696   1.271  0.4216  0.1143  0.7371
12401TIP3   OH258617   5.680   1.897   5.428 -0.0223  0.1083  0.0751
12401TIP3    H158618   5.600   1.906   5.479  0.6967  0.1739  1.2140
12401TIP3    H258619   5.739   1.963   5.464  1.6142 -1.9287  1.3518
12402TIP3   OH258620   4.691   5.717  17.129  0.5629  0.0115 -0.2704
12402TIP3    H158621   4.657   5.638  17.171 -1.1707  0.7974 -0.1095
12402TIP3    H258622   4.721   5.688  17.043  1.3790 -1.0716  0.3496
12403TIP3   OH258623   1.359   2.576   3.206 -0.0053  0.4906  0.1464
12403TIP3    H158624   1.354   2.496   3.153 -1.1176 -0.7583  2.0394
12403TIP3    H258625   1.448   2.577   3.240  0.0721  0.1544 -0.0385
12404TIP3   OH258626   4.950   2.798   6.394  0.0340  0.0196 -0.0083
12404TIP3    H158627   4.905   2.795   6.309  0.1952 -1.7969 -0.0640
12404TIP3    H258628   5.038   2.767   6.376 -0.5821 -2.7261  1.1498
12405TIP3   OH258629   4.716   3.997  11.463 -0.0622  0.0742  0.2877
12405TIP3    H158630   4.744   4.078  11.419 -1.4271  0.0424 -0.7049
12405TIP3    H258631   4.716   3.931  11.394  0.5198 -0.6584  0.9743
12406TIP3   OH258632   1.110   1.226   4.618  0.2196 -0.3014  0.1901
12406TIP3    H158633   1.093   1.319   4.629 -2.1995 -0.6002 -0.4946
12406TIP3    H258634   1.160   1.220   4.537 -0.3455  0.3491 -0.2154
12407TIP3   OH258635   1.146   0.063   6.588 -0.0704  0.4884  0.2040
12407TIP3    H158636   1.189   0.149   6.589 -1.5426  1.2472  0.7630
12407TIP3    H258637   1.057   0.081   6.556 -0.1401 -0.9731 -0.5267
12408TIP3   OH258638   3.070   6.329   1.381 -0.4382 -0.0336  0.1001
12408TIP3    H158639   3.026   6.244   1.389 -1.5081  0.5300  0.5213
12408TIP3    H258640   3.131   6.318   1.309 -2.3078 -0.4707 -1.5155
12409TIP3   OH258641   0.883   6.335   0.030 -0.1505 -0.0397  0.1136
12409TIP3    H158642   0.933   6.332   0.112 -0.4321  0.3941  0.2982
12409TIP3    H258643   0.950   6.324  -0.039 -0.0709 -1.9207  0.4309
12410TIP3   OH258644   3.352   1.999   2.193  0.4777  0.0904  0.0360
12410TIP3    H158645   3.411   1.928   2.168  1.0257  1.2877 -2.2932
12410TIP3    H258646   3.281   1.954   2.240  0.1981 -2.2309 -2.3339
12411TIP3   OH258647   1.022   4.950   5.186  0.3688  0.0597  0.0222
12411TIP3    H158648   1.072   5.026   5.215  1.0115 -0.2195 -0.3275
12411TIP3    H258649   1.040   4.883   5.252 -0.2443  0.2221  0.3615
12412TIP3   OH258650   3.941   0.992   3.591  0.0187 -0.0761 -0.0141
12412TIP3    H158651   3.860   1.040   3.611 -0.6475 -1.1252 -0.1224
12412TIP3    H258652   3.979   1.039   3.517  0.1093  1.1070  0.7587
12413TIP3   OH258653   1.418   1.134   5.438  0.3947 -0.0922  0.2027
12413TIP3    H158654   1.361   1.139   5.515  1.5338  0.1910  1.0438
12413TIP3    H258655   1.495   1.086   5.468  1.0002  0.3064 -0.6781
12414TIP3   OH258656   0.036   4.935   3.530  0.0142 -0.4704 -0.2598
12414TIP3    H158657   0.112   4.949   3.587  0.0691  2.1505 -0.8355
12414TIP3    H258658   0.067   4.961   3.443 -1.1390 -0.7154 -0.7544
12415TIP3   OH258659   5.902   0.437  15.026 -0.2864  0.0776 -0.0758
12415TIP3    H158660   5.866   0.369  15.084 -0.5588  1.7822  1.8810
12415TIP3    H258661   5.989   0.406  15.004  0.9837  0.5674  3.6310
12416TIP3   OH258662   4.385   6.695   4.250 -0.5297  0.1126  0.4374
12416TIP3    H158663   4.314   6.722   4.307 -0.1724  0.9875  0.4832
12416TIP3    H258664   4.458   6.676   4.310 -0.4184  0.1885  0.3260
12417TIP3   OH258665   1.887   4.607   1.055 -0.2767  0.4313 -0.1846
12417TIP3    H158666   1.798   4.609   1.089 -0.8222  0.8239 -1.5622
12417TIP3    H258667   1.900   4.693   1.016  0.1720 -0.1152 -1.2937
12418TIP3   OH258668   3.000   3.915  17.030 -0.1270 -0.1819 -0.2345
12418TIP3    H158669   2.968   3.900  17.119 -1.0662 -0.6326 -0.6331
12418TIP3    H258670   3.094   3.926  17.040 -0.2068 -0.3406  0.8068
12419TIP3   OH258671   5.499   0.249   2.796  0.0955  0.1780 -0.0551
12419TIP3    H158672   5.489   0.343   2.813  0.2789  0.2909 -0.5569
12419TIP3    H258673   5.441   0.207   2.860 -1.2021  0.6894 -0.8498
12420TIP3   OH258674   5.504   5.649  16.073 -0.3887 -0.0794 -0.6516
12420TIP3    H158675   5.519   5.662  16.166  0.4627 -0.3332 -0.7455
12420TIP3    H258676   5.527   5.733  16.032  0.1440 -0.2634 -0.7294
12421TIP3   OH258677   0.446   1.547   0.976 -0.0863 -0.5006  0.0677
12421TIP3    H158678   0.519   1.493   0.945 -0.0143 -0.4367  0.1238
12421TIP3    H258679   0.476   1.581   1.061  0.7924  1.4352 -0.9459
12422TIP3   OH258680   5.748   6.052  11.475  0.2986  0.2240  0.1905
12422TIP3    H158681   5.696   6.130  11.456  1.7825  1.2879  0.3094
12422TIP3    H258682   5.696   5.979  11.440  0.6313  1.5738 -3.6351
12423TIP3   OH258683   6.138   3.762   4.725 -0.2687  0.2426 -0.2753
12423TIP3    H158684   6.225   3.759   4.765  0.0699 -2.9646 -0.9400
12423TIP3    H258685   6.077   3.745   4.797 -0.3803  2.1637  0.1312
12424TIP3   OH258686   4.380   0.981   4.084 -0.0000 -0.0452  0.1710
12424TIP3    H158687   4.417   1.066   4.059 -1.0497  0.5645  0.6472
12424TIP3    H258688   4.292   1.001   4.116 -0.2396 -1.3081  0.3579
12425TIP3   OH258689   2.322   6.217  14.445  0.7659  0.2384  0.2455
12425TIP3    H158690   2.383   6.206  14.518  0.6811  0.0936  0.2941
12425TIP3    H258691   2.290   6.307  14.453  2.0848  0.8195 -0.6369
12426TIP3   OH258692   0.499   5.145   1.611 -0.3327 -0.3164 -0.1814
12426TIP3    H158693   0.534   5.155   1.522  0.6468 -0.2189  0.2062
12426TIP3    H258694   0.554   5.077   1.650 -1.2723 -0.9299  0.0926
12427TIP3   OH258695   4.701   0.764  12.742  0.4248  0.1935 -1.4511
12427TIP3    H158696   4.707   0.810  12.659  2.5210 -0.2816 -1.6066
12427TIP3    H258697   4.752   0.684  12.730 -0.7944 -0.8237 -0.2835
12428TIP3   OH258698   2.987   5.965   1.108  0.4658  0.2547 -0.5095
12428TIP3    H158699   2.897   5.957   1.077  0.4566  1.2690 -0.7859
12428TIP3    H258700   3.030   5.885   1.078 -0.7680 -1.1397  1.1854
12429TIP3   OH258701   2.995   5.915  16.312 -0.1061  0.2385  0.1099
12429TIP3    H158702   3.078   5.893  16.271 -0.4559 -0.1238 -0.4101
12429TIP3    H258703   2.974   5.840  16.368 -0.0271  0.3831  0.3378
12430TIP3   OH258704   6.049   0.315  15.227  0.1826 -0.1764  0.1712
12430TIP3    H158705   6.083   0.349  15.310 -0.3593 -0.6427  0.5907
12430TIP3    H258706   6.109   0.349  15.161 -0.4615  1.7938  0.5372
12431TIP3   OH258707   6.128   1.382  15.330  0.7744 -0.0458  0.4040
12431TIP3    H158708   6.079   1.366  15.411  0.0923  1.3270  0.2936
12431TIP3    H258709   6.203   1.322  15.335  0.8445  0.1319  2.1446
12432TIP3   OH258710   0.826   0.277  11.547 -0.5277 -0.4080 -0.2319
12432TIP3    H158711   0.901   0.295  11.490  0.1808 -0.0054  0.7961
12432TIP3    H258712   0.794   0.363  11.573  0.7736 -0.5285  2.0116
12433TIP3   OH258713   5.143   5.030  15.745 -0.2914  0.0173  0.3111
12433TIP3    H158714   5.124   5.020  15.839  1.0168  0.4197  0.6369
12433TIP3    H258715   5.232   5.065  15.742 -0.7137  1.0515 -1.0652
12434TIP3   OH258716   1.291   3.583   4.521  0.0588 -0.5897  0.0323
12434TIP3    H158717   1.241   3.540   4.451  0.9901 -2.4341  0.4307
12434TIP3    H258718   1.225   3.630   4.572 -0.7911 -0.2008 -1.3714
12435TIP3   OH258719   1.835   5.624   6.348  0.1122 -0.3764  0.0213
12435TIP3    H158720   1.867   5.709   6.316  1.6580 -0.5550  0.9903
12435TIP3    H258721   1.754   5.610   6.299 -0.3214  1.7654 -0.0042
12436TIP3   OH258722   2.446   4.082   2.461 -0.2479 -0.6389 -0.3185
12436TIP3    H158723   2.515   4.147   2.476  0.7749 -1.6451 -0.5561
12436TIP3    H258724   2.365   4.133   2.462  0.0576  0.1296  3.7564
12437TIP3   OH258725   1.190   3.267   5.708 -0.4392  0.3139 -0.6134
12437TIP3    H158726   1.195   3.290   5.801  1.6899  0.4464 -0.7081
12437TIP3    H258727   1.215   3.174   5.705 -0.6093  0.2803 -1.0501
12438TIP3   OH258728   2.257   4.946  11.204 -0.3184  0.5651  0.3351
12438TIP3    H158729   2.351   4.927  11.215 -0.1876 -0.5803 -1.9600
12438TIP3    H258730   2.235   5.004  11.276  2.2109  1.0162  0.8396
12439TIP3   OH258731   4.776   3.052   2.756 -0.4862  0.1163 -0.0289
12439TIP3    H158732   4.825   3.032   2.836  0.7446 -0.6634 -0.9471
12439TIP3    H258733   4.723   3.128   2.780  0.8760  0.7587  1.1383
12440TIP3   OH258734   0.266   2.449   4.650  0.1789  0.3801  0.5676
12440TIP3    H158735   0.177   2.430   4.620  0.5047 -0.3659  0.0302
12440TIP3    H258736   0.285   2.379   4.712  0.5630  0.2586  0.3166
12441TIP3   OH258737   6.421   0.842  11.084  0.3139  0.1574 -0.4105
12441TIP3    H158738   6.347   0.819  11.140 -1.3472 -2.2360 -3.2829
12441TIP3    H258739   6.405   0.933  11.058 -1.0388  0.0201 -0.1049
12442TIP3   OH258740   3.601   5.406   3.146 -0.3568 -0.4183  0.8489
12442TIP3    H158741   3.519   5.433   3.104  0.7014 -2.1615 -2.6132
12442TIP3    H258742   3.649   5.488   3.158 -1.0149  0.2473 -0.7636
12443TIP3   OH258743   4.758   1.322  15.728 -0.1676  0.0698  0.0161
12443TIP3    H158744   4.794   1.405  15.760  2.5906 -0.7622 -0.6928
12443TIP3    H258745   4.773   1.324  15.633 -0.6546 -0.9703 -0.0980
12444TIP3   OH258746   2.894   1.261   4.001  0.8192  0.2266 -0.0292
12444TIP3    H158747   2.922   1.214   3.922 -1.2967 -1.5804  0.1913
12444TIP3    H258748   2.965   1.246   4.064  1.5785 -0.0921 -0.9360
12445TIP3   OH258749   0.202   3.605  11.458  0.1781  0.4803  0.0162
12445TIP3    H158750   0.126   3.605  11.400  0.9243  0.8312 -0.9923
12445TIP3    H258751   0.188   3.680  11.516 -0.6458  0.0434  0.3882
12446TIP3   OH258752   0.844   1.627  13.991  0.0744 -0.3766  0.5025
12446TIP3    H158753   0.800   1.642  14.075 -0.4443 -0.6899  0.2912
12446TIP3    H258754   0.825   1.706  13.940 -0.2389 -0.5120  0.4122
12447TIP3   OH258755   3.310   3.904  13.881  0.3439  0.2791  0.0919
12447TIP3    H158756   3.237   3.844  13.868 -0.7953  0.9756  2.6076
12447TIP3    H258757   3.282   3.985  13.839  0.7568 -0.1397 -1.0317
12448TIP3   OH258758   2.785   2.536   1.894  0.3492 -0.6372 -0.3228
12448TIP3    H158759   2.778   2.568   1.804 -3.1810  0.9452  0.3429
12448TIP3    H258760   2.756   2.609   1.948 -0.5494 -2.4951  1.8839
12449TIP3   OH258761   1.726   4.854  11.906  0.0218  0.3204 -0.5520
12449TIP3    H158762   1.730   4.778  11.963  2.0741 -0.0978 -1.1691
12449TIP3    H258763   1.816   4.866  11.875 -0.5304  2.0968 -1.6469
12450TIP3   OH258764   4.355   0.174   4.436 -0.2470  0.2932  0.4284
12450TIP3    H158765   4.438   0.163   4.390 -0.7236 -3.3246  0.1735
12450TIP3    H258766   4.366   0.126   4.518 -1.6687  0.8701  0.9874
12451TIP3   OH258767   1.271   5.178   6.399 -0.0683 -0.5754  0.3594
12451TIP3    H158768   1.339   5.226   6.446  0.5411 -1.6196  0.5626
12451TIP3    H258769   1.289   5.086   6.416 -2.4104 -0.8728  1.6823
12452TIP3   OH258770   4.462   3.332  13.888  0.8250  0.0621 -0.1305
12452TIP3    H158771   4.510   3.249  13.890 -0.4489 -0.7028  0.1948
12452TIP3    H258772   4.509   3.388  13.950  0.2353 -1.3227  1.6836
12453TIP3   OH258773   5.676   4.144   1.807  0.7223  0.5904  0.0039
12453TIP3    H158774   5.707   4.138   1.897 -0.6871 -1.6841  0.4066
12453TIP3    H258775   5.752   4.118   1.754  1.3054  1.1319  0.5583
12454TIP3   OH258776   5.896   3.734   0.666 -0.2984  0.3811  0.7436
12454TIP3    H158777   5.897   3.653   0.614 -0.3223  1.6411 -1.3015
12454TIP3    H258778   5.825   3.786   0.629  0.3831  1.7839  1.3365
12455TIP3   OH258779   5.740   6.535  16.889 -0.5112 -0.4507  0.1628
12455TIP3    H158780   5.763   6.584  16.968 -2.2841  0.0376  0.4101
12455TIP3    H258781   5.645   6.523  16.894 -0.4477 -1.8255 -1.1011
12456TIP3   OH258782   0.349   0.994  16.653 -0.2297  0.1045 -0.5784
12456TIP3    H158783   0.290   1.062  16.687 -0.7356 -0.1193 -0.9939
12456TIP3    H258784   0.341   1.002  16.558 -0.0891 -0.3644 -0.6304
12457TIP3   OH258785   1.027   2.125  13.564  0.1655  0.0846 -0.2453
12457TIP3    H158786   1.043   2.219  13.575  0.5836  0.0983 -0.9265
12457TIP3    H258787   1.114   2.088  13.547 -0.1834 -0.2291 -1.3977
12458TIP3   OH258788   1.261   4.022  15.341  0.0365  0.1806  0.8049
12458TIP3    H158789   1.294   3.956  15.280  3.4199  1.2232  1.2709
12458TIP3    H258790   1.178   4.051  15.304 -1.6539 -4.1921  0.5558
12459TIP3   OH258791   4.049   2.952  15.913 -0.6397  0.1799  0.2287
12459TIP3    H158792   3.971   2.947  15.968 -1.7785  1.7104 -1.1921
12459TIP3    H258793   4.049   2.870  15.864 -0.7623 -0.2714  0.9603
12460TIP3   OH258794   2.812   3.661   2.829  0.1247 -0.1581  0.2868
12460TIP3    H158795   2.802   3.583   2.883  0.9232 -0.2463  0.3218
12460TIP3    H258796   2.838   3.730   2.890 -1.6006  0.4103  0.4261
12461TIP3   OH258797   5.759   5.600   0.456  0.6006  0.9915 -0.0616
12461TIP3    H158798   5.772   5.509   0.430  0.3001  0.9006  0.1102
12461TIP3    H258799   5.774   5.650   0.375  1.7870  0.8764  0.0683
12462TIP3   OH258800   0.718   1.632  14.509 -0.4090  0.3493 -0.1866
12462TIP3    H158801   0.730   1.594  14.422 -0.6317  0.0905 -0.1048
12462TIP3    H258802   0.659   1.572  14.553 -0.9206  0.8889 -0.1227
12463TIP3   OH258803   5.602   2.372  12.369  0.7012  0.3113 -0.0067
12463TIP3    H158804   5.585   2.447  12.426 -1.1087  1.6893 -2.1569
12463TIP3    H258805   5.549   2.390  12.291  1.0315 -2.7296 -1.0375
12464TIP3   OH258806   6.509   4.335  13.776  0.2372  0.2061 -0.8991
12464TIP3    H158807   6.549   4.351  13.691  0.5321  0.2849 -0.7440
12464TIP3    H258808   6.578   4.350  13.840 -0.7625  3.4405 -0.3899
12465TIP3   OH258809   3.856   0.433   5.224 -0.1044  0.8041  0.0022
12465TIP3    H158810   3.930   0.410   5.168  1.4372  1.7924  1.5213
12465TIP3    H258811   3.814   0.507   5.180 -1.5183 -1.0303 -1.9080
12466TIP3   OH258812   6.498   0.621  13.627 -0.5776 -0.1301 -0.4087
12466TIP3    H158813   6.486   0.685  13.557 -0.6627  0.1804 -0.1130
12466TIP3    H258814   6.408   0.600  13.655 -0.5525 -0.4122 -0.5307
12467TIP3   OH258815   3.539   4.542  12.042  0.3368  0.4103 -0.3660
12467TIP3    H158816   3.466   4.544  11.979  0.2287  2.1302 -0.2404
12467TIP3    H258817   3.505   4.586  12.119  0.4341 -1.7679  1.0135
12468TIP3   OH258818   5.483   4.237   4.789 -0.0242 -0.6289 -0.4358
12468TIP3    H158819   5.411   4.202   4.842  0.5328  0.6115  1.2311
12468TIP3    H258820   5.468   4.202   4.701 -1.8503 -1.5345  0.1944
12469TIP3   OH258821   4.985   5.910   1.187 -0.0251 -0.6723 -0.3243
12469TIP3    H158822   5.007   5.977   1.122  1.3176 -1.3998 -0.6630
12469TIP3    H258823   4.937   5.843   1.138  0.3747 -0.8898 -0.4230
12470TIP3   OH258824   2.592   3.379   3.363  0.0952 -0.0600  0.0889
12470TIP3    H158825   2.600   3.434   3.441 -3.8036  0.3496  0.4109
12470TIP3    H258826   2.679   3.378   3.325  1.3259  2.7499  2.4600
12471TIP3   OH258827   0.028   5.146   4.113  0.7453 -0.7333 -0.0857
12471TIP3    H158828   0.015   5.239   4.134  1.5221 -0.1084 -2.1051
12471TIP3    H258829   0.068   5.109   4.191  0.8174  0.7355  0.6054
12472TIP3   OH258830   1.869   2.055   5.910 -0.3887 -0.3464  0.0666
12472TIP3    H158831   1.780   2.068   5.878 -0.4354  1.2558  0.7284
12472TIP3    H258832   1.890   1.965   5.888 -1.3716 -0.1186 -2.0430
12473TIP3   OH258833   1.536   4.642  16.569  0.3976  0.2371  0.1217
12473TIP3    H158834   1.592   4.569  16.596  0.1270 -0.1487 -0.3454
12473TIP3    H258835   1.482   4.606  16.498 -0.6480  0.5140  0.7595
12474TIP3   OH258836   3.259   3.287   1.675  0.0996 -0.2731 -0.2804
12474TIP3    H158837   3.208   3.214   1.710 -0.9841  1.0142  0.9069
12474TIP3    H258838   3.350   3.263   1.692 -0.2310 -1.3587  0.0333
12475TIP3   OH258839   6.076   5.383   4.638 -0.5571 -0.6613 -0.6693
12475TIP3    H158840   6.022   5.308   4.614  0.1379 -0.8113 -1.7935
12475TIP3    H258841   6.116   5.358   4.722 -1.2170 -1.0601 -0.4612
12476TIP3   OH258842   5.446   0.422   0.323  0.2297  0.0288 -0.5636
12476TIP3    H158843   5.470   0.497   0.269 -0.5035  0.7791  0.1178
12476TIP3    H258844   5.382   0.457   0.386  0.2706 -1.0473  0.1075
12477TIP3   OH258845   2.182   2.826   4.973 -0.2842  0.1245  0.3672
12477TIP3    H158846   2.252   2.827   5.038  0.3214 -0.3806 -0.2585
12477TIP3    H258847   2.198   2.904   4.920 -0.2472  0.0616  0.2847
12478TIP3   OH258848   1.812   2.048   1.820  0.0585 -0.4785 -0.2910
12478TIP3    H158849   1.751   2.084   1.756  0.1491 -1.2086 -0.7913
12478TIP3    H258850   1.846   2.125   1.866 -2.9780 -0.1130  1.6317
12479TIP3   OH258851   2.663   4.247  15.012  0.2120  0.2985 -0.0042
12479TIP3    H158852   2.686   4.257  15.105 -0.1992  0.6217  0.0655
12479TIP3    H258853   2.688   4.330  14.972 -0.4071  0.4841 -0.0147
12480TIP3   OH258854   2.997   6.313   5.188  0.2805  0.4039  0.1074
12480TIP3    H158855   2.911   6.270   5.186 -0.4364  1.7990 -0.8876
12480TIP3    H258856   3.057   6.245   5.216 -0.9580 -0.9693 -0.4384
12481TIP3   OH258857   2.298   5.753  15.065 -0.1622  0.1825  0.3721
12481TIP3    H158858   2.218   5.710  15.034 -1.0201  1.4177  0.8340
12481TIP3    H258859   2.302   5.835  15.017 -1.0296  1.7213  2.7672
12482TIP3   OH258860   5.326   0.630  16.480  0.8759  0.4501  0.3963
12482TIP3    H158861   5.388   0.685  16.527  1.4892  1.2324 -1.2649
12482TIP3    H258862   5.379   0.583  16.415  0.0587 -0.6380  0.4779
12483TIP3   OH258863   2.778   1.303   1.748  0.0682  0.3159  0.0609
12483TIP3    H158864   2.819   1.378   1.705  0.6581 -0.3461 -0.5712
12483TIP3    H258865   2.852   1.246   1.772 -0.3348  0.1426  0.9341
12484TIP3   OH258866   5.938   3.191  12.175 -0.0013 -0.2335  0.8464
12484TIP3    H158867   5.864   3.132  12.165  1.0499 -1.3173 -1.1649
12484TIP3    H258868   5.911   3.272  12.131 -0.4380 -0.1612  1.2384
12485TIP3   OH258869   1.090   0.212  11.480  0.1444  0.0845  0.1621
12485TIP3    H158870   1.062   0.166  11.558 -1.6932  0.9133  0.0457
12485TIP3    H258871   1.179   0.179  11.463  0.0612 -1.1006  1.7871
12486TIP3   OH258872   2.983   5.979   3.994 -0.1154  0.2811 -0.0025
12486TIP3    H158873   3.063   5.990   3.942 -0.2297 -1.1746 -0.5164
12486TIP3    H258874   2.949   6.068   4.004  2.4114  1.1947  1.6346
12487TIP3   OH258875   0.243   1.222   5.230 -0.0990 -0.5864  0.2036
12487TIP3    H158876   0.246   1.135   5.189 -0.3023 -0.1210 -0.8261
12487TIP3    H258877   0.211   1.280   5.161 -0.2497  0.2650  0.9691
12488TIP3   OH258878   2.167   0.980  16.504  0.3315 -0.0030 -0.7146
12488TIP3    H158879   2.136   0.889  16.509 -0.8971  0.2885 -2.4580
12488TIP3    H258880   2.197   0.990  16.414 -0.8828  1.7109 -0.9731
12489TIP3   OH258881   4.214   2.953   5.520  0.3266  0.5098  0.2219
12489TIP3    H158882   4.305   2.933   5.497  0.9368  1.2751  1.8216
12489TIP3    H258883   4.209   3.049   5.513  1.1283  1.1184  4.7773
12490TIP3   OH258884   0.255   1.636   2.515  0.1433  0.3048 -0.2439
12490TIP3    H158885   0.349   1.653   2.508  0.4275 -0.7003  0.7897
12490TIP3    H258886   0.243   1.606   2.605 -0.9645 -0.7874 -0.7321
12491TIP3   OH258887   1.573   0.521  14.776  0.4638  0.0906 -0.1458
12491TIP3    H158888   1.651   0.474  14.804  0.3520 -1.1085 -1.7336
12491TIP3    H258889   1.508   0.453  14.760  0.0570  0.8146 -1.7603
12492TIP3   OH258890   0.367   3.640  16.042  0.1588 -0.1927 -0.0937
12492TIP3    H158891   0.408   3.607  15.962 -0.5783  0.0901 -0.5973
12492TIP3    H258892   0.310   3.711  16.012  1.6155  1.5016  0.9196
12493TIP3   OH258893   5.029   3.401   5.618  0.6298  0.4807  0.3176
12493TIP3    H158894   4.954   3.429   5.565  0.7985  1.9165  0.8021
12493TIP3    H258895   4.989   3.350   5.689  0.3212 -0.5796 -0.5735
12494TIP3   OH258896   6.284   3.561  14.217 -0.1147 -0.2851 -0.1509
12494TIP3    H158897   6.198   3.540  14.178  0.6791 -1.8638 -1.1719
12494TIP3    H258898   6.347   3.516  14.160  1.3374  0.1583  1.0622
12495TIP3   OH258899   4.333   0.892   5.733  0.3427  0.0321 -0.3277
12495TIP3    H158900   4.241   0.907   5.751  0.7759  0.5452  1.6388
12495TIP3    H258901   4.370   0.979   5.720  0.8463 -0.0524  0.4962
12496TIP3   OH258902   4.736   3.809   3.581  0.4356  0.4333 -0.6731
12496TIP3    H158903   4.807   3.828   3.642 -0.6348  1.1224  0.3935
12496TIP3    H258904   4.718   3.716   3.593  0.7019  0.4079 -0.4633
12497TIP3   OH258905   5.730   6.240  12.763 -0.0723  0.1961 -0.0207
12497TIP3    H158906   5.819   6.271  12.747  0.5674 -2.2561 -1.8490
12497TIP3    H258907   5.711   6.183  12.688 -3.3271  0.8972  0.1431
12498TIP3   OH258908   0.297   0.900  14.005  0.2091 -0.1398  0.3286
12498TIP3    H158909   0.289   0.828  14.067  0.2123 -0.4727 -0.0553
12498TIP3    H258910   0.311   0.977  14.060  0.4759 -0.4706  0.7321
12499TIP3   OH258911   5.224   1.848  12.104 -0.2027  0.0181  0.0288
12499TIP3    H158912   5.208   1.932  12.060 -0.5035 -1.0606 -2.0765
12499TIP3    H258913   5.198   1.863  12.195 -1.1602  1.9187 -0.5015
12500TIP3   OH258914   5.498   4.547  16.752 -0.2416  0.1796  0.1992
12500TIP3    H158915   5.492   4.452  16.752  1.8019 -0.0056  1.6604
12500TIP3    H258916   5.480   4.572  16.843 -1.3200  1.2783 -0.2763
12501TIP3   OH258917   1.986   4.673   0.511  0.3046 -0.8291 -0.3872
12501TIP3    H158918   2.078   4.696   0.506 -0.0393  0.4306 -1.6363
12501TIP3    H258919   1.969   4.660   0.604  1.2071  1.3105  0.1321
12502TIP3   OH258920   1.452   6.715   0.055  0.2072 -0.1533  0.0102
12502TIP3    H158921   1.415   6.724  -0.033  3.3385 -0.6696 -1.4815
12502TIP3    H258922   1.476   6.622   0.062 -0.0104 -0.1312  1.4744
12503TIP3   OH258923   3.040   5.591  14.044 -0.2067 -0.7401  0.2076
12503TIP3    H158924   3.113   5.636  14.000  0.0107 -2.0556 -0.8398
12503TIP3    H258925   3.044   5.622  14.134 -0.4618  1.8035 -0.5833
12504TIP3   OH258926   5.963   4.689  16.349  0.2850  0.2391  0.2834
12504TIP3    H158927   5.906   4.765  16.342 -0.1104  0.1067  1.7037
12504TIP3    H258928   5.939   4.633  16.275 -1.2595  0.3007  0.7137
12505TIP3   OH258929   6.138   6.426  11.263 -0.6705 -0.5713 -0.2506
12505TIP3    H158930   6.101   6.500  11.215  0.2740  0.5346  0.6526
12505TIP3    H258931   6.070   6.401  11.325 -1.3194 -1.0288 -1.1337
12506TIP3   OH258932   0.226   3.146   5.432 -0.3149  0.0944  0.1174
12506TIP3    H158933   0.204   3.063   5.389  1.1144 -0.2397 -0.0151
12506TIP3    H258934   0.259   3.120   5.518  0.5138  0.4761 -0.0708
12507TIP3   OH258935   3.174   3.619  15.956 -0.7066 -0.6618  0.5289
12507TIP3    H158936   3.179   3.707  15.993 -1.8255 -0.9108  1.3336
12507TIP3    H258937   3.102   3.624  15.892 -1.0327 -1.0734  0.8545
12508TIP3   OH258938   2.809   2.183  12.522 -0.2005 -0.4623 -0.1346
12508TIP3    H158939   2.857   2.157  12.601 -3.3408 -0.8613  1.8395
12508TIP3    H258940   2.766   2.103  12.493  1.0766 -0.3711 -2.5209
12509TIP3   OH258941   2.827   6.753   0.723  0.1643 -0.5561 -0.2202
12509TIP3    H158942   2.747   6.806   0.725  1.0787  0.8588  0.8133
12509TIP3    H258943   2.866   6.772   0.638  0.4743  0.4650  0.1329
12510TIP3   OH258944   0.143   5.957  15.093  0.3369  0.5856  0.8683
12510TIP3    H158945   0.177   5.989  15.176  0.9365 -1.7656  1.6083
12510TIP3    H258946   0.183   5.871  15.082 -2.6142 -0.8229  0.0163
12511TIP3   OH258947   6.195   3.695  13.955  0.9996 -0.4058  0.0732
12511TIP3    H158948   6.153   3.669  13.873  0.1531 -1.4126  0.8072
12511TIP3    H258949   6.132   3.755  13.995  1.1114 -0.4484  0.3103
12512TIP3   OH258950   4.032   2.214   1.320 -0.1964  0.4533  0.1148
12512TIP3    H158951   3.953   2.168   1.291 -0.6908  0.5921  1.1645
12512TIP3    H258952   4.094   2.204   1.248 -0.2523 -1.9201  0.3058
12513TIP3   OH258953   2.108   3.984   2.186  0.6609  0.6019 -0.4772
12513TIP3    H158954   2.148   4.071   2.192 -1.0194  1.3523  0.1515
12513TIP3    H258955   2.042   3.993   2.117  0.0369  0.0157  0.0295
12514TIP3   OH258956   1.647   2.810  14.955 -0.1801  0.4860  0.2678
12514TIP3    H158957   1.690   2.785  15.036 -2.9411 -0.4157  1.5840
12514TIP3    H258958   1.606   2.729  14.924  2.4073  0.3003 -3.2204
12515TIP3   OH258959   0.347   5.352  14.694  0.1668 -0.0629 -0.6606
12515TIP3    H158960   0.436   5.338  14.661 -0.1101 -0.0289 -1.4345
12515TIP3    H258961   0.344   5.445  14.715  0.6496 -0.2727  0.4034
12516TIP3   OH258962   1.137   6.521   5.072  0.2816  0.5646  0.4691
12516TIP3    H158963   1.078   6.485   5.139  1.7359 -0.5215  1.2252
12516TIP3    H258964   1.081   6.531   4.994 -0.7998 -0.8931  1.0117
12517TIP3   OH258965   2.185   5.229   3.292 -0.6006 -0.5307 -0.0425
12517TIP3    H158966   2.238   5.157   3.258  0.5708  0.7665 -1.1098
12517TIP3    H258967   2.098   5.215   3.254 -0.4040 -1.3962 -0.1948
12518TIP3   OH258968   1.793   2.180  12.786  0.3530 -0.2498 -0.6754
12518TIP3    H158969   1.703   2.147  12.780  0.6271 -0.9585 -1.0375
12518TIP3    H258970   1.844   2.105  12.815  0.7764  0.2495 -0.1099
12519TIP3   OH258971   1.792   5.595  16.500 -0.1162 -0.2838 -0.3581
12519TIP3    H158972   1.849   5.592  16.576  0.2082 -0.3770 -0.6044
12519TIP3    H258973   1.752   5.682  16.503  0.6434  0.0843 -0.6201
12520TIP3   OH258974   2.254   6.715  11.710  0.0056 -0.1071  0.0489
12520TIP3    H158975   2.209   6.655  11.650 -0.0930 -0.7894  0.7941
12520TIP3    H258976   2.222   6.801  11.684 -1.1366 -0.5099  0.0372
12521TIP3   OH258977   2.322   2.471   3.797 -0.0211  0.0952 -0.2943
12521TIP3    H158978   2.279   2.550   3.828 -2.0682 -1.4211  1.0392
12521TIP3    H258979   2.376   2.499   3.723  0.4212  2.9057  0.9979
12522TIP3   OH258980   2.965   3.638  16.925  0.0200  0.2857 -0.5068
12522TIP3    H158981   2.957   3.722  16.971 -0.4323 -1.0404  2.0070
12522TIP3    H258982   2.905   3.580  16.971  0.0089 -1.3348 -2.4577
12523TIP3   OH258983   1.198   5.498   4.202 -0.0226  0.0967 -0.3487
12523TIP3    H158984   1.168   5.452   4.281 -1.9129  2.2446  0.2953
12523TIP3    H258985   1.291   5.517   4.219  0.0500 -0.9863  0.5785
12524TIP3   OH258986   5.411   2.871  15.552 -0.2157  0.3633  0.6129
12524TIP3    H158987   5.463   2.950  15.568 -0.4556  0.3317  1.5642
12524TIP3    H258988   5.439   2.842  15.465  0.7319  0.8327  0.7447
12525TIP3   OH258989   0.048   5.081   4.931 -0.4349  0.0310 -1.3940
12525TIP3    H158990   0.123   5.128   4.896  0.1642 -0.8895 -1.3544
12525TIP3    H258991   0.060   4.991   4.903 -1.3159 -0.2124 -1.0347
12526TIP3   OH258992   3.055   2.489   5.551 -0.0523  0.0148  0.0044
12526TIP3    H158993   2.960   2.476   5.549  0.0321 -0.5617 -0.4123
12526TIP3    H258994   3.083   2.476   5.461  0.0883  2.9457 -0.4707
12527TIP3   OH258995   0.049   6.011   5.613  0.3173  0.0843  0.7666
12527TIP3    H158996   0.054   5.918   5.588  1.1244  0.1901  0.4812
12527TIP3    H258997   0.010   6.010   5.700 -2.6322 -0.2884 -0.4606
12528TIP3   OH258998   1.247   4.425   3.318  0.0336  0.1899  0.3832
12528TIP3    H158999   1.212   4.423   3.407  0.0198  1.7037  0.4247
12528TIP3    H259000   1.333   4.383   3.325  0.6755  1.5899  1.4287
12529TIP3   OH259001   4.409   1.940  16.736  0.1017 -0.0030 -0.2650
12529TIP3    H159002   4.480   1.886  16.773  0.4207  1.3256  1.1237
12529TIP3    H259003   4.329   1.895  16.763  0.3643 -1.2992 -1.5082
12530TIP3   OH259004   5.151   1.945  14.997  0.3717  0.1031 -0.2872
12530TIP3    H159005   5.072   1.989  14.967 -1.1390 -1.1522  1.6315
12530TIP3    H259006   5.129   1.912  15.084  3.3450  0.5441  0.7475
12531TIP3   OH259007   1.628   5.712  14.244  0.0010  0.2122  0.2111
12531TIP3    H159008   1.592   5.793  14.279  0.4748  0.4375  0.1876
12531TIP3    H259009   1.684   5.678  14.314 -0.7749 -0.4950  0.5139
12532TIP3   OH259010   0.613   1.894  11.100 -0.5492 -0.0996  0.2418
12532TIP3    H159011   0.571   1.808  11.095 -0.6911 -0.1283  1.5528
12532TIP3    H259012   0.562   1.949  11.039 -1.2722 -0.6139  0.3638
12533TIP3   OH259013   3.955   3.608   3.122  0.0385 -0.2859  0.5893
12533TIP3    H159014   3.875   3.574   3.162 -0.5018  0.9344  0.6019
12533TIP3    H259015   3.936   3.700   3.105  1.5734  0.1344  0.9472
12534TIP3   OH259016   2.254   6.368  16.094 -0.2431  0.0408 -0.6448
12534TIP3    H159017   2.327   6.385  16.034  0.6349 -0.1164  0.3413
12534TIP3    H259018   2.290   6.305  16.156 -1.6120 -0.9608 -0.8337
12535TIP3   OH259019   0.647   0.477   0.142 -0.4703 -0.8481 -0.3859
12535TIP3    H159020   0.559   0.480   0.181 -1.0450 -0.7238 -1.6480
12535TIP3    H259021   0.698   0.540   0.194 -1.2513 -0.5679  0.0646
12536TIP3   OH259022   3.013   1.587  12.812 -0.2426 -0.2875 -0.4732
12536TIP3    H159023   3.078   1.567  12.744 -2.4642 -0.7444 -2.6256
12536TIP3    H259024   2.988   1.502  12.847 -0.0119 -0.1535  0.0205
12537TIP3   OH259025   4.750   5.161   3.772  0.1583 -0.1963 -0.5065
12537TIP3    H159026   4.689   5.196   3.836  1.4754  0.0608  0.6580
12537TIP3    H259027   4.741   5.219   3.696 -1.3824 -0.4742 -0.5648
12538TIP3   OH259028   6.170   2.880   0.134  0.3618  0.3003 -0.1337
12538TIP3    H159029   6.190   2.918   0.048  0.4444 -0.2984 -0.3851
12538TIP3    H259030   6.230   2.806   0.142 -1.6384 -1.5310 -0.8858
12539TIP3   OH259031   3.638   1.193   2.944 -0.3760 -0.3163 -0.3789
12539TIP3    H159032   3.717   1.144   2.965  0.1642  1.1577  1.2348
12539TIP3    H259033   3.668   1.265   2.888 -0.8849 -0.7438 -1.2355
12540TIP3   OH259034   2.849   0.922  12.638 -0.3304  0.8395  0.2422
12540TIP3    H159035   2.874   1.005  12.597  1.9572  0.4154  0.6431
12540TIP3    H259036   2.829   0.864  12.565 -0.7154  1.3612 -0.0763
12541TIP3   OH259037   5.981   4.004  14.180  0.0393 -0.0600  0.9504
12541TIP3    H159038   6.052   3.940  14.177  0.3077  0.1249  2.5745
12541TIP3    H259039   6.019   4.083  14.141  0.3010 -0.3397  0.6351
12542TIP3   OH259040   4.764   5.618  11.523  0.1141 -0.6518 -0.7352
12542TIP3    H159041   4.856   5.641  11.504  1.1394 -3.0778  0.8267
12542TIP3    H259042   4.735   5.684  11.585 -0.3456  2.0104 -3.5216
12543TIP3   OH259043   1.081   5.707   4.043 -0.4921  0.3293  0.2724
12543TIP3    H159044   1.091   5.771   4.113 -0.9794 -0.2312  0.8746
12543TIP3    H259045   1.125   5.628   4.077  0.2782  0.3976 -0.5362
12544TIP3   OH259046   1.725   5.194   2.171  0.0960  0.0220 -0.2993
12544TIP3    H159047   1.742   5.155   2.257  0.8849 -0.8786 -0.8385
12544TIP3    H259048   1.723   5.288   2.187  0.0471 -0.1418  0.7332
12545TIP3   OH259049   0.857   3.528  14.962  0.3516 -0.4449  0.0163
12545TIP3    H159050   0.940   3.479  14.962  0.5633 -0.0908  0.1754
12545TIP3    H259051   0.790   3.462  14.982  0.9432 -0.1677  3.7429
12546TIP3   OH259052   6.736   2.507  13.698  0.0253  0.0890 -0.0313
12546TIP3    H159053   6.688   2.477  13.621 -1.6042 -0.2047  1.0617
12546TIP3    H259054   6.828   2.493  13.675 -0.4951 -2.8239 -0.7834
12547TIP3   OH259055   0.842   1.698   0.462  0.6419  0.2736 -0.0223
12547TIP3    H159056   0.901   1.768   0.490 -0.0554  0.1481  1.9151
12547TIP3    H259057   0.813   1.725   0.375  1.9283  1.3872 -0.1377
12548TIP3   OH259058   4.346   3.096  16.109 -0.3550  0.4709  0.2490
12548TIP3    H159059   4.432   3.057  16.092 -0.3873  0.0876  0.9246
12548TIP3    H259060   4.314   3.051  16.188  0.3258  3.0090  2.0890
12549TIP3   OH259061   0.669   5.219  13.181  0.6422 -0.3235  0.1592
12549TIP3    H159062   0.745   5.219  13.240  0.5426 -1.0792  0.2929
12549TIP3    H259063   0.594   5.217  13.240  0.5318 -0.4877  0.0120
12550TIP3   OH259064   1.944   5.027   5.748  0.0977  0.2984 -0.3687
12550TIP3    H159065   2.034   5.040   5.777  0.0967  1.0513 -0.6798
12550TIP3    H259066   1.894   5.016   5.829  0.6507 -1.4831 -0.2261
12551TIP3   OH259067   3.131   2.461  15.475 -0.1764 -0.1194  0.1518
12551TIP3    H159068   3.187   2.386  15.498 -1.1978 -0.7828  0.5631
12551TIP3    H259069   3.190   2.536  15.474  0.7818 -0.8581  0.2258
12552TIP3   OH259070   2.634   5.882  14.266 -0.3016  0.1823 -0.2313
12552TIP3    H159071   2.612   5.974  14.252  0.4431  0.3788 -0.1535
12552TIP3    H259072   2.684   5.856  14.189  0.1688  0.0698  0.1066
12553TIP3   OH259073   1.726   5.172  15.055 -0.0279 -0.1951  0.2118
12553TIP3    H159074   1.759   5.124  14.979 -0.2565 -0.8684  0.5294
12553TIP3    H259075   1.648   5.217  15.023  0.9054  1.0253 -0.4207
12554TIP3   OH259076   6.036   6.665  14.356 -0.2033  0.2104 -0.4096
12554TIP3    H159077   6.123   6.673  14.395  1.0092 -0.4254 -2.8057
12554TIP3    H259078   6.037   6.726  14.282 -1.9851  0.5465 -0.2028
12555TIP3   OH259079   4.124   4.939  14.957 -0.0228  0.0338 -0.4039
12555TIP3    H159080   4.146   4.954  15.049  2.4788 -0.0051 -0.9402
12555TIP3    H259081   4.198   4.974  14.908 -0.3920 -1.6854 -2.3173
12556TIP3   OH259082   2.202   5.616   1.380  0.6109 -0.4307 -0.2585
12556TIP3    H159083   2.253   5.680   1.329  0.4356 -0.5659 -0.6095
12556TIP3    H259084   2.164   5.668   1.451  0.9704 -0.2648 -0.1845
12557TIP3   OH259085   6.006   6.458   0.690  0.0969  0.6633 -0.0526
12557TIP3    H159086   5.978   6.502   0.770  2.4182  1.6864  0.2746
12557TIP3    H259087   6.101   6.449   0.700  0.4182  0.6345 -2.5897
12558TIP3   OH259088   1.688   4.519   2.154 -0.4880 -0.1837 -0.4662
12558TIP3    H159089   1.638   4.542   2.076 -1.7333  0.6283  0.5247
12558TIP3    H259090   1.626   4.470   2.209  0.4227 -0.9146 -0.0470
12559TIP3   OH259091   3.589   3.972  13.328  0.1993  0.1605 -0.3583
12559TIP3    H159092   3.580   3.894  13.383 -2.7399  0.9651  0.4929
12559TIP3    H259093   3.624   3.940  13.246 -1.8415 -2.3067 -0.3795
12560TIP3   OH259094   5.723   0.107   2.962 -0.1295 -0.3987  0.0628
12560TIP3    H159095   5.766   0.115   2.876 -0.8951  1.1939 -0.2035
12560TIP3    H259096   5.685   0.193   2.977 -0.2482 -0.7483  1.8955
12561TIP3   OH259097   6.339   0.453  14.382 -0.4648 -0.3645  0.0148
12561TIP3    H159098   6.343   0.472  14.288  0.3561  0.8361  0.2659
12561TIP3    H259099   6.261   0.400  14.392 -0.3662 -0.8311 -1.4008
12562TIP3   OH259100   0.281   5.347  13.943  0.2215 -0.2637 -0.7258
12562TIP3    H159101   0.281   5.329  14.037 -0.2867  1.2696 -0.4012
12562TIP3    H259102   0.195   5.386  13.927  1.0908  1.4952 -1.3864
12563TIP3   OH259103   1.450   3.790   4.360 -0.2402  0.5636 -0.3082
12563TIP3    H159104   1.514   3.749   4.301 -1.0146  0.5274 -1.1458
12563TIP3    H259105   1.390   3.719   4.383  0.6432  0.3235  1.3889
12564TIP3   OH259106   3.250   4.641  13.631  0.2410 -0.1485  0.2288
12564TIP3    H159107   3.327   4.616  13.580 -0.1460 -3.1406  0.9395
12564TIP3    H259108   3.286   4.699  13.700  1.7863 -1.0576  0.2413
12565TIP3   OH259109   2.704   2.470   4.753 -0.2288 -0.1042  0.4127
12565TIP3    H159110   2.678   2.443   4.840 -0.5919  0.1466  0.3825
12565TIP3    H259111   2.628   2.517   4.718  0.4731  1.1773  0.5592
12566TIP3   OH259112   3.763   5.960  14.089  0.3849 -0.2069  0.4663
12566TIP3    H159113   3.784   5.875  14.050  1.9721 -0.0975  0.9997
12566TIP3    H259114   3.713   5.939  14.167  2.7434 -0.8771  1.9023
12567TIP3   OH259115   0.278   6.737   2.342  0.0975  0.1304 -0.3264
12567TIP3    H159116   0.284   6.804   2.409  0.1229  0.8237 -1.0078
12567TIP3    H259117   0.204   6.683   2.368 -0.7302  1.1872 -0.4467
12568TIP3   OH259118   4.756   6.539   1.585  0.0309 -0.1032 -0.1196
12568TIP3    H159119   4.813   6.521   1.659 -0.4417 -0.6706  0.1052
12568TIP3    H259120   4.723   6.628   1.601  0.7214  0.1716 -0.1751
12569TIP3   OH259121   5.345   6.341  12.924 -0.1289 -0.0803 -0.2402
12569TIP3    H159122   5.417   6.402  12.904 -0.4296  0.9223  1.5373
12569TIP3    H259123   5.275   6.367  12.864 -0.1393  1.1370  0.2658
12570TIP3   OH259124   3.512   6.427  15.745 -0.0490 -0.4096  0.1509
12570TIP3    H159125   3.584   6.465  15.694 -0.5363  1.3487  0.7369
12570TIP3    H259126   3.538   6.336  15.757  1.1984 -0.2812 -1.2190
12571TIP3   OH259127   6.531   1.120   0.751  0.1886  0.3740 -0.1809
12571TIP3    H159128   6.454   1.153   0.797  0.6306  0.3457  0.6017
12571TIP3    H259129   6.502   1.108   0.661 -0.8588 -0.0857  0.1952
12572TIP3   OH259130   3.325   2.872   0.981 -0.1957  0.4018  0.4997
12572TIP3    H159131   3.235   2.849   0.957 -0.5471  1.5284  0.6955
12572TIP3    H259132   3.331   2.851   1.075 -0.2310  0.2838  0.4764
12573TIP3   OH259133   2.384   0.228   3.316 -0.1559  0.0549 -0.3151
12573TIP3    H159134   2.365   0.322   3.305  1.4170  0.3764 -0.5093
12573TIP3    H259135   2.309   0.194   3.365 -0.7946  1.3961 -0.3125
12574TIP3   OH259136   3.764   2.172   3.559  0.0453  0.6439  0.1042
12574TIP3    H159137   3.834   2.106   3.557 -0.4492  0.0739 -2.2579
12574TIP3    H259138   3.716   2.154   3.639  0.3066 -1.5032 -0.1567
12575TIP3   OH259139   4.501   5.914   3.781 -0.3558 -0.0176 -0.2784
12575TIP3    H159140   4.457   5.914   3.696 -1.6764 -0.2787  0.3823
12575TIP3    H259141   4.440   5.869   3.840 -0.2593  1.6411  1.1863
12576TIP3   OH259142   3.097   1.814  12.457  0.3471  0.0633  0.0516
12576TIP3    H159143   3.083   1.904  12.486 -0.8380 -0.5764  1.6405
12576TIP3    H259144   3.191   1.799  12.469  0.6233  1.2029 -0.6177
12577TIP3   OH259145   2.518   5.085   3.114  0.7855 -0.1410  0.3289
12577TIP3    H159146   2.585   5.150   3.131  0.8781  0.0224 -0.5826
12577TIP3    H259147   2.500   5.044   3.199  1.2206  0.5933  0.7755
12578TIP3   OH259148   4.630   3.315  14.761 -0.0066  0.2337  0.5145
12578TIP3    H159149   4.719   3.281  14.753  0.2613  1.2112 -1.2244
12578TIP3    H259150   4.574   3.240  14.744  0.4174 -0.6161  2.5805
12579TIP3   OH259151   4.641   4.307  14.908 -0.0785 -0.1080 -0.1946
12579TIP3    H159152   4.660   4.269  14.823  0.9580  0.8543 -0.4191
12579TIP3    H259153   4.709   4.373  14.921 -1.0708  0.7822  0.7276
12580TIP3   OH259154   5.724   1.487   1.562  0.2255 -0.4161  0.3044
12580TIP3    H159155   5.669   1.437   1.621 -1.9611  0.9728 -0.4345
12580TIP3    H259156   5.814   1.461   1.585 -0.6945 -2.9325  1.3938
12581TIP3   OH259157   4.940   3.437   0.773  0.0929 -0.4750  0.5167
12581TIP3    H159158   5.030   3.462   0.751 -0.1608  1.5435  1.5457
12581TIP3    H259159   4.892   3.442   0.691  0.9021 -1.6658 -0.0629
12582TIP3   OH259160   5.015   3.170   4.828 -0.5356 -0.1533 -0.0588
12582TIP3    H159161   5.022   3.172   4.732 -0.7196 -0.2458 -0.0732
12582TIP3    H259162   5.097   3.130   4.857 -1.1275 -1.5581 -0.2527
12583TIP3   OH259163   5.245   6.523   5.405 -0.2580 -0.1804 -0.2511
12583TIP3    H159164   5.227   6.562   5.319 -0.9847  0.1490  0.0409
12583TIP3    H259165   5.272   6.597   5.460 -1.6306 -0.0521  0.3007
12584TIP3   OH259166   3.405   0.060   5.627  0.3931  0.4474 -0.3838
12584TIP3    H159167   3.310   0.065   5.632  0.4606  0.5706  1.8895
12584TIP3    H259168   3.422  -0.019   5.576 -0.9267  0.1169 -0.3526
12585TIP3   OH259169   6.718   2.403   0.542  0.0003  0.1477 -0.4950
12585TIP3    H159170   6.780   2.390   0.614 -0.0940 -0.1022 -0.4562
12585TIP3    H259171   6.713   2.498   0.531  0.1661  0.1793 -0.3016
12586TIP3   OH259172   1.954   1.055   3.350 -0.7011 -0.1172 -0.4475
12586TIP3    H159173   1.997   1.052   3.436 -0.1627  1.9925 -0.5840
12586TIP3    H259174   1.879   1.113   3.364  1.4396  3.3792 -2.1367
12587TIP3   OH259175   1.662   5.371  11.745  0.4166  0.2925 -0.0655
12587TIP3    H159176   1.620   5.312  11.683  1.7009 -0.3339 -0.3817
12587TIP3    H259177   1.718   5.426  11.691 -0.1265  1.2357  0.3208
12588TIP3   OH259178   3.543   1.182  14.342  0.2838  0.0077  0.1132
12588TIP3    H159179   3.530   1.259  14.287  0.3670 -0.5298 -0.6760
12588TIP3    H259180   3.612   1.208  14.403 -1.5147  1.4837  1.6751
12589TIP3   OH259181   1.883   2.616   0.557 -0.0464  0.7477  0.4016
12589TIP3    H159182   1.830   2.690   0.587 -1.0437 -0.5843  2.1877
12589TIP3    H259183   1.821   2.561   0.508  0.6819  1.0672 -0.9133
12590TIP3   OH259184   1.219   6.656   4.595 -0.7603 -0.2725 -0.3417
12590TIP3    H159185   1.200   6.726   4.658 -0.2518  0.3143 -0.8328
12590TIP3    H259186   1.302   6.619   4.624 -1.2542 -0.9958  0.1883
12591TIP3   OH259187   2.492   0.029   5.782  0.0131 -0.1798 -0.0135
12591TIP3    H159188   2.560   0.033   5.715 -0.3638 -0.3137 -0.4201
12591TIP3    H259189   2.476  -0.065   5.793 -0.8266 -0.1382 -0.6948
12592TIP3   OH259190   6.107   6.678   1.575  0.0117 -0.5987 -0.2616
12592TIP3    H159191   6.097   6.653   1.483 -1.0744  0.4840 -0.4606
12592TIP3    H259192   6.152   6.762   1.572 -2.1413  0.6159  0.0487
12593TIP3   OH259193   3.525   6.545  13.638 -0.6681  0.0801  0.1419
12593TIP3    H159194   3.499   6.491  13.564 -0.4738 -0.6322  0.5819
12593TIP3    H259195   3.443   6.580  13.673 -0.7657  0.3622 -0.3593
12594TIP3   OH259196   2.992   4.901  10.540 -0.3951  0.1791 -0.5002
12594TIP3    H159197   3.052   4.834  10.507 -0.0263  0.0691  0.3824
12594TIP3    H259198   2.922   4.905  10.474 -0.0630 -0.5682 -0.9088
12595TIP3   OH259199   1.166   6.459  12.302  0.5000 -0.6633 -0.6204
12595TIP3    H159200   1.191   6.430  12.390  0.6581  0.5246 -0.2487
12595TIP3    H259201   1.231   6.421  12.244  1.5648  0.1332  0.0227
12596TIP3   OH259202   2.905   3.863  12.015 -0.4969 -0.5296 -0.3851
12596TIP3    H159203   2.877   3.878  12.106 -0.0123 -0.0633 -0.3074
12596TIP3    H259204   2.893   3.769  12.002  1.7523 -1.0879  0.9888
12597TIP3   OH259205   5.375   5.820   0.213  0.5452 -0.1191  0.2276
12597TIP3    H159206   5.386   5.729   0.239 -0.4010 -0.2745  0.1106
12597TIP3    H259207   5.290   5.823   0.171  0.4451  0.8740  0.4753
12598TIP3   OH259208   6.511   6.726   2.643  0.2133 -0.1891 -0.6127
12598TIP3    H159209   6.551   6.774   2.716 -0.1479 -0.2595 -0.3703
12598TIP3    H259210   6.519   6.634   2.668  0.1828 -0.2185 -0.7116
12599TIP3   OH259211   4.739   4.952   6.334  0.3141  0.5512  0.1603
12599TIP3    H159212   4.652   4.926   6.304  1.3899 -0.6273 -2.1892
12599TIP3    H259213   4.725   4.987   6.423 -2.3573 -0.6629  0.2929
12600TIP3   OH259214   1.885   5.465   0.633 -0.8199 -0.2566 -0.2191
12600TIP3    H159215   1.872   5.510   0.716 -2.3867 -1.1541  0.0559
12600TIP3    H259216   1.903   5.374   0.657  0.0909 -0.2640 -0.8426
12601TIP3   OH259217   4.220   3.253  14.180 -0.0196  0.0084 -1.0994
12601TIP3    H159218   4.274   3.276  14.104 -1.5409  2.0896 -1.6241
12601TIP3    H259219   4.136   3.296  14.164 -0.8725 -0.7217  1.0857
12602TIP3   OH259220   0.986   0.242  14.300  0.3783  0.3479  0.2958
12602TIP3    H159221   1.039   0.320  14.318  0.4241  0.9538 -2.0965
12602TIP3    H259222   0.898   0.276  14.284  0.3685 -0.0825 -0.6384
12603TIP3   OH259223   4.622   3.052   5.773  0.2056 -0.1591 -0.0416
12603TIP3    H159224   4.539   3.003   5.771  0.6986 -1.0877  1.0913
12603TIP3    H259225   4.660   3.030   5.858  0.8156  1.6061  0.1735
12604TIP3   OH259226   2.656   4.101   0.517 -0.1002 -0.0217  0.3976
12604TIP3    H159227   2.651   4.040   0.590  1.0824 -1.0364 -0.3209
12604TIP3    H259228   2.660   4.187   0.558 -0.4419 -0.5066  1.4919
12605TIP3   OH259229   6.566   5.119   1.162 -0.4432  0.5920  0.3130
12605TIP3    H159230   6.618   5.042   1.137  0.8112  1.3724  0.4192
12605TIP3    H259231   6.525   5.096   1.245  0.3302  0.2138  0.5928
12606TIP3   OH259232   1.444   5.868   5.566 -0.3661 -0.7276  0.1133
12606TIP3    H159233   1.528   5.891   5.607  0.7590  0.0562 -2.3983
12606TIP3    H259234   1.378   5.894   5.630  1.0773  3.9518  0.1382
12607TIP3   OH259235   0.553   3.225  15.406  0.1333 -0.4424 -0.1846
12607TIP3    H159236   0.476   3.169  15.396  0.4250 -0.7568 -0.6714
12607TIP3    H259237   0.543   3.292  15.338 -0.2541  0.1500  0.4424
12608TIP3   OH259238   2.380   0.148   0.956 -0.4037  0.0256  0.0569
12608TIP3    H159239   2.432   0.096   1.018 -0.7071 -2.2269 -1.4569
12608TIP3    H259240   2.445   0.192   0.901 -0.0878 -0.8254 -0.2687
12609TIP3   OH259241   2.582   4.205   2.788  0.0483  0.9763 -0.5966
12609TIP3    H159242   2.571   4.274   2.853 -0.6416 -0.5303  0.9735
12609TIP3    H259243   2.666   4.224   2.747 -0.9026  3.7213 -1.4990
12610TIP3   OH259244   2.140   2.647   2.120  0.1353  0.6389 -0.2754
12610TIP3    H159245   2.060   2.688   2.088 -1.0485 -0.9883  0.4413
12610TIP3    H259246   2.147   2.565   2.070  0.7947  0.2915  0.3609
12611TIP3   OH259247   5.098   0.164   3.919 -0.0583  0.7478  0.0054
12611TIP3    H159248   5.084   0.244   3.970 -1.0322  0.5059  0.1365
12611TIP3    H259249   5.081   0.190   3.828 -1.6253  0.4339  0.1720
12612TIP3   OH259250   3.922   6.163   4.515 -0.3894  0.1198 -0.4377
12612TIP3    H159251   3.997   6.210   4.550 -0.4436 -0.5804  0.6814
12612TIP3    H259252   3.851   6.179   4.578  0.0243 -2.6975  0.9221
12613TIP3   OH259253   3.630   5.675  16.797  0.1717 -0.2091 -0.3197
12613TIP3    H159254   3.600   5.758  16.761  0.9131 -0.3014 -1.1627
12613TIP3    H259255   3.643   5.619  16.721 -0.9618 -1.3338  0.2709
12614TIP3   OH259256   6.447   3.510   0.367 -0.0598  0.3334 -0.5777
12614TIP3    H159257   6.426   3.592   0.323  0.9300  1.0233  0.1732
12614TIP3    H259258   6.418   3.442   0.307 -0.2930  1.2350 -1.5143
12615TIP3   OH259259   0.542   4.082  13.859 -0.1000 -0.0576 -0.0340
12615TIP3    H159260   0.503   4.050  13.940 -0.0031 -0.5706 -0.1894
12615TIP3    H259261   0.608   4.016  13.836 -0.7207 -0.3540 -0.9917
12616TIP3   OH259262   0.187   3.502  14.221  0.1824  0.2321  0.7035
12616TIP3    H159263   0.114   3.549  14.260  0.0553  1.1493 -0.5714
12616TIP3    H259264   0.244   3.479  14.294  0.9124  3.5354  1.3074
12617TIP3   OH259265   4.567   2.851  14.157  0.6553  0.2621  0.1808
12617TIP3    H159266   4.610   2.817  14.236 -0.8103 -1.4069  0.3067
12617TIP3    H259267   4.486   2.891  14.189 -1.4346 -2.9568 -0.5842
12618TIP3   OH259268   5.737   5.845   0.577 -0.0436  0.1796 -0.6525
12618TIP3    H159269   5.749   5.755   0.546 -2.6693 -0.8133  0.9055
12618TIP3    H259270   5.675   5.884   0.516 -1.3289 -0.1367  0.4134
12619TIP3   OH259271   5.792   3.701   2.810  1.0728 -0.2217 -0.3203
12619TIP3    H159272   5.702   3.714   2.841  2.4852 -0.3950  4.7088
12619TIP3    H259273   5.810   3.777   2.754 -1.1921  1.6462  1.3051
12620TIP3   OH259274   2.276   4.745  17.113  0.5258 -0.5763 -0.3948
12620TIP3    H159275   2.336   4.673  17.134 -0.4834 -1.3383 -0.0552
12620TIP3    H259276   2.267   4.794  17.195  1.1680 -0.0900 -0.6100
12621TIP3   OH259277   3.574   4.758  14.149  0.4170  0.1497  0.4544
12621TIP3    H159278   3.567   4.686  14.087 -1.5800 -0.5181  1.3645
12621TIP3    H259279   3.483   4.777  14.175  1.0023  1.9790  1.3900
12622TIP3   OH259280   5.292   1.158   1.796 -0.1968  0.6872 -0.2230
12622TIP3    H159281   5.366   1.102   1.772  0.5303  1.4201  0.2400
12622TIP3    H259282   5.263   1.197   1.714  1.4391  2.1853 -0.1567
12623TIP3   OH259283   5.245   0.328  11.052 -0.6188 -0.1427 -0.1065
12623TIP3    H159284   5.283   0.391  10.992 -1.4443 -0.2101 -0.7249
12623TIP3    H259285   5.200   0.381  11.118 -1.1035 -0.0719 -0.4876
12624TIP3   OH259286   5.687   0.130   2.606  0.2798 -0.5758  0.2007
12624TIP3    H159287   5.685   0.037   2.584 -0.3925 -0.6513  0.5681
12624TIP3    H259288   5.624   0.139   2.677 -1.3874  0.5211 -1.3134
12625TIP3   OH259289   6.018   2.425   4.741 -0.0420 -0.2512 -0.3473
12625TIP3    H159290   5.973   2.502   4.778  1.8711  0.5978  0.3872
12625TIP3    H259291   5.959   2.393   4.673 -1.4813  1.1014  0.1899
12626TIP3   OH259292   4.568   2.670   4.224 -0.2534 -0.1898  0.4780
12626TIP3    H159293   4.598   2.686   4.314  0.8195 -1.2789  0.3543
12626TIP3    H259294   4.641   2.698   4.169 -2.1505  3.7805 -0.3905
12627TIP3   OH259295   6.106   6.556  16.673 -0.2546  0.8474 -0.2106
12627TIP3    H159296   6.070   6.521  16.755 -1.4452  0.1057 -1.0227
12627TIP3    H259297   6.101   6.483  16.611  0.6094  1.4061 -0.9578
12628TIP3   OH259298   3.999   0.750   5.474 -0.1891  0.8652  0.2565
12628TIP3    H159299   3.947   0.828   5.460 -1.1230  0.3546  0.8079
12628TIP3    H259300   3.939   0.688   5.516  0.6232 -0.0261  0.1338
12629TIP3   OH259301   0.644   0.569   4.255 -0.0356  0.7336 -0.3516
12629TIP3    H159302   0.719   0.611   4.297  2.0363 -0.9335 -2.1774
12629TIP3    H259303   0.590   0.642   4.225  3.7258  2.4599 -3.9908
12630TIP3   OH259304   5.081   1.695   4.375 -1.1758  0.2184 -0.5514
12630TIP3    H159305   5.014   1.746   4.330 -1.3276  1.4249  0.9561
12630TIP3    H259306   5.082   1.730   4.464  1.4954  0.2939 -0.5272
12631TIP3   OH259307   6.775   4.278   0.989  0.0187  0.4297  0.1039
12631TIP3    H159308   6.837   4.253   0.920 -0.8990 -1.1960 -0.1907
12631TIP3    H259309   6.702   4.318   0.941  0.2837  1.2161  0.3412
12632TIP3   OH259310   3.690   1.737   5.484  0.1672 -0.1777  0.2932
12632TIP3    H159311   3.605   1.769   5.514  0.3345  0.1843  0.3824
12632TIP3    H259312   3.727   1.810   5.435  0.9046  0.0737  1.1956
12633TIP3   OH259313   2.154   2.182   1.171 -0.3656  0.1787  0.2395
12633TIP3    H159314   2.079   2.238   1.147 -0.9852 -0.7689 -0.0929
12633TIP3    H259315   2.177   2.137   1.089 -0.7669 -1.0673  0.7865
12634TIP3   OH259316   0.836   5.866   2.035 -0.0878  0.3099  0.5219
12634TIP3    H159317   0.915   5.867   2.088  1.6213  1.5054 -1.8428
12634TIP3    H259318   0.851   5.796   1.971 -1.2783  0.0882  0.4576
12635TIP3   OH259319   2.487   6.615   0.093 -0.5173  0.1452 -0.0935
12635TIP3    H159320   2.436   6.601   0.173  1.6715 -3.0602  0.9187
12635TIP3    H259321   2.578   6.610   0.121  0.3678 -2.2348 -2.8330
12636TIP3   OH259322   4.562   6.396   3.518 -0.0503 -0.0106  0.2151
12636TIP3    H159323   4.530   6.309   3.496  0.4241 -0.4719  1.2829
12636TIP3    H259324   4.516   6.419   3.598 -2.2879  1.9382 -1.4859
12637TIP3   OH259325   6.044   2.303  15.224  0.3770  0.0157  0.1032
12637TIP3    H159326   6.048   2.380  15.168 -0.0643 -0.7808 -1.0679
12637TIP3    H259327   5.959   2.310  15.269 -0.1047 -0.2676 -0.7406
12638TIP3   OH259328   0.118   2.259   4.222 -0.1292  0.3110  0.4265
12638TIP3    H159329   0.125   2.345   4.263 -0.4763  0.3894  0.3214
12638TIP3    H259330   0.075   2.204   4.288  0.6573  0.0502  0.7387
12639TIP3   OH259331   6.206   3.795   5.898 -0.5321  0.3287  0.0417
12639TIP3    H159332   6.211   3.818   5.805  1.1867 -0.1573 -0.0292
12639TIP3    H259333   6.143   3.723   5.902  0.4490 -0.6364 -0.9986
12640TIP3   OH259334   2.280   4.553   4.160 -0.2420 -0.2217 -0.0443
12640TIP3    H159335   2.225   4.629   4.177  0.4753  0.3010 -0.0205
12640TIP3    H259336   2.368   4.588   4.154  0.1781 -1.1345  0.5607
12641TIP3   OH259337   0.488   6.312   1.350  0.0510 -0.2342 -0.0768
12641TIP3    H159338   0.421   6.278   1.290  0.0504 -0.4090  0.0228
12641TIP3    H259339   0.447   6.388   1.391 -0.4905 -0.9804  0.7988
12642TIP3   OH259340   3.091   5.760   0.975  0.8522 -0.3800  0.2810
12642TIP3    H159341   3.109   5.672   1.007  1.5233 -0.3625 -0.0239
12642TIP3    H259342   3.016   5.750   0.916  0.3975 -0.6042  0.8892
12643TIP3   OH259343   5.678   5.085   4.825  0.1109 -0.1243  0.5539
12643TIP3    H159344   5.707   5.027   4.895  0.1359 -0.4877  0.2398
12643TIP3    H259345   5.757   5.104   4.775  0.3346  1.1081  1.3243
12644TIP3   OH259346   0.203   5.675  15.295 -0.1986 -0.1376 -0.1945
12644TIP3    H159347   0.243   5.711  15.216 -0.2379  1.0431  0.3057
12644TIP3    H259348   0.271   5.682  15.362 -1.2145  2.0347  0.7038
12645TIP3   OH259349   4.365   0.857  13.713 -0.6053  0.3062  0.1953
12645TIP3    H159350   4.337   0.839  13.803  1.3552 -0.1409  0.7727
12645TIP3    H259351   4.362   0.771  13.670  2.6932 -0.4281  1.1614
12646TIP3   OH259352   5.163   5.363   3.169 -0.3727  0.2934 -0.5571
12646TIP3    H159353   5.073   5.378   3.143 -0.5751  0.1145  0.0172
12646TIP3    H259354   5.175   5.416   3.248  0.1586  0.6552 -0.8673
12647TIP3   OH259355   1.259   5.850   1.883 -0.1266  0.0549  0.1169
12647TIP3    H159356   1.254   5.755   1.875  1.9209 -0.4859  3.3848
12647TIP3    H259357   1.216   5.870   1.967 -0.9477  2.1177 -0.7187
12648TIP3   OH259358   4.756   6.757  16.105 -0.2554 -0.1772 -0.3478
12648TIP3    H159359   4.821   6.730  16.170  1.3596  1.2309 -1.2803
12648TIP3    H259360   4.681   6.788  16.156  0.8295  0.5551  0.8491
12649TIP3   OH259361   5.462   2.570  11.156  0.3083  0.3188 -0.1054
12649TIP3    H159362   5.515   2.508  11.106  0.2122  1.9845 -2.4715
12649TIP3    H259363   5.382   2.580  11.104 -0.5968  0.8398  1.3339
12650TIP3   OH259364   5.066   2.303  17.056 -0.0873  0.5093  0.5491
12650TIP3    H159365   5.138   2.258  17.098  0.2923  0.0147 -0.5785
12650TIP3    H259366   5.002   2.320  17.126  0.6121 -0.0605  1.3333
12651TIP3   OH259367   0.924   0.210   1.478  0.1369  0.3481  0.0695
12651TIP3    H159368   0.916   0.221   1.384  1.1383 -0.0294 -0.0719
12651TIP3    H259369   0.836   0.223   1.512 -0.1126  1.1268 -0.8521
12652TIP3   OH259370   4.324   6.542   4.557 -0.3973  0.9499  0.8733
12652TIP3    H159371   4.400   6.502   4.600 -1.1131 -0.8420  0.5527
12652TIP3    H259372   4.263   6.561   4.628 -0.3918  0.6960  0.9466
12653TIP3   OH259373   6.561   2.959  12.961  0.7285  0.4336  0.1807
12653TIP3    H159374   6.626   2.901  13.000  0.8287  0.1314 -0.4217
12653TIP3    H259375   6.561   2.936  12.868  0.0817  0.7418  0.0986
12654TIP3   OH259376   1.784   6.348  12.728  0.0083  0.6953 -0.3258
12654TIP3    H159377   1.730   6.391  12.794 -0.6497  1.7279 -1.4941
12654TIP3    H259378   1.851   6.412  12.706  1.1899 -0.2292  0.4307
12655TIP3   OH259379   1.258   2.122   1.765  0.2998  0.4786 -0.1596
12655TIP3    H159380   1.259   2.213   1.736  0.1486  0.1683 -1.2033
12655TIP3    H259381   1.263   2.071   1.684  2.2753 -0.4563  0.4772
12656TIP3   OH259382   5.158   3.511   1.502 -0.2667 -0.3924  0.0018
12656TIP3    H159383   5.216   3.584   1.523 -0.4617 -0.1323 -0.3668
12656TIP3    H259384   5.217   3.439   1.478  0.0487 -1.0675  2.4366
12657TIP3   OH259385   5.610   0.025   4.864  0.1435  0.1303  0.4035
12657TIP3    H159386   5.698   0.059   4.847  1.5329 -3.0422  0.5104
12657TIP3    H259387   5.556   0.061   4.794  2.1175  0.1166 -1.2202
12658TIP3   OH259388   6.482   5.815   0.558  0.3104 -0.8805 -1.1490
12658TIP3    H159389   6.399   5.798   0.513 -1.2646  0.6420  0.9800
12658TIP3    H259390   6.496   5.736   0.612 -0.9029 -0.3555  0.0144
12659TIP3   OH259391   4.758   2.226  11.718  0.1217  0.2589 -0.3979
12659TIP3    H159392   4.681   2.282  11.720 -0.7623 -0.9157 -0.2106
12659TIP3    H259393   4.770   2.203  11.625 -1.8665 -2.2675 -0.1551
12660TIP3   OH259394   2.489   5.703  12.048  0.2588  0.2173 -0.1139
12660TIP3    H159395   2.500   5.748  12.133  1.2246 -0.1516 -0.0357
12660TIP3    H259396   2.394   5.698  12.037  0.1050 -0.0529  1.1231
12661TIP3   OH259397   5.948   5.983  12.647 -0.2980 -0.2082 -0.0766
12661TIP3    H159398   5.966   5.971  12.740  1.1851  1.9746 -0.0062
12661TIP3    H259399   6.022   5.943  12.602 -0.3694 -0.1444 -0.2549
12662TIP3   OH259400   3.626   0.085   1.501 -0.3530 -0.1337  0.6392
12662TIP3    H159401   3.712   0.045   1.499 -1.0306 -1.6909 -1.4914
12662TIP3    H259402   3.595   0.072   1.590  1.5102  0.3452  1.4066
12663TIP3   OH259403   5.409   4.650   5.582 -0.1182 -0.5639 -0.4053
12663TIP3    H159404   5.355   4.650   5.661 -0.7512 -1.3000 -0.8314
12663TIP3    H259405   5.444   4.561   5.577  0.3643 -0.3608 -0.6571
12664TIP3   OH259406   0.309   3.831   6.594 -0.4465 -0.2887  0.4586
12664TIP3    H159407   0.263   3.802   6.673 -0.6929  1.3869  0.9542
12664TIP3    H259408   0.242   3.829   6.525 -0.4250 -0.9870  0.4482
12665TIP3   OH259409   1.793   4.275   1.365  0.3711 -0.0568  0.8125
12665TIP3    H159410   1.775   4.199   1.310  2.7008 -1.0831  1.3622
12665TIP3    H259411   1.766   4.249   1.453  1.6739 -0.4913  1.1015
12666TIP3   OH259412   2.308   1.392   0.681  0.2961  0.2710  0.1418
12666TIP3    H159413   2.391   1.408   0.637 -0.3501  2.4917 -0.4002
12666TIP3    H259414   2.320   1.428   0.769 -0.4077  1.7257 -0.3143
12667TIP3   OH259415   4.997   0.683   5.497 -0.2571 -0.2755  0.0266
12667TIP3    H159416   4.913   0.642   5.514  0.4011 -2.8043 -2.1106
12667TIP3    H259417   4.976   0.774   5.476 -2.4875 -0.8635 -0.5809
12668TIP3   OH259418   0.998   5.751  16.586 -0.6784 -0.0723  0.0412
12668TIP3    H159419   0.928   5.686  16.601  0.0245 -1.0271 -0.6630
12668TIP3    H259420   0.964   5.807  16.517 -1.0988  0.0046  0.3079
12669TIP3   OH259421   2.622   4.643  13.872  0.2173  0.3503  0.4764
12669TIP3    H159422   2.539   4.608  13.906  0.5897  0.3544  1.4186
12669TIP3    H259423   2.637   4.722  13.924 -0.2238  1.5260 -1.1124
12670TIP3   OH259424   4.557   3.121  12.933  0.2307 -0.2739 -0.0619
12670TIP3    H159425   4.617   3.183  12.892  1.6081 -0.4395  1.5593
12670TIP3    H259426   4.590   3.035  12.907  0.4794 -0.3585  0.5040
12671TIP3   OH259427   5.112   5.286  15.932  0.3604  0.3499  0.1896
12671TIP3    H159428   5.165   5.242  15.999  0.0386 -1.5080 -0.7258
12671TIP3    H259429   5.023   5.282  15.965  0.0568 -1.4349 -0.7163
12672TIP3   OH259430   0.515   2.917  14.024  0.4914 -0.8595 -0.3562
12672TIP3    H159431   0.537   2.868  14.104 -1.8045 -0.5337  0.5514
12672TIP3    H259432   0.450   2.981  14.053  2.5058  2.0240 -1.7340
12673TIP3   OH259433   1.232   2.791   0.183  0.1738  0.2027  0.3669
12673TIP3    H159434   1.187   2.848   0.120  0.0787 -0.4175 -0.1294
12673TIP3    H259435   1.323   2.789   0.153 -0.3746 -2.3229 -1.4591
12674TIP3   OH259436   4.974   6.131   4.205 -0.0290  0.4848  0.0020
12674TIP3    H159437   4.913   6.058   4.192  0.3703 -0.0344  0.8960
12674TIP3    H259438   4.918   6.206   4.226 -0.4094  0.2515 -0.1806
12675TIP3   OH259439   2.362   5.477   5.897 -0.3286 -0.0425 -0.1419
12675TIP3    H159440   2.435   5.467   5.957 -0.1642  1.5825 -0.0515
12675TIP3    H259441   2.398   5.526   5.823 -1.2640  0.5921 -0.1935
12676TIP3   OH259442   1.330   1.650  13.703  0.5497 -0.0605 -0.2471
12676TIP3    H159443   1.354   1.667  13.794 -1.5450  0.9380  0.1810
12676TIP3    H259444   1.401   1.596  13.669  0.8705 -1.3802  2.2708
12677TIP3   OH259445   2.010   3.063   0.530  0.6200  0.4163  0.3715
12677TIP3    H159446   1.954   3.139   0.547 -0.4048 -0.3183  0.3363
12677TIP3    H259447   1.961   2.988   0.565  1.5779 -0.2472  0.3335
12678TIP3   OH259448   4.207   0.325  15.919  0.1427  0.0725 -0.2691
12678TIP3    H159449   4.269   0.260  15.954 -1.2148 -1.8478 -1.2514
12678TIP3    H259450   4.197   0.302  15.827 -0.1094  1.9386 -0.7332
12679TIP3   OH259451   2.885   6.201  12.053  0.2184 -0.2724  0.3821
12679TIP3    H159452   2.835   6.121  12.041  0.7193 -0.5844  0.3443
12679TIP3    H259453   2.963   6.173  12.101 -0.4198  0.4706  1.9233
12680TIP3   OH259454   3.382   4.212   5.236  0.3619  0.2309  0.5216
12680TIP3    H159455   3.340   4.298   5.230  1.9124  1.0449  0.7400
12680TIP3    H259456   3.437   4.207   5.157 -1.4896 -1.6264 -0.7856
12681TIP3   OH259457   3.558   2.933   6.076  0.5746 -0.1438 -0.1164
12681TIP3    H159458   3.497   2.925   6.149  0.3991 -1.0393 -0.3510
12681TIP3    H259459   3.563   2.845   6.038  1.9534 -0.0789 -0.1453
12682TIP3   OH259460   5.000   0.163  13.167  0.5175  0.2303  0.0581
12682TIP3    H159461   5.087   0.201  13.176  1.1330 -1.2477  0.6598
12682TIP3    H259462   5.008   0.100  13.095 -0.7983  2.0012 -1.7602
12683TIP3   OH259463   3.133   4.523  11.635  0.6683  0.7187 -0.3040
12683TIP3    H159464   3.059   4.463  11.649  0.4365  1.0884  0.0766
12683TIP3    H259465   3.098   4.589  11.575  0.5522  1.1376  0.2195
12684TIP3   OH259466   5.451   2.553  11.697 -0.7102 -0.1612 -0.4559
12684TIP3    H159467   5.514   2.530  11.627  0.2199  0.3577  0.1871
12684TIP3    H259468   5.407   2.631  11.664 -0.3868 -0.0101 -0.5387
12685TIP3   OH259469   0.105   6.768  14.549  0.4215 -0.3754 -0.2220
12685TIP3    H159470   0.039   6.808  14.604  0.0256  0.2085 -1.1150
12685TIP3    H259471   0.146   6.841  14.502 -0.4924 -0.9873 -2.0664
12686TIP3   OH259472   1.040   4.372   0.190 -0.3687 -0.5537  0.0411
12686TIP3    H159473   1.107   4.362   0.258  0.4722 -0.8924 -0.8176
12686TIP3    H259474   1.025   4.284   0.157 -1.1429 -0.4595  0.1222
12687TIP3   OH259475   3.693   4.428   5.141 -0.1061 -0.3045  0.2098
12687TIP3    H159476   3.654   4.388   5.063  2.4084 -2.4464 -0.0620
12687TIP3    H259477   3.669   4.369   5.212  0.4975 -0.2258  0.4772
12688TIP3   OH259478   5.190   6.342   1.279 -0.3047  0.2764  0.6918
12688TIP3    H159479   5.251   6.271   1.297 -1.5396 -1.5679 -1.7571
12688TIP3    H259480   5.107   6.314   1.319 -0.3288  1.3202  1.4093
12689TIP3   OH259481   4.874   1.700   5.143 -0.4872 -0.2056 -0.0611
12689TIP3    H159482   4.946   1.722   5.202 -0.7473 -0.3992  0.3378
12689TIP3    H259483   4.887   1.608   5.121 -0.1161 -0.0056 -0.7051
12690TIP3   OH259484   3.805   0.146  17.254  0.5393 -0.3926  0.0660
12690TIP3    H159485   3.883   0.099  17.282  0.7675 -0.4379 -0.6171
12690TIP3    H259486   3.828   0.239  17.265  0.5812 -0.4122  0.1456
12691TIP3   OH259487   1.843   2.079   5.454 -0.4732  0.0837 -0.4311
12691TIP3    H159488   1.871   2.116   5.538  1.2589 -0.3553 -0.7836
12691TIP3    H259489   1.917   2.093   5.395 -0.8195 -1.5149 -1.3074
12692TIP3   OH259490   6.470   2.304  14.643 -0.8674 -0.0169 -0.0718
12692TIP3    H159491   6.431   2.238  14.700 -0.4479 -0.3722 -0.1888
12692TIP3    H259492   6.501   2.254  14.567 -0.1776  0.2558  0.0254
12693TIP3   OH259493   0.171   4.473   0.272 -0.1034 -0.9344  0.2253
12693TIP3    H159494   0.083   4.510   0.270  0.0828 -0.4909 -0.0193
12693TIP3    H259495   0.225   4.543   0.310  0.7728  0.1940 -2.7997
12694TIP3   OH259496   3.538   5.183  15.330  0.1425  0.8086 -0.1382
12694TIP3    H159497   3.508   5.216  15.415 -1.2809  1.8104 -0.9843
12694TIP3    H259498   3.545   5.262  15.275  2.0096  0.3055 -0.6981
12695TIP3   OH259499   1.767   0.095  15.677 -0.4766  0.2285 -0.0569
12695TIP3    H159500   1.720   0.012  15.672 -0.2544  0.0137  1.2560
12695TIP3    H259501   1.849   0.074  15.721 -0.5683  1.2037  0.6091
12696TIP3   OH259502   1.391   3.827  15.479  0.0421  0.5723 -0.4070
12696TIP3    H159503   1.327   3.892  15.452 -0.2779  0.2513 -0.4251
12696TIP3    H259504   1.470   3.848  15.430  0.0809  1.2253 -0.0726
12697TIP3   OH259505   4.778   4.347  16.643  0.3666  0.3347  0.2062
12697TIP3    H159506   4.731   4.383  16.568 -1.3423 -0.6616  0.7349
12697TIP3    H259507   4.785   4.420  16.704 -2.6977  0.0336  1.1016
12698TIP3   OH259508   6.420   3.407   6.215 -0.4625 -0.4150  0.0333
12698TIP3    H159509   6.345   3.366   6.173  0.4332 -1.4710 -0.5874
12698TIP3    H259510   6.383   3.481   6.264 -1.6422  0.5345 -2.1345
12699TIP3   OH259511   3.217   5.113   3.700  0.0255  0.0083  0.5874
12699TIP3    H159512   3.291   5.063   3.736  1.0166 -0.9289 -2.4428
12699TIP3    H259513   3.141   5.055   3.711  0.3560 -0.3913  0.8312
12700TIP3   OH259514   4.735   5.548  11.223  0.0675 -0.1956 -0.1910
12700TIP3    H159515   4.755   5.538  11.130  1.7342  0.2831  0.0884
12700TIP3    H259516   4.819   5.535  11.268 -0.5090  0.5462  1.1784
12701TIP3   OH259517   5.767   6.739  13.387  0.5582  0.0682  0.0964
12701TIP3    H159518   5.731   6.789  13.313 -0.0197 -0.7716 -0.2090
12701TIP3    H259519   5.852   6.708  13.356  2.3083  3.2094  1.2990
12702TIP3   OH259520   6.086   5.440  15.899  0.2762 -0.3917 -1.1607
12702TIP3    H159521   6.016   5.503  15.883  1.5284  1.0065 -1.3253
12702TIP3    H259522   6.045   5.354  15.883 -1.8363  0.2484  0.3500
12703TIP3   OH259523   3.663   4.059  15.670  0.2610  0.1304 -0.3193
12703TIP3    H159524   3.700   4.142  15.699 -0.3418  0.5189 -0.6641
12703TIP3    H259525   3.597   4.082  15.606 -0.6601 -0.5538  0.3496
12704TIP3   OH259526   6.481   6.781   4.675 -0.3291 -0.2537  0.3910
12704TIP3    H159527   6.484   6.789   4.580 -0.9941 -1.1904  0.2800
12704TIP3    H259528   6.569   6.751   4.699 -0.9780 -2.9031 -0.2589
12705TIP3   OH259529   2.525   6.240  14.621 -0.6060 -0.1097  0.3146
12705TIP3    H159530   2.508   6.319  14.672 -0.5056 -0.3659  0.7456
12705TIP3    H259531   2.621   6.232  14.620 -0.6492 -0.7480  1.0712
12706TIP3   OH259532   1.291   2.598  11.915 -0.8304 -0.9695  0.0828
12706TIP3    H159533   1.325   2.574  11.828 -0.2586  0.4736 -0.1242
12706TIP3    H259534   1.367   2.634  11.961 -1.6441  0.5071  0.3187
12707TIP3   OH259535   4.977   4.070   3.574 -0.1793 -0.6357  0.1807
12707TIP3    H159536   5.009   4.156   3.546 -1.0034 -0.3937 -0.0534
12707TIP3    H259537   4.889   4.088   3.609  0.8662 -0.8718  3.1983
12708TIP3   OH259538   5.768   0.182  12.509 -0.2875 -0.0757  0.0678
12708TIP3    H159539   5.838   0.228  12.463  0.0563 -0.5222  0.1413
12708TIP3    H259540   5.690   0.236  12.493  0.3506  1.2789  1.2874
12709TIP3   OH259541   5.806   5.815  12.157 -0.2205  0.0593 -0.1270
12709TIP3    H159542   5.798   5.889  12.097 -0.4696  0.7914  0.7684
12709TIP3    H259543   5.883   5.835  12.210  0.4278 -0.9348 -0.6683
12710TIP3   OH259544   5.975   3.334  14.021  0.2857  0.2960 -0.7384
12710TIP3    H159545   5.942   3.401  14.081 -1.0051  0.0643 -1.1509
12710TIP3    H259546   6.055   3.301  14.063 -0.3771  0.4056  0.6684
12711TIP3   OH259547   4.616   2.482   6.087 -0.4621 -0.1261  0.1234
12711TIP3    H159548   4.660   2.480   6.172 -0.7380 -1.2446  0.2587
12711TIP3    H259549   4.635   2.569   6.052  3.1048 -0.9993 -0.4700
12712TIP3   OH259550   6.295   1.058  16.255  0.1260  0.1513 -0.1309
12712TIP3    H159551   6.346   1.114  16.196  0.4935 -0.0630 -0.0169
12712TIP3    H259552   6.345   0.977  16.260 -1.7012 -1.2434 -2.3966
12713TIP3   OH259553   6.367   2.323   1.552 -0.6890  0.4165  0.2441
12713TIP3    H159554   6.324   2.398   1.509 -1.1726  0.5814  1.0084
12713TIP3    H259555   6.317   2.310   1.632  1.4681  1.4561  1.8380
12714TIP3   OH259556   4.992   1.547   3.130  0.0271  0.7674 -0.5925
12714TIP3    H159557   5.082   1.545   3.163 -0.9662  0.2081  2.4502
12714TIP3    H259558   4.938   1.547   3.209 -2.6884 -0.8033 -2.2879
12715TIP3   OH259559   6.152   5.374   1.325 -0.5229 -0.0031  0.2897
12715TIP3    H159560   6.187   5.335   1.405 -0.5419  0.8204  0.7198
12715TIP3    H259561   6.081   5.431   1.356 -0.7820  0.0334 -0.3518
12716TIP3   OH259562   2.191   2.016   1.621 -0.1977 -0.0038  0.1674
12716TIP3    H159563   2.185   1.996   1.527  0.1702  0.0669  0.1271
12716TIP3    H259564   2.184   2.111   1.626  0.7852  0.0821  0.1193
12717TIP3   OH259565   1.920   1.553   1.555  0.3426  0.0376  0.0843
12717TIP3    H159566   1.993   1.561   1.492  0.2751 -0.4157 -0.0511
12717TIP3    H259567   1.959   1.576   1.639  0.5822  0.0455 -0.0259
12718TIP3   OH259568   2.232   5.814   2.782  0.7266  0.3337 -0.0728
12718TIP3    H159569   2.158   5.875   2.783 -1.4899 -2.1058  2.2688
12718TIP3    H259570   2.302   5.861   2.828 -0.4022  1.6347  0.3995
12719TIP3   OH259571   6.498   5.301   4.758 -0.3666  0.4570  0.1116
12719TIP3    H159572   6.535   5.388   4.768 -2.5522  1.2677  1.6281
12719TIP3    H259573   6.515   5.257   4.841 -2.2743  0.6647  0.6448
12720TIP3   OH259574   6.031   1.576   3.134  0.0888  0.3040  0.4576
12720TIP3    H159575   6.095   1.559   3.065 -0.4117  0.9132 -0.1734
12720TIP3    H259576   6.078   1.558   3.215  0.5761 -0.7986 -0.0463
12721TIP3   OH259577   0.921   5.936   5.181 -0.3800  0.0880 -0.0262
12721TIP3    H159578   0.899   6.028   5.167 -4.2834 -0.5783  0.6690
12721TIP3    H259579   0.940   5.929   5.275  0.2532  0.2112 -0.1405
12722TIP3   OH259580   4.352   3.641  16.472  0.2696  0.3440  0.0454
12722TIP3    H159581   4.408   3.615  16.398  1.0875  0.7831  0.4977
12722TIP3    H259582   4.263   3.625  16.441  0.6479 -3.7159  0.5440
12723TIP3   OH259583   3.948   4.075  11.485  0.0100 -0.4558  0.9032
12723TIP3    H159584   4.026   4.033  11.519  0.2748 -1.4856 -0.8282
12723TIP3    H259585   3.981   4.141  11.423 -0.4692 -0.3002  0.8053
12724TIP3   OH259586   6.424   6.316  16.436  0.4153 -0.6393  0.3978
12724TIP3    H159587   6.444   6.410  16.444 -0.1030 -0.4337 -0.5327
12724TIP3    H259588   6.502   6.278  16.397 -0.0997 -0.2319 -1.1030
12725TIP3   OH259589   5.392   2.102  16.761 -0.1782 -0.4226  0.1939
12725TIP3    H159590   5.350   2.032  16.711  1.8947 -1.7061  0.1712
12725TIP3    H259591   5.469   2.061  16.800  0.0688  1.3886  1.7548
12726TIP3   OH259592   1.682   2.581   5.660  0.1418  0.3852 -0.4209
12726TIP3    H159593   1.611   2.560   5.599  0.2705  1.2910 -0.8861
12726TIP3    H259594   1.638   2.612   5.739  0.0158  1.5051 -0.9151
12727TIP3   OH259595   0.450   1.076   2.436  0.7419  0.0548 -0.9893
12727TIP3    H159596   0.539   1.080   2.400  1.3401  0.3189  0.4613
12727TIP3    H259597   0.460   1.031   2.520 -0.4083  0.5918 -0.5489
12728TIP3   OH259598   2.601   3.079   0.139  0.2215 -0.5733 -0.0037
12728TIP3    H159599   2.555   3.117   0.214 -0.1238 -1.8464  0.4724
12728TIP3    H259600   2.559   2.993   0.127  1.8593 -1.4010 -0.1377
12729TIP3   OH259601   5.348   5.046  14.860 -0.6560 -0.0559  0.1155
12729TIP3    H159602   5.269   5.088  14.897 -1.3984 -1.5287  0.2962
12729TIP3    H259603   5.415   5.061  14.926 -1.0344  0.4112  0.4062
12730TIP3   OH259604   5.223   0.498  14.006  0.1524 -0.1639 -0.3106
12730TIP3    H159605   5.181   0.453  13.933 -2.3280  0.5636  0.5969
12730TIP3    H259606   5.316   0.474  13.998 -0.5327 -2.6435 -1.8324
12731TIP3   OH259607   1.806   2.932  17.078  0.2205  0.1064 -0.7376
12731TIP3    H159608   1.891   2.976  17.082  0.6461 -0.7498 -0.0065
12731TIP3    H259609   1.746   2.991  17.122  0.7989 -0.0525  0.2885
12732TIP3   OH259610   2.681   4.443  11.193  0.5063 -0.1629 -0.5060
12732TIP3    H159611   2.593   4.465  11.225  1.1176  0.6388  0.6796
12732TIP3    H259612   2.686   4.483  11.106  0.1790  0.9620 -0.0139
12733TIP3   OH259613   5.934   3.327   3.802 -0.4287  0.5323  0.0808
12733TIP3    H159614   6.002   3.288   3.748 -1.4614  2.6475 -3.0432
12733TIP3    H259615   5.856   3.274   3.787 -0.2095 -0.2158  1.4086
12734TIP3   OH259616   0.706   2.355  14.770  0.5426  0.2704 -0.0287
12734TIP3    H159617   0.762   2.278  14.783  0.1842  0.0522  0.2189
12734TIP3    H259618   0.688   2.356  14.677 -0.7023 -0.8209  0.1839
12735TIP3   OH259619   5.928   5.155  16.131  0.0129  1.0051  0.6578
12735TIP3    H159620   5.939   5.183  16.040  2.1935 -0.6487  0.3158
12735TIP3    H259621   5.996   5.088  16.144 -0.8554  0.4953  3.2280
12736TIP3   OH259622   3.356   5.694  12.900 -0.3825  0.0321  0.2726
12736TIP3    H159623   3.421   5.759  12.876 -0.2504 -0.9576 -2.3154
12736TIP3    H259624   3.397   5.643  12.970  1.6504 -0.5052 -1.2206
12737TIP3   OH259625   5.771   5.765   4.571  0.3274  0.3521 -0.0749
12737TIP3    H159626   5.764   5.858   4.592  0.1999  0.0551  1.2937
12737TIP3    H259627   5.715   5.722   4.635  0.4587 -0.6836 -0.6335
12738TIP3   OH259628   5.663   2.228  12.005 -0.4920  0.0287 -0.4208
12738TIP3    H159629   5.614   2.307  11.983  0.0821  0.4977 -0.0361
12738TIP3    H259630   5.734   2.225  11.941 -0.0869  0.2212  0.0174
12739TIP3   OH259631   6.089   5.783  14.576 -0.1599  0.1901 -0.1844
12739TIP3    H159632   6.135   5.792  14.659  1.4809 -1.8628 -0.7729
12739TIP3    H259633   6.155   5.748  14.516 -1.7294  0.0352 -1.9189
12740TIP3   OH259634   0.414   1.926   5.725  0.3564 -0.2651 -0.0051
12740TIP3    H159635   0.327   1.947   5.690  0.3914 -0.5697 -0.2841
12740TIP3    H259636   0.416   1.966   5.811  0.4883  1.0297 -0.5880
12741TIP3   OH259637   6.670   1.429   6.777 -0.3687  0.2737  0.1915
12741TIP3    H159638   6.590   1.430   6.830  0.1849  1.2289  1.0393
12741TIP3    H259639   6.640   1.450   6.689 -1.3271 -1.5092  0.0415
12742TIP3   OH259640   0.981   5.463   5.667 -0.2609  0.2280 -0.8431
12742TIP3    H159641   1.003   5.379   5.708 -1.0510  0.5312  0.2797
12742TIP3    H259642   0.992   5.448   5.573 -0.5678 -1.1838 -0.6790
12743TIP3   OH259643   0.161   0.338  15.356 -0.5306  0.8041 -0.5114
12743TIP3    H159644   0.147   0.426  15.390 -0.6828 -0.3123  2.7055
12743TIP3    H259645   0.245   0.311  15.393 -2.1005 -1.5892  1.7324
12744TIP3   OH259646   0.914   5.057  14.632 -0.6350  0.2027  0.1109
12744TIP3    H159647   0.829   5.033  14.593  0.3695  0.5410 -2.4710
12744TIP3    H259648   0.917   5.152  14.624  1.0885  0.0208 -2.4871
12745TIP3   OH259649   6.500   4.164  11.744  0.4686  0.1172  0.3636
12745TIP3    H159650   6.572   4.196  11.799 -0.5789  0.9343  1.3187
12745TIP3    H259651   6.541   4.146  11.659  1.9036 -0.0121  1.0351
12746TIP3   OH259652   3.078   0.789   4.340  0.2625 -0.9207  0.0513
12746TIP3    H159653   3.148   0.745   4.389  1.5174  0.1363 -0.7407
12746TIP3    H259654   3.100   0.774   4.248  0.8535  1.4911 -0.2566
12747TIP3   OH259655   3.366   0.857  12.213  0.0419 -0.5379 -0.1356
12747TIP3    H159656   3.275   0.883  12.228  0.2976 -0.1621  0.8315
12747TIP3    H259657   3.417   0.913  12.272  1.1114  0.8267 -2.2298
12748TIP3   OH259658   3.883   6.041  13.106  0.5529 -0.0402 -0.2305
12748TIP3    H159659   3.916   6.087  13.029  0.1346 -0.6503 -0.7895
12748TIP3    H259660   3.932   5.959  13.108 -0.3427 -0.6035 -0.6140
12749TIP3   OH259661   6.540   0.799   4.630 -0.5917  0.3423 -0.3318
12749TIP3    H159662   6.463   0.794   4.574 -0.6434 -3.0607 -0.1468
12749TIP3    H259663   6.541   0.717   4.679  3.3730 -0.0188 -0.6455
12750TIP3   OH259664   5.556   1.584   1.094 -0.4750  0.4245  0.0951
12750TIP3    H159665   5.517   1.665   1.061  0.0224  0.2973 -0.8307
12750TIP3    H259666   5.595   1.609   1.178 -0.0360  1.2281 -0.3322
12751TIP3   OH259667   5.044   4.031  14.135  0.2392 -0.0940  0.1051
12751TIP3    H159668   4.950   4.045  14.121 -0.3778 -2.7668  1.0353
12751TIP3    H259669   5.063   4.079  14.215 -0.0587  1.3574 -0.6667
12752TIP3   OH259670   1.530   1.418   1.646 -0.1341  0.8700  0.3202
12752TIP3    H159671   1.438   1.403   1.667 -0.1951  1.4997  0.5057
12752TIP3    H259672   1.560   1.482   1.711  0.4116  0.7397  0.2051
12753TIP3   OH259673   3.330   2.612  12.590  0.3291 -0.1932 -0.3317
12753TIP3    H159674   3.355   2.566  12.509 -1.7369 -0.6579 -0.7499
12753TIP3    H259675   3.356   2.552  12.660  0.2377 -0.7302 -0.7471
12754TIP3   OH259676   0.085   0.942   5.411 -0.0827 -0.3240 -0.0119
12754TIP3    H159677   0.160   0.885   5.432 -0.9627 -0.7534  2.3268
12754TIP3    H259678   0.115   1.030   5.431 -0.0149 -0.4407  0.4161
12755TIP3   OH259679   0.585   3.727  17.191 -0.5412  0.6567 -0.0833
12755TIP3    H159680   0.518   3.675  17.236 -1.4618  1.3726 -0.5944
12755TIP3    H259681   0.545   3.750  17.107  0.3185  1.1724 -0.3624
12756TIP3   OH259682   5.898   0.942   1.382  0.0348 -0.1463 -0.0370
12756TIP3    H159683   5.837   1.009   1.412 -0.1752 -0.0508 -0.6456
12756TIP3    H259684   5.946   0.985   1.310  1.5642  0.1397  1.0889
12757TIP3   OH259685   5.818   1.711   3.335 -0.2280 -0.3151 -0.4658
12757TIP3    H159686   5.804   1.803   3.315  0.9285 -0.0360 -0.0714
12757TIP3    H259687   5.911   1.696   3.317 -0.0513 -1.0163  0.8931
12758TIP3   OH259688   0.675   3.538  12.443 -0.2773  0.2659  0.0007
12758TIP3    H159689   0.648   3.490  12.521 -2.3687  2.1344  0.5346
12758TIP3    H259690   0.768   3.556  12.455  0.0082 -1.6064  0.8402
12759TIP3   OH259691   6.342   5.299  15.732  0.4310  0.0615 -0.1548
12759TIP3    H159692   6.393   5.377  15.752  0.9871 -0.7951  2.0599
12759TIP3    H259693   6.261   5.332  15.692  2.1018  1.5060 -2.5699
12760TIP3   OH259694   0.496   5.876  16.285  0.5966  0.5001  0.3245
12760TIP3    H159695   0.472   5.809  16.220  0.4119  1.2275 -0.3775
12760TIP3    H259696   0.488   5.832  16.369  1.4273 -0.6495 -0.1773
12761TIP3   OH259697   2.437   1.494   4.229 -0.3475  0.5581 -0.1648
12761TIP3    H159698   2.443   1.533   4.142  1.5333  1.3925  0.2824
12761TIP3    H259699   2.518   1.445   4.239  0.2930  1.8903  1.7308
12762TIP3   OH259700   5.677   0.094  12.163  0.0653 -0.1738  0.1263
12762TIP3    H159701   5.731   0.116  12.239  2.2563 -1.7783 -0.8624
12762TIP3    H259702   5.731   0.117  12.087 -0.6370 -1.8040 -0.9209
12763TIP3   OH259703   4.604   1.349  12.980  0.0035  0.8355  0.2041
12763TIP3    H159704   4.541   1.419  12.998  0.9138  1.5196  0.8135
12763TIP3    H259705   4.552   1.282  12.935 -1.3746  0.9698  1.5034
12764TIP3   OH259706   2.534   1.564   4.895 -0.3766 -0.0627 -0.2111
12764TIP3    H159707   2.627   1.560   4.917 -0.1831  0.6804 -0.8295
12764TIP3    H259708   2.509   1.473   4.878  0.2894 -0.2402 -0.2555
12765TIP3   OH259709   3.537   4.588   2.261 -0.4004 -0.2330  0.5849
12765TIP3    H159710   3.528   4.554   2.350 -0.3888 -1.1142  0.2628
12765TIP3    H259711   3.448   4.609   2.234 -0.3927  0.1307  0.8389
12766TIP3   OH259712   4.204   3.199   1.993 -0.0281 -0.7592  0.4673
12766TIP3    H159713   4.157   3.201   2.076  0.8374  2.0661  1.0258
12766TIP3    H259714   4.177   3.280   1.949  1.2320 -1.0863 -0.9713
12767TIP3   OH259715   5.066   0.690   1.304 -0.1160  0.3693  0.7015
12767TIP3    H159716   5.088   0.743   1.227 -0.6557 -1.1203 -0.5171
12767TIP3    H259717   4.970   0.691   1.307 -0.5468 -4.0305 -2.0841
12768TIP3   OH259718   0.504   0.434  10.911 -0.2278  0.5001 -0.1908
12768TIP3    H159719   0.438   0.438  10.980  0.2567 -0.8105  0.3953
12768TIP3    H259720   0.532   0.342  10.911  2.0024  1.1231  0.0096
12769TIP3   OH259721   4.213   0.167  10.501 -0.2705 -0.0941  0.3011
12769TIP3    H159722   4.300   0.157  10.539 -0.1919 -0.7338 -0.0291
12769TIP3    H259723   4.165   0.221  10.564 -0.2031 -1.2834  1.4177
12770TIP3   OH259724   6.384   2.758   3.067  0.4469 -0.8167 -0.9550
12770TIP3    H159725   6.372   2.676   3.020 -0.8786 -0.8612 -0.5849
12770TIP3    H259726   6.370   2.735   3.159 -1.5650  0.0825 -0.9827
12771TIP3   OH259727   0.649   4.282  14.974  0.1154 -0.4658  0.2651
12771TIP3    H159728   0.679   4.207  15.027  0.6782  0.5735  1.4566
12771TIP3    H259729   0.693   4.357  15.012 -1.0428  0.5963 -0.4339
12772TIP3   OH259730   0.015   3.545  16.030  0.2526 -0.0410  0.1479
12772TIP3    H159731   0.068   3.618  15.996  0.5742 -1.8092 -3.6425
12772TIP3    H259732  -0.029   3.509  15.953 -2.1377 -2.1573  2.3047
12773TIP3   OH259733   5.886   0.283  11.695  0.1206 -0.7015  0.6380
12773TIP3    H159734   5.796   0.293  11.665  0.1316  0.4066  0.9155
12773TIP3    H259735   5.900   0.357  11.754  2.2639  1.2346 -2.0135
12774TIP3   OH259736   4.249   3.443   1.207  0.4449 -0.1353 -0.6466
12774TIP3    H159737   4.326   3.445   1.151  0.0962  0.6005 -1.1124
12774TIP3    H259738   4.231   3.350   1.221  0.5545 -0.3257 -1.7328
12775TIP3   OH259739   2.163   2.101  10.508  0.5758 -0.0385  0.0100
12775TIP3    H159740   2.100   2.030  10.521  0.0914  0.6797  2.0499
12775TIP3    H259741   2.248   2.057  10.502  0.1939 -0.8532  0.4108
12776TIP3   OH259742   5.867   4.304   3.357  0.0814  0.2046  0.1648
12776TIP3    H159743   5.864   4.265   3.269  1.0197 -1.3972  0.7965
12776TIP3    H259744   5.806   4.378   3.353 -1.6589 -1.2144 -1.1758
12777TIP3   OH259745   0.705   0.015   0.102  0.0354  0.4155 -0.2004
12777TIP3    H159746   0.731  -0.051   0.165 -0.1012  0.4102 -0.1503
12777TIP3    H259747   0.755   0.093   0.126 -0.0134  0.4123 -0.0880
12778TIP3   OH259748   4.827   4.230   4.267  0.1680 -0.5408  0.0273
12778TIP3    H159749   4.892   4.260   4.330  0.6193  0.8847 -1.0565
12778TIP3    H259750   4.869   4.159   4.220  0.2542 -0.8401  0.5554
12779TIP3   OH259751   2.588   1.629  12.061 -0.3144 -0.0089 -0.1023
12779TIP3    H159752   2.543   1.616  11.978 -0.8674  1.1932 -0.0062
12779TIP3    H259753   2.680   1.640  12.037 -0.5466  0.8755 -0.6156
12780TIP3   OH259754   1.229   3.151   3.214  0.0104 -0.6601  0.2369
12780TIP3    H159755   1.281   3.158   3.134  0.3830 -1.4281  0.3960
12780TIP3    H259756   1.293   3.162   3.285 -0.2133 -0.6221  0.4356
12781TIP3   OH259757   5.269   2.349  13.814  0.2686 -0.0835  0.0748
12781TIP3    H159758   5.335   2.416  13.793 -0.8299  0.6035 -1.2966
12781TIP3    H259759   5.196   2.368  13.756 -1.3764 -0.5373  1.8730
12782TIP3   OH259760   1.734   1.049  12.255  0.6202  0.3847  0.6324
12782TIP3    H159761   1.677   1.125  12.244 -1.0510 -0.9503 -0.4461
12782TIP3    H259762   1.808   1.066  12.197 -0.2073  0.7722 -0.3378
12783TIP3   OH259763   0.472   5.653   0.799  0.3223  0.1977  0.0087
12783TIP3    H159764   0.490   5.584   0.862 -1.6533 -0.4882 -0.1086
12783TIP3    H259765   0.491   5.614   0.714 -1.6824 -0.6151 -0.1353
12784TIP3   OH259766   3.640   5.102  15.630 -0.4093 -0.0327  0.4255
12784TIP3    H159767   3.698   5.144  15.567 -0.4915 -0.7189 -0.1111
12784TIP3    H259768   3.592   5.037  15.580  1.8172 -2.9135  1.7599
12785TIP3   OH259769   5.290   6.553  15.191  0.3986  0.3949  0.3503
12785TIP3    H159770   5.306   6.532  15.098 -2.5855 -0.5889 -0.0348
12785TIP3    H259771   5.365   6.515  15.237  0.8387 -1.0643 -1.4584
12786TIP3   OH259772   6.524   1.449  15.454 -0.1956 -0.6168  0.3602
12786TIP3    H159773   6.461   1.457  15.525 -1.1389  3.4966 -0.6556
12786TIP3    H259774   6.581   1.525  15.464  2.9691 -2.7017 -0.3914
12787TIP3   OH259775   1.777   1.262  12.539 -0.5375  0.0040 -0.7856
12787TIP3    H159776   1.832   1.317  12.483 -1.3612  1.4865 -0.1915
12787TIP3    H259777   1.839   1.213  12.592  0.3459  2.9100  1.1170
12788TIP3   OH259778   6.730   4.716  11.813  0.3648  0.1396 -0.5605
12788TIP3    H159779   6.757   4.686  11.900  1.0720  1.0355 -0.4641
12788TIP3    H259780   6.671   4.647  11.782  0.3918 -0.3706  0.4734
12789TIP3   OH259781   0.096   1.511  16.332 -0.1053 -0.2775 -0.9681
12789TIP3    H159782   0.072   1.560  16.411 -0.9952 -2.1774  0.0191
12789TIP3    H259783   0.014   1.500  16.284  0.4165  0.7913 -2.1547
12790TIP3   OH259784   1.361   4.644  11.561  0.4632  0.8159 -0.0755
12790TIP3    H159785   1.381   4.662  11.469 -0.8123  2.0516 -0.1369
12790TIP3    H259786   1.266   4.643  11.566  0.4434  2.8136  1.5539
12791TIP3   OH259787   5.154   3.619   0.766  0.0583  0.3458 -0.0541
12791TIP3    H159788   5.128   3.711   0.770  1.5702  0.7662  2.3568
12791TIP3    H259789   5.245   3.619   0.795  0.4198 -1.8175 -1.0479
12792TIP3   OH259790   1.092   2.144   0.096  0.0060  0.1193  0.4940
12792TIP3    H159791   1.081   2.108   0.184 -0.1411  1.8727  1.2333
12792TIP3    H259792   1.082   2.238   0.107  1.4177  0.5214 -1.1683
12793TIP3   OH259793   0.929   2.243  11.436 -0.3003  0.0392 -0.3717
12793TIP3    H159794   0.952   2.326  11.394  0.7675  0.5981  1.2126
12793TIP3    H259795   0.844   2.220  11.400 -0.8328  2.0585 -0.4987
12794TIP3   OH259796   1.178   5.611   0.163 -0.3907 -0.3700  0.7418
12794TIP3    H159797   1.159   5.694   0.208  0.5892  0.2294  0.0925
12794TIP3    H259798   1.142   5.622   0.075 -0.7896 -0.8672  0.8419
12795TIP3   OH259799   3.385   1.544   1.942  0.5108 -0.0565 -0.1519
12795TIP3    H159800   3.361   1.633   1.917 -1.3239 -0.3285  0.4768
12795TIP3    H259801   3.477   1.535   1.917  0.7588  2.0443 -0.1174
12796TIP3   OH259802   5.731   4.886  12.098 -0.7241 -0.2676 -0.5395
12796TIP3    H159803   5.744   4.869  12.005  1.1530  0.6068 -0.4998
12796TIP3    H259804   5.795   4.830  12.142  0.4681  1.4004 -0.0058
12797TIP3   OH259805   5.786   5.772  14.284  0.0653  0.4910 -0.2800
12797TIP3    H159806   5.752   5.765  14.195  2.9895 -0.8191 -1.4165
12797TIP3    H259807   5.801   5.682  14.312  1.8912  0.9551  0.3862
12798TIP3   OH259808   5.887   4.878  15.414  0.1914  0.0504 -0.0340
12798TIP3    H159809   5.823   4.898  15.483  2.5873  2.4684  1.6981
12798TIP3    H259810   5.891   4.958  15.361 -0.6021 -1.2865 -2.2882
12799TIP3   OH259811   3.662   6.700  14.119  0.5309  0.6460 -0.8062
12799TIP3    H159812   3.606   6.743  14.183  2.0823  0.6317  0.6244
12799TIP3    H259813   3.626   6.612  14.110  0.4872  0.5366  0.3276
12800TIP3   OH259814   4.262   2.982   3.876 -0.4505  0.0229 -0.2794
12800TIP3    H159815   4.290   2.925   3.947 -0.0969  0.2315 -0.2491
12800TIP3    H259816   4.343   3.007   3.832 -0.6120  0.4069 -0.3639
12801TIP3   OH259817   3.980   5.106   2.605  0.0340 -0.3727  0.7987
12801TIP3    H159818   3.956   5.097   2.513  0.5873  0.9961  0.5129
12801TIP3    H259819   4.005   5.017   2.632 -1.1961 -1.0045 -0.0467
12802TIP3   OH259820   3.028   0.821  14.605  0.0002 -0.4785  0.3928
12802TIP3    H159821   3.063   0.786  14.523  0.1977 -0.8006  0.6127
12802TIP3    H259822   3.079   0.777  14.674  0.6158  0.6055  0.6693
12803TIP3   OH259823   2.677   2.572  16.298 -0.2534  0.2109 -0.3199
12803TIP3    H159824   2.745   2.516  16.260 -0.9342 -0.3879 -0.6873
12803TIP3    H259825   2.696   2.659  16.263 -1.3494 -0.4474 -2.8022
12804TIP3   OH259826   5.090   3.894  12.605 -0.7961 -0.3194  0.5376
12804TIP3    H159827   5.013   3.920  12.555 -0.6444  1.1714  1.0439
12804TIP3    H259828   5.151   3.967  12.596  1.3932 -2.2417 -1.4533
12805TIP3   OH259829   1.995   0.194  13.468  0.1917  0.8508 -0.0093
12805TIP3    H159830   1.919   0.232  13.512  1.1101  0.9289  1.5734
12805TIP3    H259831   1.971   0.193  13.375 -1.3177  1.8369  0.3417
12806TIP3   OH259832   6.420   5.252   5.313  0.6028  0.4024 -0.6701
12806TIP3    H159833   6.384   5.340   5.302 -1.0511 -0.4182 -2.4400
12806TIP3    H259834   6.375   5.216   5.390 -0.7792  0.1920 -1.5394
12807TIP3   OH259835   2.621   1.689  16.904 -0.4931 -0.3014 -0.0864
12807TIP3    H159836   2.533   1.687  16.866 -0.5613  0.0614  0.0493
12807TIP3    H259837   2.606   1.689  16.999 -0.3354 -0.6743 -0.0608
12808TIP3   OH259838   4.769   5.191   5.091  0.5736 -0.2672 -0.1908
12808TIP3    H159839   4.839   5.191   5.026  0.1063 -0.7784 -0.7110
12808TIP3    H259840   4.706   5.127   5.058  0.0787 -0.1521  0.5030
12809TIP3   OH259841   6.054   3.606   2.866 -0.4404 -0.3248  0.4067
12809TIP3    H159842   6.029   3.523   2.908 -0.5684 -0.3906  0.2022
12809TIP3    H259843   5.978   3.663   2.881 -0.4039 -0.2847  0.4382
12810TIP3   OH259844   5.508   0.575  13.983  0.4452  0.2765 -0.0951
12810TIP3    H159845   5.546   0.574  13.895  2.3086 -3.1864  0.5708
12810TIP3    H259846   5.569   0.625  14.036  2.2210 -2.0224  0.1763
12811TIP3   OH259847   1.953   3.461   2.835 -0.3711 -0.3729 -0.4900
12811TIP3    H159848   1.963   3.503   2.921  0.4247 -0.4902 -0.5134
12811TIP3    H259849   1.985   3.526   2.773  0.9351 -1.0025 -0.5202
12812TIP3   OH259850   2.191   3.939   5.944 -0.0564  0.1889  0.1525
12812TIP3    H159851   2.191   3.858   5.996 -0.1974  0.9073  1.2967
12812TIP3    H259852   2.192   4.009   6.009 -0.4394  1.1199 -0.8243
12813TIP3   OH259853   0.710   4.768  15.846 -0.2589 -0.6973 -0.1786
12813TIP3    H159854   0.762   4.737  15.920 -1.0353  0.1004  0.7178
12813TIP3    H259855   0.732   4.708  15.774 -0.9360 -2.6840  1.2079
12814TIP3   OH259856   3.818   4.745  16.464  0.3367 -0.0848  0.2460
12814TIP3    H159857   3.857   4.743  16.551  2.5437 -2.8879 -0.6551
12814TIP3    H259858   3.869   4.811  16.416  1.1568 -0.6982  0.2597
12815TIP3   OH259859   1.696   6.274   0.621 -0.0718 -0.3006 -0.8540
12815TIP3    H159860   1.696   6.292   0.527  1.2635  0.7632 -0.6704
12815TIP3    H259861   1.708   6.179   0.627 -0.1647 -0.3781 -1.7501
12816TIP3   OH259862   2.385   1.078   4.774  0.5051  0.6024 -0.5989
12816TIP3    H159863   2.319   1.069   4.705  0.3353 -1.1788 -0.2448
12816TIP3    H259864   2.365   1.008   4.836  1.1034  1.7156  0.9098
12817TIP3   OH259865   1.828   5.330   1.518 -0.0227  0.0622 -0.0699
12817TIP3    H159866   1.737   5.330   1.548  0.1810 -0.3382  0.5591
12817TIP3    H259867   1.870   5.401   1.567  0.0413  0.1582 -0.2601
12818TIP3   OH259868   5.565   2.756   4.265 -0.2908  0.4253 -0.5647
12818TIP3    H159869   5.624   2.832   4.264 -1.4110  1.3939  1.2828
12818TIP3    H259870   5.621   2.682   4.240  1.4467  1.4624  0.0814
12819TIP3   OH259871   0.414   1.456   4.596 -0.4068  0.1444 -0.2591
12819TIP3    H159872   0.471   1.385   4.569 -0.4171  0.3485 -0.8439
12819TIP3    H259873   0.473   1.521   4.635 -0.2414  0.3259 -0.8013
12820TIP3   OH259874   2.008   2.190  14.061 -0.3402  0.2127 -0.1992
12820TIP3    H159875   1.928   2.195  14.008 -2.0286  1.9168  2.3034
12820TIP3    H259876   2.025   2.096  14.070 -3.8440 -0.4107  1.5499
12821TIP3   OH259877   4.831   0.379   3.790  0.0549  0.7895  0.5430
12821TIP3    H159878   4.798   0.310   3.848 -3.3618 -0.7946 -2.8540
12821TIP3    H259879   4.901   0.337   3.741 -0.2325  0.5639  0.3187
12822TIP3   OH259880   0.370   3.869   3.974 -0.4260  0.9744  0.1509
12822TIP3    H159881   0.358   3.901   4.064 -1.3114 -0.8970  0.7489
12822TIP3    H259882   0.439   3.924   3.938 -0.0851  1.8064  1.9665
12823TIP3   OH259883   2.721   4.251  15.759 -0.0143  0.1791 -0.1838
12823TIP3    H159884   2.778   4.175  15.745 -0.8692 -0.5827  0.2945
12823TIP3    H259885   2.769   4.325  15.723  0.9071 -0.5724 -0.5349
12824TIP3   OH259886   0.006   3.914  14.276 -0.1778 -0.1078  0.2226
12824TIP3    H159887   0.013   3.831  14.227 -0.9376 -1.1294  1.7715
12824TIP3    H259888   0.096   3.936  14.298 -0.0944 -1.6773  1.6061
12825TIP3   OH259889   5.249   4.394  12.604 -0.3621 -0.3239  0.0243
12825TIP3    H159890   5.344   4.379  12.612 -0.4022  0.2996  3.2980
12825TIP3    H259891   5.241   4.488  12.589 -0.4717 -0.3725 -0.2234
12826TIP3   OH259892   0.857   4.736   1.422 -0.2655  0.4900 -0.0368
12826TIP3    H159893   0.861   4.654   1.374 -0.7848 -0.0621  0.8354
12826TIP3    H259894   0.946   4.749   1.457 -0.5595 -0.5333  1.1508
12827TIP3   OH259895   6.539   3.611   2.613 -0.3808 -0.2661 -0.1296
12827TIP3    H159896   6.624   3.627   2.655  0.8435  0.0610 -2.5571
12827TIP3    H259897   6.479   3.670   2.658  1.6123  2.7837 -1.1342
12828TIP3   OH259898   0.347   6.040   2.071 -0.1807 -0.1714  0.2365
12828TIP3    H159899   0.388   5.959   2.102 -0.0963 -0.8681 -1.6014
12828TIP3    H259900   0.388   6.057   1.986 -0.3871  1.6752  0.4654
12829TIP3   OH259901   1.124   2.655  13.724  0.0006  0.1760  0.6073
12829TIP3    H159902   1.203   2.706  13.712  0.7808 -1.0636  0.2615
12829TIP3    H259903   1.147   2.590  13.791 -0.4461 -0.7235 -0.0891
12830TIP3   OH259904   6.549   2.971   6.749 -0.6841 -0.7147  0.0807
12830TIP3    H159905   6.529   2.918   6.671  1.6317  0.3326 -1.3551
12830TIP3    H259906   6.638   2.944   6.774  0.2261  1.7754 -0.1793
12831TIP3   OH259907   3.409   1.429  15.088  0.1995  0.9400  0.2000
12831TIP3    H159908   3.379   1.387  15.007  0.6009 -0.7940  0.9042
12831TIP3    H259909   3.475   1.493  15.059  1.5283 -0.7757 -0.7626
12832TIP3   OH259910   6.007   0.743   3.827  0.0431 -0.4975 -0.1573
12832TIP3    H159911   5.915   0.720   3.841  0.5733 -1.1656  2.7247
12832TIP3    H259912   6.010   0.770   3.735 -2.9518 -0.7405 -0.4468
12833TIP3   OH259913   4.037   5.280  14.381 -0.4453  0.4921  0.5970
12833TIP3    H159914   4.047   5.279  14.476  0.3327  0.1819  0.5134
12833TIP3    H259915   4.047   5.189  14.354  2.6999  0.9205 -0.0926
12834TIP3   OH259916   5.913   1.062  16.611  0.7377 -0.1813 -0.1006
12834TIP3    H159917   5.924   1.013  16.693 -0.2245  0.0167  0.1597
12834TIP3    H259918   5.963   1.011  16.547  1.2859 -0.4862  0.5419
12835TIP3   OH259919   3.848   1.830  11.365 -0.9146  0.5034  0.3776
12835TIP3    H159920   3.926   1.861  11.318 -0.6228 -0.4741  0.1955
12835TIP3    H259921   3.864   1.736  11.378 -1.0336  0.7195  2.3671
12836TIP3   OH259922   4.056   5.788   6.126  0.7579 -0.0241  0.0240
12836TIP3    H159923   3.965   5.811   6.142  0.7833  0.4219 -0.4499
12836TIP3    H259924   4.098   5.794   6.211  0.2474 -0.7056  0.3367
12837TIP3   OH259925   0.140   2.595   0.649 -0.2682 -0.4136  0.7441
12837TIP3    H159926   0.184   2.637   0.575  1.4087  1.3377  2.6350
12837TIP3    H259927   0.056   2.640   0.654  0.6402  1.2817  1.4126
12838TIP3   OH259928   3.672   3.574   4.064  0.7102 -0.3679 -0.1266
12838TIP3    H159929   3.655   3.596   4.155  1.6881 -0.9699  0.2229
12838TIP3    H259930   3.588   3.584   4.020  0.2128 -0.1354  0.8523
12839TIP3   OH259931   6.554   1.884   2.885 -0.1939 -0.0240 -0.1256
12839TIP3    H159932   6.544   1.869   2.791  2.2002 -3.9499 -0.0131
12839TIP3    H259933   6.575   1.977   2.893 -1.4154  0.6511 -3.3071
12840TIP3   OH259934   6.021   6.020  15.743  0.0545  0.6567 -0.2309
12840TIP3    H159935   6.114   6.028  15.724  0.5647 -2.1236  0.7063
12840TIP3    H259936   5.995   6.108  15.773  2.3912  1.4491 -0.3496
12841TIP3   OH259937   0.707   2.308  16.450  0.3324 -0.1474 -0.0819
12841TIP3    H159938   0.630   2.325  16.395 -0.1133  0.4743  0.7120
12841TIP3    H259939   0.715   2.212  16.451 -1.7001 -0.3637  1.4949
12842TIP3   OH259940   1.590   0.111  15.430 -0.4203 -0.1180  0.3869
12842TIP3    H159941   1.655   0.102  15.499  0.2946 -1.5382 -0.4253
12842TIP3    H259942   1.511   0.071  15.464  0.2600 -1.8795  0.0063
12843TIP3   OH259943   4.572   2.050   5.413 -0.2882 -0.0381 -0.3553
12843TIP3    H159944   4.490   2.013   5.377 -0.9750  1.8415 -0.8383
12843TIP3    H259945   4.639   1.987   5.387 -1.0374  0.2103 -3.3317
12844TIP3   OH259946   2.754   6.066   3.272 -0.0308  0.7821 -0.0080
12844TIP3    H159947   2.778   6.088   3.182  1.2699 -0.7562 -0.0787
12844TIP3    H259948   2.726   5.974   3.268  1.0492  0.3583  1.3032
12845TIP3   OH259949   2.008   4.459  13.071 -0.8154  0.6404 -0.1587
12845TIP3    H159950   2.076   4.399  13.103 -0.8859 -0.3179 -1.6819
12845TIP3    H259951   1.926   4.419  13.100 -0.8666 -0.0925 -1.2392
12846TIP3   OH259952   6.555   3.466   3.704  0.0725 -0.4061 -0.2891
12846TIP3    H159953   6.626   3.408   3.733 -0.5212 -0.2046  1.7510
12846TIP3    H259954   6.525   3.509   3.785 -2.5170 -0.6660 -1.0169
12847TIP3   OH259955   3.702   2.500   2.903 -0.5911  0.2366 -0.2946
12847TIP3    H159956   3.618   2.533   2.934 -0.2057  0.0975  0.9702
12847TIP3    H259957   3.760   2.576   2.905  0.2499 -0.3814  2.4444
12848TIP3   OH259958   0.056   5.764  13.698  0.1096  0.2258  0.3058
12848TIP3    H159959   0.017   5.835  13.748 -1.7309 -0.3591 -0.2342
12848TIP3    H259960  -0.014   5.733  13.641  1.3448 -0.9483 -0.6496
12849TIP3   OH259961   1.885   4.446   3.435 -0.1500  0.6003 -0.9038
12849TIP3    H159962   1.828   4.503   3.487 -0.6746 -0.5861 -0.1381
12849TIP3    H259963   1.938   4.399   3.499 -1.8952 -2.0592 -1.2452
12850TIP3   OH259964   4.041   3.098  15.122  0.4890 -0.7918 -0.3663
12850TIP3    H159965   4.054   3.018  15.173  2.1711 -1.0948 -1.1939
12850TIP3    H259966   4.115   3.153  15.146  0.4056 -0.2824 -1.2432
12851TIP3   OH259967   4.493   1.019   3.346 -0.1573  0.3541 -0.2288
12851TIP3    H159968   4.567   0.972   3.384  0.6718  1.1702 -0.7932
12851TIP3    H259969   4.518   1.033   3.255 -1.5660 -0.4609 -0.7868
12852TIP3   OH259970   5.752   1.271   1.315  0.3811  0.5197 -0.2249
12852TIP3    H159971   5.735   1.240   1.404  0.4258 -0.6537 -0.6080
12852TIP3    H259972   5.830   1.327   1.324  1.1480 -0.5909  0.2876
12853TIP3   OH259973   3.697   4.984  13.397 -0.6132 -0.1725  0.2749
12853TIP3    H159974   3.774   5.009  13.346 -0.2637 -0.3527  0.7122
12853TIP3    H259975   3.633   4.958  13.331 -0.4693  0.4412 -0.1129
12854TIP3   OH259976   3.529   0.529  13.537  0.1511  0.0305 -0.0967
12854TIP3    H159977   3.579   0.565  13.463  1.4052 -1.3884  0.0171
12854TIP3    H259978   3.457   0.481  13.496  0.6129 -0.4209 -0.3853
12855TIP3   OH259979   3.303   0.532  12.834 -0.3323  0.4210 -0.7315
12855TIP3    H159980   3.251   0.605  12.801  0.4968  1.0650 -0.6219
12855TIP3    H259981   3.387   0.539  12.788 -0.3593 -0.6564 -0.9700
12856TIP3   OH259982   1.888   2.457  13.724  0.5995  0.1350 -0.6802
12856TIP3    H159983   1.936   2.508  13.789  1.6825 -0.4416 -1.0076
12856TIP3    H259984   1.798   2.489  13.729  0.2347 -1.0590  2.3275
12857TIP3   OH259985   1.915   3.543   5.512 -0.5607  0.2149  0.2649
12857TIP3    H159986   1.983   3.519   5.449 -0.5282 -0.6525  0.6164
12857TIP3    H259987   1.936   3.634   5.536 -0.0471  0.2498 -0.2890
12858TIP3   OH259988   4.485   3.458  14.316 -0.2319  0.0414 -0.2450
12858TIP3    H159989   4.390   3.452  14.309 -0.2968 -3.1179  1.5765
12858TIP3    H259990   4.501   3.532  14.374 -1.3969  1.9324 -2.2212
12859TIP3   OH259991   3.452   6.728   3.619 -0.1304  0.0239 -0.2910
12859TIP3    H159992   3.439   6.663   3.551  2.1658 -2.0395  1.0734
12859TIP3    H259993   3.369   6.729   3.667 -0.6356 -0.9347 -1.1030
12860TIP3   OH259994   2.408   4.177  14.903 -0.4795 -0.4360  0.4077
12860TIP3    H159995   2.501   4.163  14.920 -0.3390 -0.8465 -0.5620
12860TIP3    H259996   2.363   4.131  14.974  0.0632 -0.9521  0.4281
12861TIP3   OH259997   5.818   0.898  16.266  0.1725 -0.2809  0.2507
12861TIP3    H159998   5.816   0.814  16.220  0.9262  0.8665 -2.0233
12861TIP3    H259999   5.907   0.902  16.303  0.7529  0.2138 -1.1261
12862TIP3   OH260000   4.389   5.826   5.627 -0.8967  0.2576 -0.0704
12862TIP3    H160001   4.359   5.862   5.710  2.4053  0.8161  1.0379
12862TIP3    H260002   4.415   5.902   5.576 -0.3369 -0.2122 -0.5042
12863TIP3   OH260003   6.499   4.179  11.097  0.2548  0.5658  0.7868
12863TIP3    H160004   6.415   4.142  11.122  0.8533 -0.7907  0.8880
12863TIP3    H260005   6.504   4.165  11.002 -0.0650  1.5831  0.6092
12864TIP3   OH260006   0.105   1.898  12.067 -0.0274 -0.1377  0.4846
12864TIP3    H160007   0.136   1.834  12.132  0.4971  0.8134  1.1994
12864TIP3    H260008   0.155   1.977  12.087 -1.4243  0.8117  0.3053
12865TIP3   OH260009   4.486   3.113   4.085 -0.0464  0.4621  0.0434
12865TIP3    H160010   4.494   3.140   3.994  0.5674  1.6615  0.4447
12865TIP3    H260011   4.552   3.163   4.132  1.0505 -1.6330  0.8635
12866TIP3   OH260012   2.812   0.083  11.126  0.0141 -0.0969 -0.1588
12866TIP3    H160013   2.720   0.055  11.127 -0.0758  0.2091  0.9138
12866TIP3    H260014   2.861   0.006  11.155 -0.1230  0.4164  1.5360
12867TIP3   OH260015   0.613   6.772   1.379  0.1437  0.6261 -0.1971
12867TIP3    H160016   0.676   6.751   1.310 -0.3162  1.7186 -0.9801
12867TIP3    H260017   0.528   6.777   1.333 -0.4365 -0.2781  0.7396
12868TIP3   OH260018   1.840   3.222   2.764 -0.3223  1.2431  0.1023
12868TIP3    H160019   1.886   3.300   2.794 -0.6236  1.4353  0.0615
12868TIP3    H260020   1.775   3.204   2.831  1.7564 -0.7989  1.7443
12869TIP3   OH260021   5.240   4.643   0.979 -0.0923  0.5121  0.3642
12869TIP3    H160022   5.300   4.626   1.051  1.5362 -0.5578 -1.1513
12869TIP3    H260023   5.268   4.583   0.910 -1.1837  1.8929 -1.3707
12870TIP3   OH260024   1.773   0.333   3.612  0.4865 -0.0213  0.2475
12870TIP3    H160025   1.705   0.343   3.546  0.1751  1.8304  0.7826
12870TIP3    H260026   1.743   0.261   3.667  0.9129 -1.8297 -1.7493
12871TIP3   OH260027   0.664   3.923   1.046 -0.1304  0.0377 -0.7649
12871TIP3    H160028   0.662   3.877   0.962  2.2556 -0.5413 -0.5665
12871TIP3    H260029   0.751   3.905   1.081 -1.5318 -1.0216  2.5551
12872TIP3   OH260030   2.782   6.327   5.516  0.0471  0.3143  0.3657
12872TIP3    H160031   2.709   6.283   5.473  0.2593  1.5243 -1.3007
12872TIP3    H260032   2.746   6.410   5.546  0.6851  0.8409 -0.3010
12873TIP3   OH260033   2.420   2.105  15.536  0.5867 -0.1821 -0.1770
12873TIP3    H160034   2.391   2.167  15.603  1.5507  0.0624  0.0348
12873TIP3    H260035   2.377   2.023  15.559 -0.5155  0.3330 -0.3207
12874TIP3   OH260036   5.412   4.684   4.449  0.7889 -0.1401  0.2483
12874TIP3    H160037   5.350   4.672   4.521 -0.2951  0.7905 -0.4917
12874TIP3    H260038   5.442   4.774   4.458 -0.0136  0.2734 -0.9242
12875TIP3   OH260039   4.974   5.662  16.625  0.2154  0.0840  0.2362
12875TIP3    H160040   5.034   5.674  16.699 -0.1897  1.4528  0.3701
12875TIP3    H260041   4.983   5.743  16.574 -0.2852 -0.4089 -0.6533
12876TIP3   OH260042   2.654   4.206   1.305 -0.2156 -0.1434 -0.2324
12876TIP3    H160043   2.686   4.157   1.381  0.3873 -0.0648 -0.4317
12876TIP3    H260044   2.706   4.287   1.306 -1.8324  0.9398  0.6402
12877TIP3   OH260045   6.013   1.633   5.173  0.1107  0.0285  0.0119
12877TIP3    H160046   6.050   1.551   5.204 -0.1027 -0.5838 -1.2917
12877TIP3    H260047   6.032   1.696   5.242  1.7126 -0.7458  0.3058
12878TIP3   OH260048   2.324   5.943  16.982 -0.1972  0.4384 -0.4167
12878TIP3    H160049   2.402   5.911  17.027 -0.3963 -0.1943 -0.5152
12878TIP3    H260050   2.274   5.864  16.962 -1.3128  0.8978  0.4794
12879TIP3   OH260051   1.109   4.489   1.857 -0.2855  0.2088  0.1875
12879TIP3    H160052   1.123   4.575   1.898  0.7144 -0.1110  0.5607
12879TIP3    H260053   1.052   4.443   1.918  1.3284 -0.3243  1.3718
12880TIP3   OH260054   0.200   4.773  12.459  0.1085 -0.8593 -0.0483
12880TIP3    H160055   0.117   4.804  12.423 -2.0317 -2.5859  2.8632
12880TIP3    H260056   0.221   4.695  12.407 -0.8634 -1.1728  0.0066
12881TIP3   OH260057   0.379   1.975  13.014  0.0390 -0.1555 -0.4620
12881TIP3    H160058   0.444   2.046  13.014 -1.2291  1.0923  1.1046
12881TIP3    H260059   0.300   2.015  12.978 -0.2439 -1.2878 -1.1412
12882TIP3   OH260060   0.932   4.134   1.224 -0.1345  0.4411  0.3587
12882TIP3    H160061   0.874   4.178   1.286  2.8310 -0.4734  4.1329
12882TIP3    H260062   0.981   4.205   1.182  0.7435  1.0477  2.3015
12883TIP3   OH260063   2.664   4.135   3.934  0.7566 -0.7618 -0.3547
12883TIP3    H160064   2.754   4.126   3.902  0.8309 -0.0510 -0.3666
12883TIP3    H260065   2.666   4.101   4.023  1.7493  1.9775  0.7569
12884TIP3   OH260066   4.916   1.783  13.496 -0.1716 -0.5295 -0.4352
12884TIP3    H160067   4.853   1.728  13.450 -0.5285  0.2564 -0.9055
12884TIP3    H260068   4.947   1.728  13.569  1.2936 -2.2525 -2.2332
12885TIP3   OH260069   0.230   4.160  16.421 -0.2449 -0.3936 -0.6640
12885TIP3    H160070   0.142   4.172  16.386 -0.3898  2.6982  0.4019
12885TIP3    H260071   0.287   4.198  16.355  0.0399 -0.0868 -0.2450
12886TIP3   OH260072   1.421   0.547   0.571  0.0895  0.0930  0.2019
12886TIP3    H160073   1.422   0.453   0.550  1.5772  0.1052  0.1682
12886TIP3    H260074   1.510   0.576   0.556 -0.1267  1.3221  1.1785
12887TIP3   OH260075   4.621   2.607  12.925 -0.5608  0.0756  0.4373
12887TIP3    H160076   4.608   2.641  13.014  0.0586  2.2425 -0.2338
12887TIP3    H260077   4.714   2.619  12.908 -0.3623 -1.7618  0.0075
12888TIP3   OH260078   0.263   1.798   1.331 -0.2521 -0.1164 -0.8557
12888TIP3    H160079   0.211   1.819   1.253 -1.4204 -1.4155 -0.4733
12888TIP3    H260080   0.208   1.827   1.404 -0.7752 -2.0040 -0.4219
12889TIP3   OH260081   1.971   0.390   1.179  0.0491 -0.1151  0.0607
12889TIP3    H160082   1.954   0.296   1.186  0.0600 -0.1875 -0.8861
12889TIP3    H260083   2.064   0.396   1.156 -0.4702  0.0373 -2.1533
12890TIP3   OH260084   3.026   1.327   3.747 -0.0923  0.1003  0.5629
12890TIP3    H160085   3.005   1.419   3.730  0.0892 -0.2491 -2.0063
12890TIP3    H260086   3.109   1.313   3.702 -0.7764 -1.6269 -0.2576
12891TIP3   OH260087   2.525   0.482  15.984 -0.0845  0.1351 -0.4205
12891TIP3    H160088   2.550   0.555  16.041 -0.1992 -0.3933  0.3205
12891TIP3    H260089   2.602   0.426  15.982 -0.2879 -0.1483 -0.3062
12892TIP3   OH260090   0.439   5.224   5.295  0.1457  0.1740 -0.3612
12892TIP3    H160091   0.517   5.277   5.309  0.8965 -1.1395  0.5490
12892TIP3    H260092   0.371   5.267   5.348  0.2923  1.1744 -0.9608
12893TIP3   OH260093   5.122   5.497  13.813 -0.2216  0.2682 -0.5727
12893TIP3    H160094   5.116   5.443  13.892 -1.1497 -1.0562 -1.4913
12893TIP3    H260095   5.213   5.526  13.811 -0.0711 -0.0310  0.7520
12894TIP3   OH260096   2.777   4.614  17.160 -0.1922  0.7198  0.2245
12894TIP3    H160097   2.684   4.622  17.181 -0.3400 -0.2364 -0.0297
12894TIP3    H260098   2.783   4.536  17.105  0.8751  0.2314  0.9856
12895TIP3   OH260099   4.231   5.801   1.920  0.2394 -0.2853 -0.1070
12895TIP3    H160100   4.312   5.767   1.880 -0.1290 -0.8775 -0.3701
12895TIP3    H260101   4.261   5.861   1.988  1.0274 -2.5981  1.7542
12896TIP3   OH260102   5.936   4.064   2.089 -0.1140  0.4818 -0.2117
12896TIP3    H160103   5.946   4.038   1.998 -1.3805 -0.1294 -0.1870
12896TIP3    H260104   5.909   4.156   2.085  1.0294  0.8273 -0.3968
12897TIP3   OH260105   6.660   3.057  13.359  0.0021  1.0678  0.0097
12897TIP3    H160106   6.684   2.967  13.334 -0.7238  0.4482  1.4207
12897TIP3    H260107   6.635   3.050  13.451 -2.5839  2.2138 -0.5213
12898TIP3   OH260108   2.799   0.342   3.944 -0.2736  0.0522 -0.4526
12898TIP3    H160109   2.829   0.420   3.991 -0.0504 -0.1699 -0.2272
12898TIP3    H260110   2.803   0.367   3.852  1.2698 -0.2150 -0.4680
12899TIP3   OH260111   4.086   6.327   3.770 -0.1543  0.0272 -0.0761
12899TIP3    H160112   4.020   6.371   3.823 -0.2434  0.5057 -0.5779
12899TIP3    H260113   4.150   6.395   3.749  0.3221 -0.3518  0.1142
12900TIP3   OH260114   3.067   3.148   3.952  0.0545  0.2089  0.1615
12900TIP3    H160115   3.002   3.102   3.900  2.0272 -1.3680 -1.0992
12900TIP3    H260116   3.080   3.231   3.906 -1.8065  1.0662  1.0809
12901TIP3   OH260117   5.732   4.081  15.490  0.4311  0.3900  0.1502
12901TIP3    H160118   5.798   4.056  15.554  1.6547 -0.7239 -1.4762
12901TIP3    H260119   5.781   4.106  15.412 -1.0363 -0.7784 -1.2209
12902TIP3   OH260120   0.595   0.917  12.834  0.2553  0.4926  0.6142
12902TIP3    H160121   0.687   0.906  12.861  1.0730  1.2744 -1.5688
12902TIP3    H260122   0.582   1.012  12.833 -0.2756  0.4202  0.0225
12903TIP3   OH260123   2.618   2.521  12.872 -0.0422  0.6401 -0.3065
12903TIP3    H160124   2.683   2.573  12.918 -0.4482  2.1608 -1.3880
12903TIP3    H260125   2.655   2.507  12.785 -1.4284  2.1954 -1.2024
12904TIP3   OH260126   2.766   1.050  14.834  0.1848  0.4377 -0.0455
12904TIP3    H160127   2.682   1.094  14.827 -0.4034 -0.5256  0.7148
12904TIP3    H260128   2.758   0.973  14.778 -0.2250 -0.7816  1.6059
12905TIP3   OH260129   1.571   0.249   5.147  0.5682  0.0824 -0.1193
12905TIP3    H160130   1.561   0.263   5.053  2.7983  0.7535 -0.3011
12905TIP3    H260131   1.626   0.321   5.176  1.2293 -1.0021  1.4273
12906TIP3   OH260132   4.252   4.174   4.124  0.4493  0.0066  0.5855
12906TIP3    H160133   4.342   4.203   4.138  0.5089  0.6465 -0.9613
12906TIP3    H260134   4.208   4.250   4.085 -0.6822 -0.3989  1.0244
12907TIP3   OH260135   4.054   2.702  14.842 -0.5155 -0.2013  0.0324
12907TIP3    H160136   4.107   2.741  14.912  3.0414 -0.5783 -2.2060
12907TIP3    H260137   4.027   2.617  14.876  0.8187 -0.2211  1.1217
12908TIP3   OH260138   5.351   6.292   3.956  0.2465 -0.1763  0.5474
12908TIP3    H160139   5.259   6.318   3.946 -0.2558 -1.9694  0.1770
12908TIP3    H260140   5.401   6.368   3.924 -1.0801  0.9432  1.0308
12909TIP3   OH260141   0.260   0.965   0.430 -0.5738  0.3535  0.2988
12909TIP3    H160142   0.182   0.928   0.390  1.2162 -2.6198 -0.7547
12909TIP3    H260143   0.320   0.982   0.356  1.5331 -2.0736  1.3070
12910TIP3   OH260144   2.227   6.255  15.509  0.2837  0.0524  0.0937
12910TIP3    H160145   2.214   6.200  15.586  2.3493 -0.8205 -0.1277
12910TIP3    H260146   2.173   6.215  15.441 -0.2078 -0.1761  0.6134
12911TIP3   OH260147   1.284   0.335   5.510  0.3709 -0.3061  0.7281
12911TIP3    H160148   1.378   0.343   5.521  0.4534  1.5346 -0.8102
12911TIP3    H260149   1.251   0.425   5.512 -1.2046 -0.8199  0.1119
12912TIP3   OH260150   5.617   3.683  10.546  0.6252  0.1039 -0.1575
12912TIP3    H160151   5.709   3.710  10.542  0.5942  0.2098 -0.1476
12912TIP3    H260152   5.573   3.753  10.595  0.8655 -0.8156  1.4573
12913TIP3   OH260153   5.058   5.562  15.652  0.4616  0.2209  0.5248
12913TIP3    H160154   5.021   5.474  15.649  1.3476 -0.1775 -2.3632
12913TIP3    H260155   5.130   5.557  15.714  1.2425 -1.4717 -0.4514
12914TIP3   OH260156   1.500   6.106  15.681  0.1502  0.2234 -0.1278
12914TIP3    H160157   1.555   6.056  15.620  0.3820  0.6025 -0.2339
12914TIP3    H260158   1.547   6.101  15.764 -0.3249 -0.5602  0.1061
12915TIP3   OH260159   2.540   5.730  15.528  0.4436  0.1982  0.4825
12915TIP3    H160160   2.498   5.769  15.605 -1.9040 -1.6760  0.2856
12915TIP3    H260161   2.521   5.792  15.457 -3.4872 -1.1445  0.1056
12916TIP3   OH260162   3.673   4.041   1.003 -0.1592  0.1696  0.4055
12916TIP3    H160163   3.756   4.074   0.968 -0.5129  0.7572  0.0947
12916TIP3    H260164   3.653   3.966   0.947  0.5548 -0.4693  0.9913
12917TIP3   OH260165   5.480   0.536  11.918 -0.1310 -0.1215  0.3784
12917TIP3    H160166   5.450   0.528  11.827  1.1128 -0.9248  0.0154
12917TIP3    H260167   5.551   0.600  11.914  0.3270 -0.6034  0.6671
12918TIP3   OH260168   2.447   1.816   5.443 -0.1504 -0.0874 -0.4034
12918TIP3    H160169   2.388   1.747   5.416 -0.3310  0.1820 -0.7059
12918TIP3    H260170   2.506   1.774   5.505 -1.3085 -0.1268  0.7222
12919TIP3   OH260171   2.435   5.236  11.058  0.3850 -0.6028  0.4962
12919TIP3    H160172   2.486   5.156  11.049  0.6540 -0.3453 -0.3420
12919TIP3    H260173   2.426   5.248  11.153 -0.3277 -2.0305  0.6469
12920TIP3   OH260174   6.456   2.196  16.582 -0.2725 -0.2733 -0.3255
12920TIP3    H160175   6.420   2.261  16.522  1.0570 -0.2414 -1.1338
12920TIP3    H260176   6.533   2.239  16.620 -1.5043  0.0122  2.0615
12921TIP3   OH260177   0.579   4.900   4.525 -0.2120  0.5005 -0.3168
12921TIP3    H160178   0.574   4.805   4.531 -0.8031  0.5302 -0.3181
12921TIP3    H260179   0.494   4.927   4.491 -0.2383  1.0677  0.1802
12922TIP3   OH260180   6.195   4.719   4.579  0.4092 -0.1396  0.5538
12922TIP3    H160181   6.113   4.682   4.612 -0.0916  0.7309  0.3233
12922TIP3    H260182   6.262   4.660   4.612 -0.1192  0.3252  2.6296
12923TIP3   OH260183   6.633   3.014   0.413 -0.5856 -0.5687 -0.1942
12923TIP3    H160184   6.574   2.940   0.428 -2.0551  0.4289 -0.8573
12923TIP3    H260185   6.653   3.010   0.320  0.7642 -1.1296  0.0937
12924TIP3   OH260186   2.822   3.192   5.574  0.2487 -0.2440  0.0319
12924TIP3    H160187   2.779   3.177   5.490 -0.8891 -0.8126  0.6793
12924TIP3    H260188   2.862   3.108   5.596 -0.7998 -0.5685  0.7687
12925TIP3   OH260189   3.488   3.253  16.521 -0.1995 -0.3360  0.3627
12925TIP3    H160190   3.428   3.187  16.556 -1.7444  0.6850 -0.2163
12925TIP3    H260191   3.561   3.203  16.484 -1.2129 -1.7051  0.1334
12926TIP3   OH260192   0.018   5.742   1.218  0.2618  0.0958 -0.8019
12926TIP3    H160193  -0.046   5.752   1.288  0.7676  2.2557 -0.5905
12926TIP3    H260194   0.048   5.651   1.226 -2.4667 -0.8804 -0.7011
12927TIP3   OH260195   2.321   5.409   1.951 -0.2572 -0.0953  0.0357
12927TIP3    H160196   2.282   5.344   2.009  0.5258  0.8747  1.7204
12927TIP3    H260197   2.348   5.359   1.874 -2.0455 -1.2855  0.1292
12928TIP3   OH260198   4.713   6.189  10.507 -0.2205 -0.6152  0.1039
12928TIP3    H160199   4.632   6.234  10.487 -1.3256 -1.1711  2.9373
12928TIP3    H260200   4.762   6.250  10.562  1.5657 -0.1135 -1.8984
12929TIP3   OH260201   1.242   4.420   4.398 -0.4699  0.0132  0.1763
12929TIP3    H160202   1.289   4.485   4.451 -1.6085  0.5568  0.5532
12929TIP3    H260203   1.249   4.339   4.449  2.3653 -0.6486 -1.0648
12930TIP3   OH260204   4.169   1.043   5.215 -0.0729  0.1573 -0.4893
12930TIP3    H160205   4.090   1.046   5.270  0.0228  0.8545 -0.3719
12930TIP3    H260206   4.197   1.135   5.210  0.0473  0.0739 -1.5251
12931TIP3   OH260207   5.667   0.186   6.410  0.4859 -0.1368  0.0177
12931TIP3    H160208   5.625   0.209   6.328 -0.2079 -0.0375  0.3914
12931TIP3    H260209   5.736   0.124   6.386 -0.9484 -1.6466 -0.4518
12932TIP3   OH260210   2.660   3.053   3.105 -0.2691 -0.6573 -0.3610
12932TIP3    H160211   2.639   2.990   3.174 -0.6736 -0.5751 -0.4107
12932TIP3    H260212   2.749   3.081   3.126  0.5775 -2.4850 -1.2602
12933TIP3   OH260213   4.330   1.856   2.195 -0.7993  0.1329 -0.2750
12933TIP3    H160214   4.365   1.839   2.282  0.3901  2.9208 -0.1019
12933TIP3    H260215   4.267   1.927   2.207  0.6609  1.8066 -1.8145
12934TIP3   OH260216   2.543   0.935   0.618  0.0382  0.2699 -0.1227
12934TIP3    H160217   2.483   0.981   0.559 -0.2362 -1.2555 -1.0639
12934TIP3    H260218   2.486   0.875   0.667  0.7996 -1.4312 -1.2596
12935TIP3   OH260219   2.162   6.162  13.563 -0.0508  0.1173 -0.0407
12935TIP3    H160220   2.235   6.183  13.621  0.1089  0.8797 -0.4928
12935TIP3    H260221   2.086   6.161  13.621  0.2424 -0.1359  0.3476
12936TIP3   OH260222   1.088   3.261   3.785  0.2995 -0.0554  0.2417
12936TIP3    H160223   1.182   3.243   3.789  0.3544  0.0702 -0.3908
12936TIP3    H260224   1.077   3.312   3.705 -0.5919 -1.9225 -0.8864
12937TIP3   OH260225   0.232   6.273   4.892 -0.2142  0.1778  0.1149
12937TIP3    H160226   0.248   6.293   4.800  1.4659  0.3364  0.4146
12937TIP3    H260227   0.269   6.346   4.940 -1.4422  0.3001  0.9328
12938TIP3   OH260228   0.020   3.963   2.908 -0.9253 -0.1151 -0.3803
12938TIP3    H160229  -0.067   4.002   2.899 -0.3903  0.7115 -2.4773
12938TIP3    H260230   0.074   4.033   2.947 -0.6443  0.2556 -1.4094
12939TIP3   OH260231   0.634   6.551   1.573 -0.4728  0.4437 -0.0511
12939TIP3    H160232   0.656   6.587   1.487 -1.4509  0.2770 -0.3927
12939TIP3    H260233   0.685   6.471   1.580  1.4979  1.6873  0.5842
12940TIP3   OH260234   2.236   1.989   3.064  0.1207  0.0385 -0.2702
12940TIP3    H160235   2.282   2.067   3.095  0.1818  0.4566 -1.3604
12940TIP3    H260236   2.168   1.973   3.130  0.5306  0.6148  0.3041
12941TIP3   OH260237   6.551   3.216   5.097 -0.1919  0.0178 -0.5544
12941TIP3    H160238   6.510   3.132   5.075  0.9267 -0.2418 -1.7562
12941TIP3    H260239   6.638   3.212   5.057  1.3449  0.2642  2.4983
12942TIP3   OH260240   3.705   6.316   4.600 -0.1565 -0.4960 -0.7096
12942TIP3    H160241   3.755   6.380   4.548  0.7726 -0.3631  0.3034
12942TIP3    H260242   3.617   6.353   4.605 -0.0171 -0.0481 -1.3932
12943TIP3   OH260243   3.725   6.113   2.877 -0.0325  0.4938 -0.8116
12943TIP3    H160244   3.767   6.145   2.797  0.9206  0.9795 -0.1362
12943TIP3    H260245   3.794   6.064   2.922 -0.6073  0.0885 -0.3603
12944TIP3   OH260246   2.451   3.557   4.795  0.1244 -0.1681  0.4710
12944TIP3    H160247   2.477   3.625   4.732 -1.3200  0.5251  0.5745
12944TIP3    H260248   2.360   3.539   4.774  0.1277 -1.1823  1.2684
12945TIP3   OH260249   1.385   3.200   3.464 -0.0090 -0.2335 -0.2786
12945TIP3    H160250   1.466   3.168   3.503 -0.5292  0.4474  1.4678
12945TIP3    H260251   1.409   3.284   3.425  0.2926 -0.4075 -0.4690
12946TIP3   OH260252   4.722   6.361  11.166  0.4905  0.3115  0.4214
12946TIP3    H160253   4.699   6.388  11.077  1.3762  1.5961  0.5519
12946TIP3    H260254   4.766   6.437  11.203  1.8810 -0.8821  1.3026
12947TIP3   OH260255   2.199   1.293   5.613 -0.5202 -0.0497 -0.0795
12947TIP3    H160256   2.244   1.377   5.616 -0.0424 -0.3232  0.9329
12947TIP3    H260257   2.115   1.312   5.571 -0.6522  1.0438  0.6428
12948TIP3   OH260258   2.797   6.635  16.953 -0.2409  1.0891 -0.0618
12948TIP3    H160259   2.795   6.556  16.898  0.0475  1.6850 -0.9502
12948TIP3    H260260   2.784   6.603  17.042  0.3993 -0.0109 -0.3543
12949TIP3   OH260261   6.637   3.956   2.070 -0.4363  0.5410 -0.5674
12949TIP3    H160262   6.613   3.925   1.983  1.5176 -1.5952 -0.4255
12949TIP3    H260263   6.613   3.884   2.128  0.3078  1.0374  0.3745
12950TIP3   OH260264   5.014   5.929   0.734 -0.0156 -0.1734  0.1236
12950TIP3    H160265   5.090   5.870   0.730  1.0359  1.1823 -0.6181
12950TIP3    H260266   5.019   5.968   0.822  0.5314  0.3718 -0.1386
12951TIP3   OH260267   2.226   2.965   2.024  0.2004 -0.4136 -0.3145
12951TIP3    H160268   2.132   2.973   2.011 -0.0427 -3.2727 -0.7628
12951TIP3    H260269   2.237   2.975   2.119 -0.3289  1.1701 -0.3748
12952TIP3   OH260270   3.674   5.858  12.381  0.3658 -0.0980  0.2111
12952TIP3    H160271   3.746   5.832  12.438  0.6988 -0.6545 -0.4373
12952TIP3    H260272   3.671   5.953  12.386  0.9901 -0.0884  0.4358
12953TIP3   OH260273   1.113   2.392   3.074 -0.1102  0.0072  0.2261
12953TIP3    H160274   1.185   2.370   3.015  0.8697  0.7225  1.1222
12953TIP3    H260275   1.131   2.342   3.154 -1.2797 -0.7449  0.0492
12954TIP3   OH260276   3.656   3.859   3.293  0.3550  0.2597 -0.3912
12954TIP3    H160277   3.668   3.814   3.209  1.3070 -0.5341  0.1539
12954TIP3    H260278   3.597   3.803   3.342 -0.7990  1.0935 -0.7773
12955TIP3   OH260279   6.213   6.547   5.408  0.4301  0.5106  0.1930
12955TIP3    H160280   6.248   6.570   5.321 -1.0408  0.9038 -0.3305
12955TIP3    H260281   6.179   6.630   5.442  2.3080  0.6892  1.8379
12956TIP3   OH260282   4.966   3.054  12.980 -0.3615 -0.0915 -0.3772
12956TIP3    H160283   4.981   3.142  13.015  3.8257 -0.7393 -0.0425
12956TIP3    H260284   4.926   3.069  12.895  1.2975  2.3187 -0.8510
12957TIP3   OH260285   3.439   0.081   0.319 -0.7178 -0.6235 -0.4001
12957TIP3    H160286   3.405   0.169   0.335  1.5271  0.4448 -1.1419
12957TIP3    H260287   3.468   0.083   0.228  1.5151 -1.3416  0.2409
12958TIP3   OH260288   5.342   5.275  10.304 -0.7325  0.6472 -0.7254
12958TIP3    H160289   5.249   5.289  10.321 -0.4639  0.6380  0.9608
12958TIP3    H260290   5.357   5.184  10.328  0.0056  1.0849  0.5793
12959TIP3   OH260291   1.385   0.154  13.222  0.2085  0.1975  0.4278
12959TIP3    H160292   1.428   0.070  13.205  1.8654  0.7603  1.5879
12959TIP3    H260293   1.324   0.136  13.294 -0.8445 -0.3856 -0.5729
12960TIP3   OH260294   3.063   0.353   1.188 -0.2355 -0.4507 -0.2500
12960TIP3    H160295   3.109   0.269   1.194  0.9771  0.1525 -0.6652
12960TIP3    H260296   2.981   0.339   1.235 -0.5494 -2.1823 -1.2242
12961TIP3   OH260297   4.069   2.745  15.749  0.4842 -1.0375 -0.4140
12961TIP3    H160298   4.151   2.703  15.724  0.2275 -1.1493 -1.0903
12961TIP3    H260299   4.014   2.740  15.670  0.4255  0.5265 -0.4931
12962TIP3   OH260300   2.803   0.102  17.259  0.0883  0.0764 -0.1524
12962TIP3    H160301   2.884   0.117  17.209  0.4765  2.4329  1.0485
12962TIP3    H260302   2.738   0.157  17.217 -0.8400 -1.5451 -0.8911
12963TIP3   OH260303   0.650   5.756   4.899 -0.3967  0.1086 -0.0592
12963TIP3    H160304   0.734   5.709   4.894 -0.0228  0.8320 -0.8122
12963TIP3    H260305   0.675   5.847   4.913 -1.0637  0.3256 -0.2685
12964TIP3   OH260306   1.510   1.268  16.976  0.1568  0.3548  0.3477
12964TIP3    H160307   1.505   1.266  16.880  0.3378 -2.2207  0.3136
12964TIP3    H260308   1.595   1.307  16.994  0.0603  1.0138 -0.5154
12965TIP3   OH260309   6.718   3.195   0.638 -0.4201 -0.0038  0.0119
12965TIP3    H160310   6.662   3.265   0.605  0.5299  0.4888 -0.5956
12965TIP3    H260311   6.739   3.142   0.561  1.8020  1.1435 -0.2391
12966TIP3   OH260312   5.413   6.577  12.734  0.5121 -0.5268 -0.0079
12966TIP3    H160313   5.471   6.570  12.810  0.9057  1.5291 -0.0558
12966TIP3    H260314   5.379   6.666  12.739 -2.1108 -1.4157 -0.4063
12967TIP3   OH260315   1.247   0.176  11.894 -0.4697  0.4745 -0.0440
12967TIP3    H160316   1.188   0.249  11.914 -0.1152  0.5196  0.8934
12967TIP3    H260317   1.210   0.135  11.816 -0.9943  1.3080 -0.2416
12968TIP3   OH260318   4.743   0.954  15.209  0.0075 -0.1467 -0.0004
12968TIP3    H160319   4.796   0.984  15.136 -2.2443  3.6806 -0.4086
12968TIP3    H260320   4.790   0.983  15.287 -0.9548  2.6980 -0.3421
12969TIP3   OH260321   6.349   2.882   2.513 -0.3293  0.0547  0.1723
12969TIP3    H160322   6.339   2.839   2.597  0.9467  0.8772  0.7698
12969TIP3    H260323   6.399   2.820   2.460 -0.7016 -0.2489  0.1672
12970TIP3   OH260324   3.678   5.362   5.194 -0.4614 -0.0200  0.0418
12970TIP3    H160325   3.587   5.383   5.177 -0.0623  1.4786 -0.4444
12970TIP3    H260326   3.687   5.370   5.289 -0.3903  1.9462 -0.0945
12971TIP3   OH260327   0.644   3.669   5.467  0.1895 -0.9073  0.4403
12971TIP3    H160328   0.577   3.736   5.459  1.2413 -0.0512 -2.0331
12971TIP3    H260329   0.618   3.601   5.406  0.1394 -1.9065  1.5308
12972TIP3   OH260330   0.533   5.591  17.241 -0.2913  0.6975  0.3732
12972TIP3    H160331   0.440   5.612  17.233 -1.4734 -3.2934  1.4190
12972TIP3    H260332   0.547   5.579  17.335  1.1683  0.6295  0.1731
12973TIP3   OH260333   0.816   1.709  15.067  0.0536 -0.0554 -0.0682
12973TIP3    H160334   0.905   1.676  15.052  0.0318  0.3477 -1.2022
12973TIP3    H260335   0.775   1.707  14.980  0.1707  3.3032 -0.3361
12974TIP3   OH260336   5.430   2.130  11.826 -0.1112 -0.4695 -0.1191
12974TIP3    H160337   5.437   2.138  11.922  1.0459 -2.3831  0.0050
12974TIP3    H260338   5.501   2.071  11.802 -1.4166 -1.3701 -1.9642
12975TIP3   OH260339   4.439   2.555   1.552  0.3879  0.0153  0.0474
12975TIP3    H160340   4.523   2.526   1.518  0.5809 -1.4247  1.6168
12975TIP3    H260341   4.450   2.650   1.566  1.3665  0.0371 -0.7598
12976TIP3   OH260342   0.400   3.063   6.182  0.0239 -0.2482  0.6832
12976TIP3    H160343   0.348   2.987   6.208  1.1041 -2.1608 -2.1506
12976TIP3    H260344   0.491   3.037   6.201  0.5052 -0.2372 -1.3332
12977TIP3   OH260345   3.246   3.794  11.495  0.0084 -0.1490 -0.0180
12977TIP3    H160346   3.305   3.859  11.532  0.2287  0.2671 -1.0934
12977TIP3    H260347   3.293   3.711  11.506 -0.1744 -0.1197  1.1374
12978TIP3   OH260348   2.859   1.201  12.580  0.0621  0.0508 -0.2784
12978TIP3    H160349   2.809   1.250  12.646  0.5050  3.2381 -2.1175
12978TIP3    H260350   2.805   1.205  12.501  1.1108 -0.5831 -1.0512
12979TIP3   OH260351   2.349   2.799   0.699  0.3574 -0.4132 -0.0799
12979TIP3    H160352   2.342   2.713   0.656 -0.8206 -0.4734  0.1948
12979TIP3    H260353   2.344   2.780   0.793 -2.0759  0.0732 -0.0388
12980TIP3   OH260354   6.100   6.021   0.655 -0.7807 -0.2700  0.0623
12980TIP3    H160355   6.077   5.983   0.570  1.5654 -0.0338 -0.7581
12980TIP3    H260356   6.113   5.946   0.712 -0.4193 -0.5300 -0.3543
12981TIP3   OH260357   3.017   5.431  17.215  0.0377  0.7761  0.4018
12981TIP3    H160358   2.973   5.357  17.174 -1.1252  1.1257  0.9883
12981TIP3    H260359   3.110   5.412  17.204 -0.2229  0.2846 -1.3496
12982TIP3   OH260360   1.433   1.870  14.463  0.8524  0.0442 -0.0834
12982TIP3    H160361   1.515   1.909  14.493  1.5266 -1.7753  0.5821
12982TIP3    H260362   1.428   1.786  14.508  0.2691 -1.3579 -2.5485
12983TIP3   OH260363   0.329   3.392   5.348 -0.8560  0.0229 -0.2281
12983TIP3    H160364   0.288   3.310   5.374 -0.3291  0.1582  1.0910
12983TIP3    H260365   0.260   3.458   5.356 -0.1520  0.5147  3.4070
12984TIP3   OH260366   5.784   4.264  16.286 -0.3818  0.4563  0.4193
12984TIP3    H160367   5.787   4.225  16.374 -0.5485  1.0437  0.6915
12984TIP3    H260368   5.773   4.189  16.227 -2.2588  0.1726  1.0326
12985TIP3   OH260369   0.738   2.738  16.937  0.1626  0.4815 -0.0008
12985TIP3    H160370   0.737   2.678  17.012  1.3670  0.4958  0.0413
12985TIP3    H260371   0.721   2.681  16.861 -1.0879  0.4724  0.2657
12986TIP3   OH260372   0.957   6.734   3.152 -0.2576 -0.1453  0.1673
12986TIP3    H160373   0.963   6.675   3.227 -0.1086  0.7089  0.8495
12986TIP3    H260374   0.890   6.696   3.096 -1.4783  0.0008  1.4804
12987TIP3   OH260375   0.202   4.033  15.382  0.6270  0.4339  0.3004
12987TIP3    H160376   0.124   4.004  15.429 -0.0682  0.8990 -0.5339
12987TIP3    H260377   0.230   3.956  15.332  0.0590  0.5590 -0.2271
12988TIP3   OH260378   3.827   0.006  12.011  0.2601  0.1010  0.5889
12988TIP3    H160379   3.880   0.085  12.013 -1.7197  1.5565 -0.7024
12988TIP3    H260380   3.775   0.009  12.091  0.8786 -0.4304  1.0192
12989TIP3   OH260381   3.422   0.702  10.860 -0.0938  0.4936  0.4215
12989TIP3    H160382   3.501   0.744  10.895  0.3095  0.0853  0.0199
12989TIP3    H260383   3.407   0.746  10.776  0.8995 -0.7859 -0.4731
12990TIP3   OH260384   0.663   0.692  13.352  0.2764  0.6623  1.0039
12990TIP3    H160385   0.718   0.768  13.374 -1.8992  2.2644  1.1833
12990TIP3    H260386   0.604   0.682  13.426  1.1975 -1.9889  1.5078
12991TIP3   OH260387   4.840   3.627  13.518  0.1184 -0.4912  0.3389
12991TIP3    H160388   4.758   3.674  13.503  1.4206  1.8238  0.0374
12991TIP3    H260389   4.837   3.603  13.611 -1.6554 -2.1065 -0.0748
12992TIP3   OH260390   5.652   0.712   3.556  0.3124 -0.0307 -0.2259
12992TIP3    H160391   5.615   0.628   3.528  0.4846  0.0180 -0.6019
12992TIP3    H260392   5.738   0.689   3.592  0.5382  0.0343 -0.7200
12993TIP3   OH260393   4.074   3.673  10.837 -0.0791 -0.0897 -1.0049
12993TIP3    H160394   4.145   3.735  10.855  1.0668 -2.3293  3.8251
12993TIP3    H260395   4.119   3.593  10.808 -0.6790 -1.0967  0.7357
12994TIP3   OH260396   2.878   5.593   1.585  0.1730 -0.0243  0.3099
12994TIP3    H160397   2.841   5.673   1.622 -0.8564 -0.5758  0.5166
12994TIP3    H260398   2.805   5.531   1.585  0.7711 -0.7497 -0.4946
12995TIP3   OH260399   2.017   5.786  11.461  0.8476 -0.2545 -0.1595
12995TIP3    H160400   2.050   5.736  11.536 -2.1774 -0.8774  0.9041
12995TIP3    H260401   2.016   5.724  11.389  0.4116 -0.7129  0.2373
12996TIP3   OH260402   6.571   3.227  13.172  0.2938  0.0920 -0.0293
12996TIP3    H160403   6.652   3.200  13.215  1.2708 -1.7121 -2.7059
12996TIP3    H260404   6.567   3.322  13.185  1.3118 -0.1520  2.5206
12997TIP3   OH260405   1.682   0.686  15.990 -0.4592 -0.0394 -0.0538
12997TIP3    H160406   1.736   0.740  15.934 -0.6716  0.0811 -0.1448
12997TIP3    H260407   1.696   0.721  16.078  0.3946 -0.6552  0.0722
12998TIP3   OH260408   1.898   0.865  14.106 -0.2829 -0.4533 -0.5238
12998TIP3    H160409   1.888   0.958  14.082  0.3150 -0.7638 -2.0664
12998TIP3    H260410   1.858   0.859  14.193 -0.9513  1.1146 -0.6796
12999TIP3   OH260411   5.655   4.746   2.499 -0.2620  0.5173  0.3748
12999TIP3    H160412   5.600   4.668   2.509  0.4077 -0.0870 -0.5836
12999TIP3    H260413   5.593   4.815   2.474 -0.5725 -0.2188 -0.9752
13000TIP3   OH260414   6.614   6.780  16.804  0.1477  0.0595 -0.2231
13000TIP3    H160415   6.610   6.736  16.719 -1.0275 -1.3856  0.5340
13000TIP3    H260416   6.657   6.717  16.862 -1.1158  0.0581  0.7705
13001TIP3   OH260417   2.682   4.270   3.315 -0.0586 -0.1675  0.1854
13001TIP3    H160418   2.588   4.282   3.329 -0.2542  0.1768 -1.3361
13001TIP3    H260419   2.717   4.359   3.307  0.3827 -0.2993  0.5824
13002TIP3   OH260420   4.709   5.728  14.253  0.1022  0.0377 -0.1854
13002TIP3    H160421   4.659   5.793  14.204  1.1861 -0.2655 -1.7702
13002TIP3    H260422   4.776   5.778  14.300 -1.5386  0.4328  1.8558
13003TIP3   OH260423   5.339   0.148   2.986  0.0031  0.7207  0.1669
13003TIP3    H160424   5.303   0.061   2.970  3.5194 -0.4937 -2.5165
13003TIP3    H260425   5.397   0.136   3.061  0.5071  0.7096 -0.2177
13004TIP3   OH260426   0.631   1.800   5.103 -0.2291  0.0544 -0.5456
13004TIP3    H160427   0.695   1.871   5.102 -1.5217  1.3042  0.4921
13004TIP3    H260428   0.629   1.772   5.194 -0.2178 -0.8746 -0.8260
13005TIP3   OH260429   5.591   4.644   0.427 -0.0016 -0.2269  0.1542
13005TIP3    H160430   5.546   4.588   0.365  0.9494  0.7457 -1.4857
13005TIP3    H260431   5.546   4.729   0.421  2.0689  0.8381 -1.7074
13006TIP3   OH260432   6.005   2.740  13.376 -0.0309 -0.6641 -0.0803
13006TIP3    H160433   5.980   2.648  13.384 -2.5399 -0.0596 -0.2981
13006TIP3    H260434   5.984   2.764  13.286 -1.4157  0.6338  0.5401
13007TIP3   OH260435   2.228   0.734   0.134  0.0075  0.0835 -0.4542
13007TIP3    H160436   2.307   0.681   0.126 -0.7478 -1.0124 -0.8570
13007TIP3    H260437   2.245   0.810   0.078  1.3569  0.6205  0.6243
13008TIP3   OH260438   3.086   5.855   1.565 -0.0233 -0.1894  0.2357
13008TIP3    H160439   3.038   5.897   1.494  1.3557  0.2934 -0.4502
13008TIP3    H260440   3.177   5.854   1.535  0.7764  0.9582  2.4339
13009TIP3   OH260441   1.268   0.522   6.926 -0.3145 -0.4537  0.6815
13009TIP3    H160442   1.312   0.589   6.874 -2.1494  0.2434 -0.0508
13009TIP3    H260443   1.256   0.563   7.012  0.3648 -0.6168  0.8593
13010TIP3   OH260444   4.882   2.060  12.801 -0.1248 -0.1165 -0.2411
13010TIP3    H160445   4.944   2.031  12.735 -0.6615 -0.1101 -0.7553
13010TIP3    H260446   4.799   2.070  12.754 -0.3037  0.7649  0.2395
13011TIP3   OH260447   6.381   3.773  11.748 -0.0654  0.6079 -0.3015
13011TIP3    H160448   6.446   3.738  11.687  0.2599 -0.2992  0.5308
13011TIP3    H260449   6.403   3.733  11.832 -2.1945 -0.4109 -0.1493
13012TIP3   OH260450   2.705   4.713   3.883  0.0125 -0.1838 -0.7021
13012TIP3    H160451   2.799   4.727   3.896  0.0816  0.2724 -1.6406
13012TIP3    H260452   2.695   4.617   3.883  0.5334 -0.2421 -0.9842
13013TIP3   OH260453   2.754   5.384   5.878 -0.1457  0.2965 -0.0809
13013TIP3    H160454   2.846   5.360   5.861  0.0102  0.7106  0.1714
13013TIP3    H260455   2.747   5.475   5.850 -0.4054  0.3575  0.1815
13014TIP3   OH260456   6.192   2.701   3.655 -0.0071 -0.3477 -0.8323
13014TIP3    H160457   6.271   2.738   3.694 -2.0812  1.7772  1.7258
13014TIP3    H260458   6.161   2.637   3.719 -1.8813  1.0247 -0.2859
13015TIP3   OH260459   6.665   5.390  13.546  0.2086 -0.6690 -0.2548
13015TIP3    H160460   6.726   5.318  13.526 -0.1719 -1.3340  0.8717
13015TIP3    H260461   6.584   5.346  13.569  0.0546  0.1131  0.7329
13016TIP3   OH260462   6.204   1.922   5.379 -0.0627 -0.0350  0.3836
13016TIP3    H160463   6.234   2.012   5.395 -2.8166  0.8904  0.8295
13016TIP3    H260464   6.186   1.888   5.467 -2.5766  0.3677  0.0974
13017TIP3   OH260465   6.126   4.755   3.885  0.2236  0.1665  0.2109
13017TIP3    H160466   6.119   4.682   3.824  2.5260 -0.2095  0.2899
13017TIP3    H260467   6.203   4.804   3.855  0.7508  0.5983  2.1553
13018TIP3   OH260468   3.363   1.811  16.286 -0.1098  0.2129  0.4839
13018TIP3    H160469   3.299   1.754  16.331  1.8144 -2.8146 -0.3533
13018TIP3    H260470   3.309   1.864  16.227 -2.0502 -0.7419  1.2726
13019TIP3   OH260471   5.793   4.795  15.854  0.2014 -0.0362 -0.5920
13019TIP3    H160472   5.781   4.820  15.946 -1.5931  0.0894 -0.8206
13019TIP3    H260473   5.847   4.716  15.858  1.2179  0.6735  0.4740
13020TIP3   OH260474   0.493   5.514   4.836 -0.0567 -0.2494  0.2410
13020TIP3    H160475   0.411   5.479   4.872 -1.1010 -0.0416 -1.7997
13020TIP3    H260476   0.500   5.601   4.874 -1.9571  0.5729 -1.1447
13021TIP3   OH260477   4.155   0.586  15.802  0.1854  0.2110  0.0565
13021TIP3    H160478   4.162   0.496  15.772 -0.5035 -0.0844  0.7251
13021TIP3    H260479   4.078   0.620  15.757  0.2209  0.3419  0.0939
13022TIP3   OH260480   1.460   0.216  14.107 -0.1322 -0.4707 -0.4998
13022TIP3    H160481   1.414   0.290  14.066 -0.3829 -0.2207  0.2042
13022TIP3    H260482   1.419   0.139  14.069 -0.2213 -0.2404 -0.8727
13023TIP3   OH260483   2.225   1.671  13.985  0.6241  1.0980  0.3124
13023TIP3    H160484   2.155   1.654  14.049  0.9470  3.3204  1.3471
13023TIP3    H260485   2.191   1.636  13.903  0.0459 -1.5582  1.5703
13024TIP3   OH260486   1.147   5.819  11.297 -0.5503 -0.2527 -0.1089
13024TIP3    H160487   1.186   5.747  11.247  0.7845  0.7947 -0.6222
13024TIP3    H260488   1.073   5.847  11.244  0.3193  0.2647 -1.0902
13025TIP3   OH260489   1.515   4.827  13.047 -0.5038  0.2696 -0.2429
13025TIP3    H160490   1.594   4.777  13.066 -0.4306 -0.0187 -1.2593
13025TIP3    H260491   1.543   4.919  13.049 -0.3743  0.2168  0.4282
13026TIP3   OH260492   4.840   5.432   5.514 -0.1499  0.2331 -0.2482
13026TIP3    H160493   4.831   5.376   5.437  0.5768  0.4923 -0.5234
13026TIP3    H260494   4.930   5.463   5.512  0.3244 -0.8391  1.4515
13027TIP3   OH260495   6.646   6.161  14.890  0.0410  0.3708 -0.1778
13027TIP3    H160496   6.564   6.112  14.893 -0.4422  1.1839  0.2893
13027TIP3    H260497   6.713   6.094  14.880 -0.4634 -0.5559  2.0183
13028TIP3   OH260498   5.751   3.008  13.994  0.4349  0.6083 -0.0511
13028TIP3    H160499   5.665   2.968  13.983 -0.4070  1.7853  1.7130
13028TIP3    H260500   5.810   2.953  13.944 -1.5688  0.7104 -2.7706
13029TIP3   OH260501   2.322   2.394  14.400  0.0477 -0.0337  0.2612
13029TIP3    H160502   2.279   2.330  14.344  0.8440 -2.2036  1.9912
13029TIP3    H260503   2.378   2.444  14.340 -0.6597 -0.8739 -1.1563
13030TIP3   OH260504   6.766   4.055  15.094 -0.3799  0.3461  0.1740
13030TIP3    H160505   6.843   3.999  15.080  0.3611  1.5458 -0.8401
13030TIP3    H260506   6.784   4.100  15.176 -0.5428 -0.1899  0.5127
13031TIP3   OH260507   3.778   2.747   0.376  0.3990 -0.2347  0.0667
13031TIP3    H160508   3.732   2.803   0.439  1.4000  0.0531  0.5664
13031TIP3    H260509   3.832   2.689   0.431  1.3272  0.0573 -0.5162
13032TIP3   OH260510   5.704   1.865  17.021 -0.2695  0.5690 -0.3497
13032TIP3    H160511   5.776   1.928  17.010  0.5307 -0.2587 -0.0643
13032TIP3    H260512   5.742   1.796  17.076 -2.0169  1.2727  1.9047
13033TIP3   OH260513   0.290   0.802  13.370  0.6432 -0.1651 -0.4322
13033TIP3    H160514   0.356   0.863  13.340  1.1504 -0.5845 -0.1819
13033TIP3    H260515   0.317   0.778  13.459  0.7882 -1.1955 -0.7374
13034TIP3   OH260516   4.923   3.696  16.136  0.3134  0.5528 -0.9341
13034TIP3    H160517   4.874   3.768  16.177  1.1394 -0.0722  1.2692
13034TIP3    H260518   5.015   3.721  16.148  0.5923 -0.3696 -1.1334
13035TIP3   OH260519   3.962   1.378   2.321  0.3480 -0.6471  0.2132
13035TIP3    H160520   4.020   1.424   2.259 -0.2285  0.3621  0.4113
13035TIP3    H260521   4.017   1.362   2.397  0.1150  1.2683  0.8319
13036TIP3   OH260522   3.481   6.600   3.083  0.1145 -0.3172  0.0563
13036TIP3    H160523   3.475   6.611   2.988 -0.7241  0.2414  0.1543
13036TIP3    H260524   3.561   6.646   3.108 -0.0207  0.1288 -0.3094
13037TIP3   OH260525   1.909   3.318   5.290 -0.2149  0.5030  0.4532
13037TIP3    H160526   1.855   3.396   5.280 -0.7896  0.4908  3.0079
13037TIP3    H260527   1.855   3.247   5.254 -1.3176  0.7225  1.6288
13038TIP3   OH260528   2.470   2.029  17.251  0.0306  0.4513  0.1316
13038TIP3    H160529   2.456   1.990  17.337 -2.3579  0.4087 -0.2236
13038TIP3    H260530   2.480   1.955  17.192  2.1261  0.4802  0.3849
13039TIP3   OH260531   3.634   1.246   1.304  0.7602 -0.4898 -0.2843
13039TIP3    H160532   3.701   1.185   1.334  0.9149  1.1017  2.9638
13039TIP3    H260533   3.683   1.314   1.257  1.3376  0.0800  1.0962
13040TIP3   OH260534   5.494   4.806   5.137  0.2695 -0.8926  0.2581
13040TIP3    H160535   5.562   4.744   5.112 -1.5205 -3.2396  0.8559
13040TIP3    H260536   5.468   4.778   5.225 -1.6268 -0.2340 -0.0553
13041TIP3   OH260537   4.501   0.251  14.175  0.2354 -1.0205 -1.6526
13041TIP3    H160538   4.587   0.263  14.215 -0.4398 -2.0681  0.2297
13041TIP3    H260539   4.489   0.156  14.172 -1.1801 -0.8912 -1.0778
13042TIP3   OH260540   4.832   0.521  12.702  0.2008 -0.3866 -0.3115
13042TIP3    H160541   4.904   0.553  12.648  0.3543 -1.6924 -0.9199
13042TIP3    H260542   4.873   0.458  12.762  0.0302  0.9889  1.3390
13043TIP3   OH260543   2.948   2.650   1.207  0.1951  0.6657 -0.3291
13043TIP3    H160544   2.900   2.646   1.290 -0.6808  0.5179 -0.8321
13043TIP3    H260545   2.880   2.658   1.140  0.6828 -1.9910 -1.2724
13044TIP3   OH260546   6.446   6.548   5.672  0.0355 -0.0400  0.0905
13044TIP3    H160547   6.428   6.615   5.737  0.3645  0.7990 -0.6559
13044TIP3    H260548   6.389   6.475   5.695 -1.0144  0.8501  0.3768
13045TIP3   OH260549   3.215   6.738   4.153  0.2377  0.0527 -0.2775
13045TIP3    H160550   3.121   6.751   4.142  0.3212  0.4909 -0.5095
13045TIP3    H260551   3.238   6.789   4.230  0.8270  2.6463 -2.0391
13046TIP3   OH260552   5.572   5.265  12.009 -0.2848 -0.6302 -0.1941
13046TIP3    H160553   5.566   5.361  12.011  1.1349 -0.4702  3.2501
13046TIP3    H260554   5.631   5.246  11.937 -0.3324  1.1028 -0.7409
13047TIP3   OH260555   2.417   6.231  14.029  0.1015  0.3847 -0.1410
13047TIP3    H160556   2.331   6.236  14.071  0.6944 -0.2039  1.2245
13047TIP3    H260557   2.405   6.171  13.956 -0.4876 -0.2730  0.4815
13048TIP3   OH260558   5.229   1.796  12.738  0.1367 -0.5451  0.1782
13048TIP3    H160559   5.200   1.718  12.691 -0.2405  0.0228 -0.5657
13048TIP3    H260560   5.268   1.763  12.819 -0.2871 -1.4789  0.0121
13049TIP3   OH260561   4.099   3.994   1.180 -0.0477 -0.1063  0.1238
13049TIP3    H160562   4.033   3.930   1.209  0.9763 -0.7355  1.1326
13049TIP3    H260563   4.130   3.959   1.096  3.1899 -3.1652  2.3026
13050TIP3   OH260564   0.766   4.711   5.313 -0.0058 -0.2654 -0.3937
13050TIP3    H160565   0.702   4.668   5.256 -1.2373 -0.8369  1.3492
13050TIP3    H260566   0.750   4.804   5.301 -0.2519 -0.3794 -0.9727
13051TIP3   OH260567   2.435   3.061  12.006  0.2173 -0.6626 -0.5150
13051TIP3    H160568   2.492   3.116  11.954 -0.7434  0.0757 -0.8221
13051TIP3    H260569   2.484   2.980  12.019  1.6595  0.2630 -0.0356
13052TIP3   OH260570   0.311   2.196   4.799 -0.3638 -0.1505  0.0670
13052TIP3    H160571   0.252   2.127   4.831  0.7911 -0.7853  0.8937
13052TIP3    H260572   0.380   2.201   4.865  1.2419 -0.3662 -1.5257
13053TIP3   OH260573   0.878   6.186  14.141 -0.2113 -0.2432  0.2931
13053TIP3    H160574   0.797   6.135  14.132 -0.9866  0.8897  0.6256
13053TIP3    H260575   0.946   6.130  14.103 -1.0568 -1.4454  0.5036
13054TIP3   OH260576   3.651   4.866  11.032  0.0878 -0.1498  0.3645
13054TIP3    H160577   3.743   4.882  11.013 -0.1638  2.2678  0.8411
13054TIP3    H260578   3.611   4.953  11.034 -1.8933 -0.9995  1.7290
13055TIP3   OH260579   1.597   6.782   2.832 -0.3323 -0.0519 -0.0688
13055TIP3    H160580   1.538   6.853   2.805 -1.3134 -0.2721  1.3712
13055TIP3    H260581   1.684   6.814   2.810 -0.8305  1.1528 -0.4027
13056TIP3   OH260582   3.799   4.528  12.114 -0.3763  0.3049 -0.2470
13056TIP3    H160583   3.705   4.533  12.127 -0.2173  1.6534  0.5556
13056TIP3    H260584   3.822   4.608  12.067  0.5801  0.9045  1.1537
13057TIP3   OH260585   2.772   5.818   6.275  0.7501  0.1823 -0.1393
13057TIP3    H160586   2.763   5.855   6.186  1.8750 -1.0600 -0.8126
13057TIP3    H260587   2.691   5.771   6.290  0.4365  0.6281 -0.4004
13058TIP3   OH260588   6.025   6.745   5.783 -0.4474  0.7309 -0.2603
13058TIP3    H160589   5.957   6.748   5.851  1.5356  0.7950  1.8633
13058TIP3    H260590   6.032   6.652   5.761  0.0551  0.4612  0.9472
13059TIP3   OH260591   2.828   3.854  15.728 -0.0227  0.6704 -0.1144
13059TIP3    H160592   2.859   3.933  15.684  0.5874  1.5300  1.7702
13059TIP3    H260593   2.747   3.882  15.771  0.3882  0.4019  0.8606
13060TIP3   OH260594   0.683   1.441   3.798 -0.3837 -0.5799 -0.4572
13060TIP3    H160595   0.769   1.400   3.789 -0.9639 -1.9350 -0.1185
13060TIP3    H260596   0.673   1.493   3.718 -0.0252 -1.9169 -1.4081
13061TIP3   OH260597   6.536   0.373   0.995  0.4263  0.9890 -0.0714
13061TIP3    H160598   6.523   0.293   0.945  0.3764  0.9143  0.0608
13061TIP3    H260599   6.593   0.427   0.940  0.4934  0.8456 -0.1415
13062TIP3   OH260600   1.536   4.505  10.622  0.1298  0.4559  0.2434
13062TIP3    H160601   1.456   4.555  10.606  0.3560  0.8055  0.1956
13062TIP3    H260602   1.508   4.432  10.678 -0.5959 -0.5167 -1.2928
13063TIP3   OH260603   0.682   5.646  14.021  0.3611 -0.2453  0.5506
13063TIP3    H160604   0.777   5.631  14.023  0.2142 -1.1361  1.5853
13063TIP3    H260605   0.656   5.616  13.934  1.2633  1.7684 -0.4949
13064TIP3   OH260606   5.259   0.265   6.437 -0.6562 -1.0046  0.0643
13064TIP3    H160607   5.234   0.354   6.462 -1.3479 -0.8007 -1.2993
13064TIP3    H260608   5.215   0.209   6.501  0.2670 -0.3714  1.3028
13065TIP3   OH260609   4.641   5.807   4.805  0.1872 -0.0116  0.2166
13065TIP3    H160610   4.611   5.782   4.892  1.5012  0.2994  0.7887
13065TIP3    H260611   4.582   5.877   4.779 -0.6838 -0.6123  0.5315
13066TIP3   OH260612   1.379   4.492   3.683 -0.6230  0.4571  0.7756
13066TIP3    H160613   1.401   4.583   3.666 -0.7814  0.3684  0.0877
13066TIP3    H260614   1.297   4.495   3.733 -0.5644  0.6953  0.8544
13067TIP3   OH260615   4.209   3.450   1.830 -0.2794  0.6152 -0.1108
13067TIP3    H160616   4.298   3.424   1.804 -0.8001  0.1669 -1.5212
13067TIP3    H260617   4.223   3.528   1.884  0.9939  0.3726 -0.0477
13068TIP3   OH260618   4.734   4.193  11.252 -0.2618  0.3537 -0.0972
13068TIP3    H160619   4.707   4.284  11.238 -3.2060 -0.6389 -1.8683
13068TIP3    H260620   4.758   4.162  11.164 -2.1441 -1.3224 -0.0855
13069TIP3   OH260621   4.646   6.219   1.168 -1.0333  0.4511  0.1130
13069TIP3    H160622   4.675   6.196   1.256  0.5790 -1.4915 -0.8459
13069TIP3    H260623   4.715   6.276   1.134  0.7610 -2.3502 -1.3601
13070TIP3   OH260624   4.126   3.905  14.207 -0.3788  0.1422 -0.0539
13070TIP3    H160625   4.116   3.893  14.302 -2.1212 -0.3516 -0.2611
13070TIP3    H260626   4.200   3.965  14.198 -0.0339  0.0224  1.6072
13071TIP3   OH260627   6.763   3.322   2.619 -0.3968 -0.4491  0.3310
13071TIP3    H160628   6.806   3.405   2.638  1.4480 -1.4505  0.8889
13071TIP3    H260629   6.739   3.327   2.526  1.6344 -0.0586 -0.2220
13072TIP3   OH260630   4.991   4.041  14.848  0.0145  0.0576  0.1088
13072TIP3    H160631   5.002   4.021  14.941  0.7669  1.8521  0.4680
13072TIP3    H260632   4.981   3.956  14.806 -1.4728 -0.7647  1.9419
13073TIP3   OH260633   3.698   4.017   4.038  0.6790  0.0832 -0.0910
13073TIP3    H160634   3.615   3.986   4.076  0.5505  0.4919 -0.0327
13073TIP3    H260635   3.704   4.108   4.066  1.4555 -0.1158  0.4213
13074TIP3   OH260636   6.079   4.013   4.626  0.2471  0.7249  0.1116
13074TIP3    H160637   6.097   3.922   4.649 -1.9339 -0.1048 -1.1369
13074TIP3    H260638   6.127   4.027   4.544 -1.0327 -0.0115 -0.7980
13075TIP3   OH260639   3.665   4.461  16.754 -0.6506  0.1542 -0.0631
13075TIP3    H160640   3.635   4.552  16.756 -1.8857 -0.2163 -0.6842
13075TIP3    H260641   3.743   4.460  16.809 -0.1596  1.7448 -0.6808
13076TIP3   OH260642   1.780   5.879  11.767 -0.3012  0.4712  0.4048
13076TIP3    H160643   1.771   5.853  11.859  1.6020 -1.8035  0.0457
13076TIP3    H260644   1.852   5.942  11.767  0.4160 -0.3265  0.3958
13077TIP3   OH260645   1.166   3.177   2.762  0.1674  0.1389 -0.3073
13077TIP3    H160646   1.085   3.224   2.743  0.8017  0.5364 -2.3642
13077TIP3    H260647   1.217   3.237   2.816 -0.1159  0.7291 -0.6786
13078TIP3   OH260648   6.269   2.322   1.800  0.1474  0.2359  0.5975
13078TIP3    H160649   6.308   2.277   1.874 -0.0996 -0.1353  0.5061
13078TIP3    H260650   6.306   2.410   1.803  3.2893 -0.8827 -1.2005
13079TIP3   OH260651   1.386   6.678   0.478  0.1743 -0.0828 -0.4276
13079TIP3    H160652   1.376   6.769   0.506 -3.2387 -0.3281 -0.4254
13079TIP3    H260653   1.477   6.658   0.496  0.5906  2.7431  1.3856
13080TIP3   OH260654   6.722   5.131  11.068 -0.7626 -0.3716  0.1145
13080TIP3    H160655   6.685   5.205  11.117  0.3655  0.0531  0.3601
13080TIP3    H260656   6.647   5.077  11.046 -1.3991 -0.1725  1.6575
13081TIP3   OH260657   1.232   2.383  13.546 -0.1232 -0.0046  0.3146
13081TIP3    H160658   1.148   2.427  13.552  0.8255  1.9647  0.0326
13081TIP3    H260659   1.265   2.406  13.459  0.4771 -1.2154  0.1902
13082TIP3   OH260660   6.541   1.781   1.137  0.5074  0.4001 -0.0252
13082TIP3    H160661   6.571   1.710   1.195 -0.8889  0.9978  1.5166
13082TIP3    H260662   6.619   1.835   1.125  1.5800 -1.2712 -1.1395
13083TIP3   OH260663   0.177   4.415   3.076  0.2357 -0.2154 -0.6915
13083TIP3    H160664   0.216   4.496   3.043 -1.4364  1.0203  0.2038
13083TIP3    H260665   0.221   4.400   3.160  0.6110 -0.2972 -0.9008
13084TIP3   OH260666   3.310   2.142  13.161  0.1652  0.2674 -0.0380
13084TIP3    H160667   3.225   2.140  13.118  0.3167  2.0297 -0.5226
13084TIP3    H260668   3.313   2.229  13.203  1.4142 -0.0629  0.6057
13085TIP3   OH260669   1.348   6.432   5.726  0.7366  0.2832 -0.1931
13085TIP3    H160670   1.356   6.341   5.755  0.7552 -0.7162 -3.0061
13085TIP3    H260671   1.299   6.427   5.644 -2.4589  3.2262  1.2646
13086TIP3   OH260672   3.055   2.224   1.896  0.0255 -0.0622 -0.0030
13086TIP3    H160673   2.967   2.248   1.869 -0.4319 -1.6062 -0.0030
13086TIP3    H260674   3.052   2.221   1.991  0.2758  0.5524  0.0278
13087TIP3   OH260675   3.129   3.953  11.895 -0.3425 -0.2783  0.3501
13087TIP3    H160676   3.058   3.911  11.943  0.4254 -1.7668  0.2490
13087TIP3    H260677   3.086   4.002  11.825 -1.2615 -1.6017 -0.0448
13088TIP3   OH260678   4.361   1.485   4.123  0.3235 -0.4142  0.1055
13088TIP3    H160679   4.274   1.466   4.088  0.7061 -2.9806  0.3040
13088TIP3    H260680   4.373   1.420   4.193  2.4300 -0.2237 -0.0163
13089TIP3   OH260681   1.055   2.021  16.775  0.5746 -0.0563  0.4452
13089TIP3    H160682   1.149   2.036  16.760  0.6325 -0.0885  0.7570
13089TIP3    H260683   1.052   1.949  16.838  0.3211 -0.5212 -0.0909
13090TIP3   OH260684   5.185   6.692  14.403  0.1642 -0.8128 -0.0289
13090TIP3    H160685   5.189   6.671  14.310  0.3766  0.3036 -0.2777
13090TIP3    H260686   5.146   6.779  14.407 -0.3402 -1.0615  0.9638
13091TIP3   OH260687   3.053   3.275  12.505 -0.4300  0.3881 -1.0934
13091TIP3    H160688   3.062   3.356  12.555 -0.2464  1.4295 -2.7351
13091TIP3    H260689   2.968   3.240  12.531  1.4897 -1.6825  3.4270
13092TIP3   OH260690   5.939   0.408  16.917  0.4987 -0.3500  0.2663
13092TIP3    H160691   5.848   0.437  16.923  0.5566 -0.3123  1.0980
13092TIP3    H260692   5.964   0.426  16.827  0.7303  2.8016  0.8373
13093TIP3   OH260693   4.292   4.108   0.361  0.4970 -0.3002  0.0385
13093TIP3    H160694   4.318   4.022   0.328 -1.1746 -0.1379 -1.8662
13093TIP3    H260695   4.218   4.090   0.420 -1.2333 -0.1023 -1.9561
13094TIP3   OH260696   1.145   6.737   4.317  0.0276 -0.6228  0.4724
13094TIP3    H160697   1.185   6.717   4.402 -1.0834 -1.3163  0.8538
13094TIP3    H260698   1.051   6.727   4.332 -0.2720  0.5598 -0.5170
13095TIP3   OH260699   0.403   1.344  12.410  0.6864 -0.7885  0.7988
13095TIP3    H160700   0.378   1.348  12.502 -1.7221  0.7724  0.1691
13095TIP3    H260701   0.321   1.328  12.364  1.2803  1.6483 -1.2888
13096TIP3   OH260702   1.319   4.654   5.297 -0.6327  0.3660  0.6116
13096TIP3    H160703   1.411   4.635   5.316 -0.5811 -0.2678 -0.2320
13096TIP3    H260704   1.278   4.663   5.383  0.0442 -0.1887  0.9979
13097TIP3   OH260705   4.196   4.410   6.075 -0.2545 -0.5760  0.1459
13097TIP3    H160706   4.109   4.369   6.082 -0.7180  0.6284  3.1493
13097TIP3    H260707   4.254   4.338   6.050 -1.5198 -2.4276  2.1730
13098TIP3   OH260708   5.274   5.442   1.290 -0.0571  0.1570 -0.6598
13098TIP3    H160709   5.178   5.442   1.293 -0.0577  0.8311 -0.3185
13098TIP3    H260710   5.296   5.447   1.197 -0.3866  2.1275 -0.6684
13099TIP3   OH260711   3.286   5.325   5.805 -0.5642  0.5980  0.3016
13099TIP3    H160712   3.359   5.326   5.743 -1.0223  0.9592 -0.2413
13099TIP3    H260713   3.282   5.235   5.836  1.2068  0.9176  1.6521
13100TIP3   OH260714   1.131   1.652   4.095  0.3601  0.4728  0.1065
13100TIP3    H160715   1.197   1.685   4.156  0.4761 -2.1352  1.5255
13100TIP3    H260716   1.181   1.614   4.023  0.2759  1.4130 -0.4684
13101TIP3   OH260717   2.501   3.245  13.105  0.4366 -0.0677  0.1902
13101TIP3    H160718   2.467   3.265  13.192 -0.7633 -3.7995  0.7667
13101TIP3    H260719   2.584   3.293  13.100 -0.8420  2.6223  2.1044
13102TIP3   OH260720   0.257   5.684   2.223 -0.2428 -0.1990  0.6307
13102TIP3    H160721   0.249   5.729   2.139 -2.4723  1.2656  1.5211
13102TIP3    H260722   0.220   5.597   2.207 -1.6281  0.4217  0.2965
13103TIP3   OH260723   3.974   5.860  14.615 -0.3889  0.3055 -0.0629
13103TIP3    H160724   3.911   5.833  14.549  0.4494 -0.4319 -0.5809
13103TIP3    H260725   4.020   5.780  14.640 -0.5839  0.5938  1.3228
13104TIP3   OH260726   0.132   0.888  12.357 -0.0361 -0.9695 -0.0210
13104TIP3    H160727   0.170   0.801  12.371  0.4008 -0.5888  1.3525
13104TIP3    H260728   0.137   0.930  12.443 -2.6343 -0.4940 -0.0181
13105TIP3   OH260729   5.394   6.643  13.837 -0.0476  0.1475  0.0617
13105TIP3    H160730   5.335   6.649  13.763  0.5797  0.1679 -0.4437
13105TIP3    H260731   5.393   6.551  13.862 -0.0998  0.1055 -0.1001
13106TIP3   OH260732   3.299   2.149  16.416  0.0375 -0.2816 -0.2600
13106TIP3    H160733   3.371   2.118  16.361  1.9840  1.0812  1.3396
13106TIP3    H260734   3.222   2.103  16.384  1.2716 -0.5083 -3.2206
13107TIP3   OH260735   1.991   4.743  17.070  0.7442 -0.0190 -0.5501
13107TIP3    H160736   2.070   4.689  17.063  1.3482  0.9630 -1.6399
13107TIP3    H260737   2.018   4.817  17.124  0.2604 -0.2014 -0.0539
13108TIP3   OH260738   0.227   6.278  15.068 -0.3497  0.3099  0.2619
13108TIP3    H160739   0.292   6.343  15.097 -0.4325 -0.0548  1.3063
13108TIP3    H260740   0.146   6.328  15.059 -0.4647  0.3309  1.2712
13109TIP3   OH260741   2.052   5.907   4.390 -0.3751  0.1874 -0.3040
13109TIP3    H160742   2.105   5.969   4.341 -0.8633  0.7264 -0.1539
13109TIP3    H260743   1.978   5.887   4.332 -1.6980  1.8850  0.7060
13110TIP3   OH260744   0.191   2.313   3.741  0.4062  0.1619 -0.0717
13110TIP3    H160745   0.272   2.364   3.731 -0.2970  1.6730  1.5162
13110TIP3    H260746   0.201   2.241   3.678  2.0866  1.4170 -1.3435
13111TIP3   OH260747   5.467   1.545  11.746 -0.3673  0.5034  0.2208
13111TIP3    H160748   5.474   1.552  11.651 -0.0205 -0.1428  0.1909
13111TIP3    H260749   5.380   1.579  11.766 -0.4801  0.5552 -0.3407
13112TIP3   OH260750   0.934   6.395   5.613 -0.7800 -0.2065 -0.4386
13112TIP3    H160751   0.915   6.431   5.700  0.4552  2.1933 -1.0903
13112TIP3    H260752   0.946   6.301   5.628 -2.1983 -0.1077  1.6926
13113TIP3   OH260753   0.963   1.982   5.434 -0.5936 -0.1373 -0.4330
13113TIP3    H160754   1.037   2.026   5.474  0.5039 -1.2546 -1.1583
13113TIP3    H260755   0.925   1.930   5.505 -0.2117 -0.1471 -0.2334
13114TIP3   OH260756   6.191   0.055  14.825 -0.2278  0.3419  0.7565
13114TIP3    H160757   6.271   0.011  14.854 -0.1034 -0.5417 -0.8415
13114TIP3    H260758   6.139   0.063  14.905 -0.0909 -2.3989  1.2191
13115TIP3   OH260759   0.100   0.309  16.255  0.2310 -0.3787 -0.0607
13115TIP3    H160760   0.078   0.255  16.331  1.3800 -0.0432  0.5382
13115TIP3    H260761   0.093   0.249  16.180  1.3573 -1.3416  0.5706
13116TIP3   OH260762   1.118   3.254   5.363 -0.0024 -0.4991 -0.0762
13116TIP3    H160763   1.143   3.320   5.428 -0.3726  0.3073 -0.7259
13116TIP3    H260764   1.048   3.296   5.312 -1.1822 -1.8805  0.3297
13117TIP3   OH260765   5.684   6.357  16.529 -0.2223 -0.8110  0.3342
13117TIP3    H160766   5.632   6.378  16.452  0.3662  1.7532  0.5569
13117TIP3    H260767   5.656   6.268  16.554 -3.0578 -0.2846 -0.6535
13118TIP3   OH260768   4.457   2.949  15.396 -0.2267  0.1978  0.6502
13118TIP3    H160769   4.505   2.978  15.474 -0.6582 -0.3194  1.1185
13118TIP3    H260770   4.499   2.866  15.372  1.0089  1.1510 -0.6902
13119TIP3   OH260771   2.531   3.059   4.417  0.0595 -0.5290 -1.0809
13119TIP3    H160772   2.497   3.146   4.437 -1.2223 -1.1559 -0.3733
13119TIP3    H260773   2.595   3.073   4.348  0.7187  1.1008 -0.1764
13120TIP3   OH260774   2.882   2.149   4.412  0.6720  0.3799 -0.7655
13120TIP3    H160775   2.953   2.118   4.469  0.4286  1.9963  0.4853
13120TIP3    H260776   2.851   2.230   4.454  0.0679  1.3085 -2.8864
13121TIP3   OH260777   6.052   3.689   4.996  0.8982  0.0333  0.1434
13121TIP3    H160778   5.996   3.611   4.999  1.4416 -0.4102 -0.5842
13121TIP3    H260779   6.138   3.658   5.026  1.0303  0.4258  0.1744
13122TIP3   OH260780   1.763   4.723  11.389 -0.0067  0.5934  0.0557
13122TIP3    H160781   1.786   4.656  11.453  0.2515  0.1767 -0.4655
13122TIP3    H260782   1.771   4.679  11.304 -1.5014  0.7998 -0.2186
13123TIP3   OH260783   1.936   2.340  16.643  0.6215 -0.3591 -0.2447
13123TIP3    H160784   1.847   2.335  16.609  0.0856 -0.1715  1.0675
13123TIP3    H260785   1.985   2.387  16.576 -0.1897 -0.7364 -1.1228
13124TIP3   OH260786   4.275   3.078  10.843 -0.1331  0.7483 -0.2175
13124TIP3    H160787   4.336   3.062  10.772 -0.9080  0.6751 -0.8767
13124TIP3    H260788   4.235   3.162  10.822 -0.7687  0.4629 -0.1676
13125TIP3   OH260789   4.817   6.205  13.767  0.1449 -0.8280 -0.2796
13125TIP3    H160790   4.847   6.276  13.823 -1.5871 -0.3562  0.1318
13125TIP3    H260791   4.841   6.125  13.815 -1.6159 -0.4336  1.4021
13126TIP3   OH260792   0.116   2.829  17.251 -0.3802  0.1451  0.0670
13126TIP3    H160793   0.067   2.781  17.317  0.2800 -0.7317 -0.0650
13126TIP3    H260794   0.061   2.826  17.173 -1.0347  0.9450  0.4761
13127TIP3   OH260795   1.619   6.628  12.764  0.1874  0.1548  0.2068
13127TIP3    H160796   1.605   6.696  12.830 -1.7366  0.3195 -0.3066
13127TIP3    H260797   1.537   6.578  12.764  0.5740 -0.5221 -1.2966
13128TIP3   OH260798   1.980   2.745   1.642  0.0511 -0.1683 -0.5572
13128TIP3    H160799   1.926   2.809   1.688  0.6477  0.2608 -0.4361
13128TIP3    H260800   2.036   2.707   1.709 -0.0410 -0.5537 -0.6947
13129TIP3   OH260801   3.438   0.905   1.601  0.7721  0.1852  0.2098
13129TIP3    H160802   3.496   0.943   1.534 -0.3426 -0.0404 -0.9080
13129TIP3    H260803   3.394   0.980   1.640 -0.5315  0.1795 -1.1659
13130TIP3   OH260804   0.805   1.939  13.833  0.3110  0.1715  0.1907
13130TIP3    H160805   0.802   2.018  13.778 -0.9162 -0.1537 -0.2363
13130TIP3    H260806   0.843   1.872  13.777 -0.9070 -0.1506 -0.2954
13131TIP3   OH260807   6.226   4.217  16.844 -0.3593  0.1795  0.3564
13131TIP3    H160808   6.293   4.279  16.817 -0.0638  0.5607  1.8409
13131TIP3    H260809   6.235   4.144  16.784  1.2180  0.3452  0.3456
13132TIP3   OH260810   3.925   4.842  17.141 -0.7508 -0.8548  0.1050
13132TIP3    H160811   3.961   4.777  17.081  1.6092 -0.2741  0.8162
13132TIP3    H260812   3.962   4.821  17.226 -0.0911  1.2571  0.4066
13133TIP3   OH260813   1.814   0.561   2.096 -0.1943 -0.1710  0.7176
13133TIP3    H160814   1.770   0.614   2.030 -0.8507 -0.2731  1.0705
13133TIP3    H260815   1.790   0.601   2.180 -0.3439 -0.7571  0.9615
13134TIP3   OH260816   5.161   0.650  16.723 -0.1903 -0.4042 -0.4043
13134TIP3    H160817   5.188   0.561  16.746  1.2847 -0.4855 -2.2156
13134TIP3    H260818   5.183   0.659  16.631  1.3816  2.4418  0.1326
13135TIP3   OH260819   1.569   2.942   5.810  0.1254  1.0071 -0.6518
13135TIP3    H160820   1.557   2.848   5.819 -0.8282  1.1817  0.0030
13135TIP3    H260821   1.563   2.976   5.899  0.3896  1.6984 -0.8871
13136TIP3   OH260822   3.120   1.295   5.487 -0.0313  0.1845 -0.7726
13136TIP3    H160823   3.156   1.229   5.547 -1.1486 -0.9518 -1.3050
13136TIP3    H260824   3.155   1.270   5.401 -0.5357  0.2312 -0.9919
13137TIP3   OH260825   3.268   0.976  14.036 -0.0369  0.1659 -0.1144
13137TIP3    H160826   3.254   0.993  13.943  0.9998 -1.6403 -0.6733
13137TIP3    H260827   3.344   1.030  14.059 -0.1540  0.4488 -0.3985
13138TIP3   OH260828   4.948   2.034   3.131  0.2563  0.0598  0.3325
13138TIP3    H160829   4.877   2.098   3.119 -0.8593 -1.0228  0.9643
13138TIP3    H260830   5.007   2.052   3.058 -1.6829 -0.2948 -1.4418
13139TIP3   OH260831   3.931   1.549  10.904 -0.0245  0.0018  0.4074
13139TIP3    H160832   3.980   1.484  10.954 -0.6021 -1.3193 -0.6773
13139TIP3    H260833   3.978   1.557  10.821 -1.7302 -1.5891 -0.8222
13140TIP3   OH260834   5.591   2.249  14.386  0.1733  0.5064  0.1185
13140TIP3    H160835   5.575   2.158  14.413 -1.6472  0.4685 -1.0000
13140TIP3    H260836   5.680   2.267  14.417  0.2345 -1.3496  1.1666
13141TIP3   OH260837   4.273   5.638  16.832  0.2899  0.6135 -0.0643
13141TIP3    H160838   4.197   5.693  16.815  0.1092  0.8091  1.2777
13141TIP3    H260839   4.289   5.648  16.925  0.8379 -0.8729  0.0236
13142TIP3   OH260840   3.286   4.490  15.983  0.2879  0.0130 -0.2258
13142TIP3    H160841   3.307   4.435  15.907  2.1950 -0.3184  0.5032
13142TIP3    H260842   3.348   4.463  16.051  0.2451  1.9901  0.6758
13143TIP3   OH260843   6.204   3.193   2.966  0.4193  0.0462  0.1860
13143TIP3    H160844   6.119   3.237   2.953  0.0674 -0.4564  0.7570
13143TIP3    H260845   6.212   3.136   2.890  0.7421  0.8615 -0.4117
13144TIP3   OH260846   1.054   3.226   4.411  0.4152  0.0302 -0.2210
13144TIP3    H160847   1.066   3.257   4.321 -0.2888  0.0956 -0.3023
13144TIP3    H260848   0.959   3.227   4.424  0.4038 -1.3425  0.0335
13145TIP3   OH260849   5.429   6.249  15.623 -0.5384  0.1168  0.2140
13145TIP3    H160850   5.444   6.226  15.532  1.8018 -0.8295  0.7534
13145TIP3    H260851   5.345   6.209  15.645  0.3048 -2.3869 -0.7194
13146TIP3   OH260852   5.144   1.791  11.548 -0.0866  0.2732  0.3854
13146TIP3    H160853   5.152   1.882  11.578 -1.4709  0.4710  0.1846
13146TIP3    H260854   5.078   1.794  11.479  1.7289 -0.4809 -1.4727
13147TIP3   OH260855   0.224   0.836  16.384  0.0073 -0.0476  0.2027
13147TIP3    H160856   0.166   0.870  16.317  0.0940  0.6899  0.4978
13147TIP3    H260857   0.312   0.843  16.346  0.3218  2.5179  1.2119
13148TIP3   OH260858   0.468   3.001  15.064  0.2799 -0.2607 -0.0086
13148TIP3    H160859   0.540   3.028  15.121  1.7663 -0.6029 -1.6504
13148TIP3    H260860   0.498   2.921  15.023 -0.5317  0.2272 -1.6400
13149TIP3   OH260861   2.896   0.595   1.708  0.3200  1.0119  0.2026
13149TIP3    H160862   2.989   0.586   1.687  0.7009  2.7717  0.9252
13149TIP3    H260863   2.895   0.637   1.795 -1.1631 -0.2169  0.8215
13150TIP3   OH260864   3.935   5.344   5.088  0.3224 -0.2022 -0.7925
13150TIP3    H160865   3.842   5.346   5.110  0.4287 -0.8356 -0.2567
13150TIP3    H260866   3.979   5.323   5.170  0.9313 -0.0068 -1.0638
13151TIP3   OH260867   2.110   4.919   1.219 -0.1148 -0.3416 -0.1031
13151TIP3    H160868   2.033   4.909   1.275  0.2453  0.8667  0.6341
13151TIP3    H260869   2.138   4.829   1.201 -1.1830 -0.7807  0.3208
13152TIP3   OH260870   1.248   2.392   1.677  0.1860  0.0537 -0.3025
13152TIP3    H160871   1.156   2.377   1.658  0.1457  1.0484 -0.9739
13152TIP3    H260872   1.267   2.477   1.638  1.4888 -0.3134 -0.5173
13153TIP3   OH260873   4.767   1.152   3.844 -0.0684 -0.4529  0.0265
13153TIP3    H160874   4.725   1.185   3.923  1.2757  0.2852  0.4562
13153TIP3    H260875   4.701   1.163   3.775 -1.4003 -1.4981  1.1025
13154TIP3   OH260876   0.234   6.464  10.524  0.1803 -0.0506  0.3877
13154TIP3    H160877   0.153   6.432  10.564 -0.0108  0.7260  0.6392
13154TIP3    H260878   0.210   6.549  10.486  0.4213 -0.6502 -1.1727
13155TIP3   OH260879   1.074   0.002  13.130 -0.1306 -0.3931  0.1508
13155TIP3    H160880   1.068   0.081  13.183 -0.1998  0.6888 -1.4136
13155TIP3    H260881   1.132  -0.056  13.180  1.0561  1.1730  0.6754
13156TIP3   OH260882   3.898   3.512   2.140 -0.1164  0.1861 -0.0444
13156TIP3    H160883   3.980   3.561   2.138 -0.4484  0.7309 -1.0262
13156TIP3    H260884   3.902   3.455   2.063  0.4630 -1.7107  1.3024
13157TIP3   OH260885   1.498   5.087   0.519 -0.1826 -0.4459  0.8288
13157TIP3    H160886   1.562   5.137   0.469 -0.3741  0.5823  1.5807
13157TIP3    H260887   1.422   5.080   0.462  1.0239 -2.9336 -0.6730
13158TIP3   OH260888   0.237   5.439   4.902 -0.2297 -0.0228  0.5806
13158TIP3    H160889   0.170   5.400   4.959  0.5923 -1.4527  0.6105
13158TIP3    H260890   0.189   5.470   4.826 -0.9255 -1.1515  0.5369
13159TIP3   OH260891   1.458   4.112  17.048 -0.3227  0.3946  0.2256
13159TIP3    H160892   1.373   4.068  17.047 -0.4284  0.5954  0.4278
13159TIP3    H260893   1.463   4.156  16.963  0.7872 -1.9237 -1.0262
13160TIP3   OH260894   4.284   5.747  11.086 -0.0731  0.1745  0.2960
13160TIP3    H160895   4.291   5.654  11.063  0.1640 -0.1534  1.6145
13160TIP3    H260896   4.370   5.783  11.065  0.3180 -0.2389  1.1378
13161TIP3   OH260897   5.242   2.582  10.990 -0.0792  0.0389  0.5005
13161TIP3    H160898   5.213   2.599  10.901  1.3829  0.8323  0.1517
13161TIP3    H260899   5.236   2.487  10.999  0.3205 -0.1094 -0.6464
13162TIP3   OH260900   3.978   3.514  10.520 -0.0895 -0.4382  0.4116
13162TIP3    H160901   3.962   3.608  10.507 -1.5622 -0.7798 -0.4357
13162TIP3    H260902   4.036   3.490  10.447  1.1319 -0.0159  1.2031
13163TIP3   OH260903   1.590   4.962   1.809 -0.4627  0.0902 -0.3692
13163TIP3    H160904   1.656   4.908   1.851 -1.2722 -2.1027 -1.7395
13163TIP3    H260905   1.640   5.031   1.764  0.7739 -0.6658 -0.1881
13164TIP3   OH260906   2.027   0.516  14.795  0.7197 -0.5949  0.2173
13164TIP3    H160907   2.006   0.604  14.826  0.9612  0.2345 -1.7864
13164TIP3    H260908   2.116   0.500  14.824  0.3873 -0.5354  1.3015
13165TIP3   OH260909   4.509   1.711   1.659  0.6207  0.3276 -0.0804
13165TIP3    H160910   4.525   1.797   1.697 -1.3530  1.0416 -0.7154
13165TIP3    H260911   4.588   1.692   1.608  0.7121  2.2643 -0.7688
13166TIP3   OH260912   1.016   5.548   0.993  0.0922  0.5466 -0.4876
13166TIP3    H160913   1.057   5.635   0.992 -0.4947  0.8211 -1.1981
13166TIP3    H260914   1.056   5.504   1.069  1.1841  1.0447 -0.7495
13167TIP3   OH260915   0.843   3.851   2.512  0.2932 -0.0078 -0.5958
13167TIP3    H160916   0.911   3.785   2.503  0.4630 -0.2871  1.9211
13167TIP3    H260917   0.882   3.919   2.565 -0.9757  0.4386 -0.1888
13168TIP3   OH260918   0.693   4.984   3.296  0.5988 -0.0162 -0.4202
13168TIP3    H160919   0.726   4.922   3.362 -0.9343  0.9097  1.3236
13168TIP3    H260920   0.627   4.935   3.247  1.3386 -0.5413 -0.9105
13169TIP3   OH260921   0.655   2.959  15.259  0.2900 -0.4784  0.8868
13169TIP3    H160922   0.704   3.037  15.232 -0.4343 -0.8063 -1.6032
13169TIP3    H260923   0.722   2.897  15.288  1.0315  0.3121  0.9227
13170TIP3   OH260924   3.919   3.079   1.557 -0.0414  0.2618 -0.2101
13170TIP3    H160925   3.881   3.041   1.636 -0.9199  0.4089 -0.5573
13170TIP3    H260926   3.924   3.006   1.495 -2.9762  0.9137 -1.3433
13171TIP3   OH260927   3.247   0.594  17.212 -0.4437 -0.0159 -0.1138
13171TIP3    H160928   3.321   0.645  17.179  0.2243 -0.8782  0.0484
13171TIP3    H260929   3.189   0.660  17.251  0.3946  0.6279  0.0780
13172TIP3   OH260930   2.012   0.910   2.498 -0.1394  0.3640 -0.0942
13172TIP3    H160931   2.098   0.884   2.532  0.6656  0.9130 -1.6041
13172TIP3    H260932   1.967   0.948   2.573  0.8669 -0.1051  0.7706
13173TIP3   OH260933   6.568   3.970   0.617  0.0167  0.5357 -0.6853
13173TIP3    H160934   6.595   4.056   0.650 -2.4288  0.5738  1.6444
13173TIP3    H260935   6.498   3.990   0.555 -1.0334  0.2978  0.3705
13174TIP3   OH260936   1.749   2.867  12.056  0.1115  0.2953  0.1096
13174TIP3    H160937   1.764   2.906  12.142 -0.4969  0.5851  0.0967
13174TIP3    H260938   1.663   2.902  12.029  0.3032  0.2251 -0.6181
13175TIP3   OH260939   2.273   4.001  16.005 -0.4518 -0.1033 -0.2367
13175TIP3    H160940   2.220   3.922  16.014 -0.5407  0.1298  1.7228
13175TIP3    H260941   2.219   4.061  15.954 -0.3762 -1.2769 -1.7807
13176TIP3   OH260942   3.870   5.373   2.279  0.6074 -0.0965 -0.7290
13176TIP3    H160943   3.836   5.405   2.195 -0.7572  1.1129  0.2422
13176TIP3    H260944   3.799   5.321   2.315  0.9956 -0.1907 -0.1001
13177TIP3   OH260945   3.896   2.228   1.605 -0.3077 -0.2630  0.0983
13177TIP3    H160946   3.894   2.154   1.665 -0.3647  0.8088  1.4553
13177TIP3    H260947   3.964   2.204   1.541  0.5565 -0.9558  1.2240
13178TIP3   OH260948   2.032   6.073  17.026  0.9300  0.3898  0.0723
13178TIP3    H160949   1.995   6.160  17.041 -2.4963 -0.7415 -0.9598
13178TIP3    H260950   2.077   6.080  16.942  0.4579  1.1176 -0.1311
13179TIP3   OH260951   4.246   4.922  16.433 -0.0936 -0.0273  0.6018
13179TIP3    H160952   4.218   4.962  16.515  3.3484 -0.5762  2.2136
13179TIP3    H260953   4.264   4.831  16.455  0.6205 -0.2585 -0.8302
13180TIP3   OH260954   5.992   0.466   4.855 -0.1475 -0.4286  0.5647
13180TIP3    H160955   6.005   0.452   4.761  0.0331 -0.7982  0.6452
13180TIP3    H260956   6.051   0.404   4.897  0.9003  0.7955  0.9326
13181TIP3   OH260957   1.945   5.457  11.234  0.0106  0.9081 -0.2092
13181TIP3    H160958   1.853   5.432  11.225  0.2231 -0.3054  0.7731
13181TIP3    H260959   1.944   5.552  11.227 -0.9287  0.7673 -3.2440
13182TIP3   OH260960   6.258   5.698   4.135  0.1335  0.3232  0.2901
13182TIP3    H160961   6.192   5.684   4.204  0.4906  0.0865  0.5872
13182TIP3    H260962   6.209   5.739   4.064 -0.3654  0.0429  0.4615
13183TIP3   OH260963   2.830   3.094   5.836 -0.0733 -0.6873 -0.5219
13183TIP3    H160964   2.912   3.135   5.861 -1.4272  1.2678  1.0586
13183TIP3    H260965   2.806   3.137   5.753 -0.9922  1.1389  0.6229
13184TIP3   OH260966   5.629   3.631  14.002 -0.5503  0.4699  0.3438
13184TIP3    H160967   5.654   3.561  13.941  1.2319  1.2518  0.0986
13184TIP3    H260968   5.580   3.586  14.071 -0.2380 -0.8814 -0.2639
13185TIP3   OH260969   6.550   2.556   4.600  0.2854  0.5703 -0.2769
13185TIP3    H160970   6.524   2.546   4.692 -0.3829  1.2600 -0.3795
13185TIP3    H260971   6.480   2.609   4.562  1.2135  1.3699 -0.8880
13186TIP3   OH260972   1.457   3.237  13.318  0.3007 -0.4283  0.3269
13186TIP3    H160973   1.473   3.206  13.407 -0.5425  0.0821  0.6641
13186TIP3    H260974   1.509   3.318  13.311  0.1558 -0.3235  0.4511
13187TIP3   OH260975   6.590   6.018  10.947 -0.0626  0.0229  0.0282
13187TIP3    H160976   6.547   5.943  10.989  1.4471 -1.3123 -0.7021
13187TIP3    H260977   6.669   6.033  10.999  0.1274  0.5009 -0.3912
13188TIP3   OH260978   6.175   5.182  17.118 -0.3909  0.2969 -0.3048
13188TIP3    H160979   6.131   5.138  17.191 -1.5837  0.4704 -0.8955
13188TIP3    H260980   6.142   5.272  17.121  0.2334  0.5422 -0.5364
13189TIP3   OH260981   3.567   0.673   5.565  0.4245 -0.6505  0.2397
13189TIP3    H160982   3.655   0.636   5.573  0.0871 -1.6278 -0.4411
13189TIP3    H260983   3.512   0.600   5.538 -0.8201 -0.3103  1.6864
13190TIP3   OH260984   0.096   5.385  11.726  0.3359 -0.2846  0.1541
13190TIP3    H160985   0.147   5.330  11.785  3.9996  0.1836 -2.2067
13190TIP3    H260986   0.162   5.431  11.674 -2.5686  0.7718 -2.9639
13191TIP3   OH260987   6.432   0.146   6.031 -0.4399 -0.5260  0.5925
13191TIP3    H160988   6.345   0.170   6.064  0.1708  1.7287  0.7652
13191TIP3    H260989   6.443   0.197   5.951  0.3826 -1.4763  0.0731
13192TIP3   OH260990   2.814   6.673   2.401  0.1761 -0.2674  0.1129
13192TIP3    H160991   2.882   6.664   2.467  0.0741  0.9459  0.4016
13192TIP3    H260992   2.751   6.604   2.423 -0.9693  1.4400  2.6918
13193TIP3   OH260993   0.738   1.931   2.806 -0.3027 -0.6734 -0.5836
13193TIP3    H160994   0.719   2.018   2.772 -1.5157 -1.1393 -1.1557
13193TIP3    H260995   0.817   1.942   2.859 -1.1840  1.0185  0.4344
13194TIP3   OH260996   3.612   1.612  13.145 -0.1963  0.1223 -0.4391
13194TIP3    H160997   3.605   1.536  13.202  0.2836  0.2152 -0.2468
13194TIP3    H260998   3.542   1.670  13.173 -0.4430 -0.1638 -0.4573
13195TIP3   OH260999   1.777   1.256   4.525 -0.8892 -0.3299  0.1871
13195TIP3    H161000   1.700   1.199   4.523  1.0021 -3.0998  0.9531
13195TIP3    H261001   1.838   1.215   4.464  0.5684  0.9168  0.7691
13196TIP3   OH261002   4.672   4.891  11.346 -0.1076  0.0911 -0.5264
13196TIP3    H161003   4.725   4.850  11.414 -1.0730 -0.5570 -0.1415
13196TIP3    H261004   4.719   4.873  11.264  0.0546 -0.8556 -0.2390
13197TIP3   OH261005   0.794   3.452  16.468 -0.1579  0.2821  0.1897
13197TIP3    H161006   0.783   3.514  16.395 -0.2053  0.7891  0.6186
13197TIP3    H261007   0.870   3.399  16.443 -0.6945 -0.1185 -0.6221
13198TIP3   OH261008   6.226   4.286   0.147 -0.0931 -0.3438  0.2962
13198TIP3    H161009   6.224   4.382   0.150  1.2636 -0.3045  0.5953
13198TIP3    H261010   6.243   4.266   0.055  0.5758 -0.2571  0.3956
13199TIP3   OH261011   3.504   2.536   0.827  0.0679  0.0183  0.1081
13199TIP3    H161012   3.592   2.499   0.835 -0.2369 -0.8756 -0.4607
13199TIP3    H261013   3.512   2.624   0.863  1.5022  0.4249 -1.0826
13200TIP3   OH261014   5.655   6.086  10.474 -0.1876  0.1301 -0.2144
13200TIP3    H161015   5.654   6.143  10.398  2.7398  1.1590  0.3999
13200TIP3    H261016   5.702   6.008  10.446  1.3397  0.7194  0.6269
13201TIP3   OH261017   1.917   1.762   4.890 -0.1748 -0.3325  0.1864
13201TIP3    H161018   1.834   1.803   4.869 -0.4478 -0.8539  0.2324
13201TIP3    H261019   1.914   1.749   4.985 -0.4832 -1.2844  0.0577
13202TIP3   OH261020   4.342   4.320  12.103  0.2960 -0.0048 -0.1257
13202TIP3    H161021   4.308   4.389  12.046  0.6230  2.4491  2.3984
13202TIP3    H261022   4.294   4.241  12.078 -0.3490  1.1649 -2.9423
13203TIP3   OH261023   6.737   0.497   0.833 -0.6089  0.7779  0.4128
13203TIP3    H161024   6.766   0.408   0.815  0.7741  1.2034  0.4461
13203TIP3    H261025   6.788   0.552   0.773 -1.8561  1.5155 -0.0159
13204TIP3   OH261026   2.004   5.218  12.352  0.1497  0.5334  0.2526
13204TIP3    H161027   2.009   5.197  12.445  0.1088 -0.6541  0.0102
13204TIP3    H261028   1.917   5.190  12.325  0.9736 -1.3925 -0.6201
13205TIP3   OH261029   5.268   1.506  14.902  0.2731  0.2044 -0.1630
13205TIP3    H161030   5.350   1.554  14.913  0.3410  0.2524 -0.8033
13205TIP3    H261031   5.289   1.437  14.839 -0.7686  1.7762 -2.3774
13206TIP3   OH261032   5.959   3.814  14.436 -0.3023 -0.2535  0.1068
13206TIP3    H161033   5.887   3.781  14.489 -1.3549  0.0073 -1.0956
13206TIP3    H261034   5.953   3.909  14.445 -0.5709 -0.2003 -0.5419
13207TIP3   OH261035   2.764   1.836   5.278 -0.2005  0.1388  0.1762
13207TIP3    H161036   2.713   1.874   5.206 -0.0338 -0.8171 -0.4587
13207TIP3    H261037   2.823   1.774   5.236 -0.7075 -1.0936  1.1949
13208TIP3   OH261038   3.738   2.711  11.876  0.3072  0.1978  0.7413
13208TIP3    H161039   3.686   2.790  11.863 -1.2957 -0.8160  0.8199
13208TIP3    H261040   3.809   2.739  11.933  0.0370  1.6807  0.4039
13209TIP3   OH261041   5.837   4.724   0.524  0.6342 -0.2838  0.1904
13209TIP3    H161042   5.751   4.701   0.487  0.9528 -0.1412 -0.6668
13209TIP3    H261043   5.818   4.754   0.613 -0.4499  1.7433 -0.6607
13210TIP3   OH261044   5.043   1.004  11.285 -0.1430 -0.0427  0.0366
13210TIP3    H161045   5.024   0.972  11.197  1.3300  0.2513 -0.4127
13210TIP3    H261046   5.100   1.079  11.271 -1.1575  0.9978  1.2007
13211TIP3   OH261047   4.945   4.230   5.157  0.1810 -0.3334 -0.2919
13211TIP3    H161048   4.914   4.298   5.217 -0.6451 -1.1530  0.2362
13211TIP3    H261049   4.987   4.279   5.086 -2.3278  0.8771 -1.0700
13212TIP3   OH261050   6.395   2.997   2.124 -0.4459 -0.0813  0.1579
13212TIP3    H161051   6.438   3.081   2.138 -2.5391  1.1369 -0.2041
13212TIP3    H261052   6.305   3.011   2.152 -0.6142 -2.5801  1.1684
13213TIP3   OH261053   1.064   1.384  15.935 -0.1371  0.0707  0.2425
13213TIP3    H161054   1.074   1.289  15.923  0.5932  0.1337  0.2635
13213TIP3    H261055   1.154   1.415  15.947 -0.0998  1.1259 -2.3053
13214TIP3   OH261056   2.138   1.263   4.627  0.1212 -0.5254  0.1605
13214TIP3    H161057   2.138   1.298   4.538  2.0084 -2.0461 -0.5015
13214TIP3    H261058   2.185   1.328   4.679  0.5574 -0.4459 -0.3279
13215TIP3   OH261059   0.406   2.905  16.267  0.4283  0.1371 -0.9977
13215TIP3    H161060   0.481   2.882  16.321 -0.2813  3.8203  1.9549
13215TIP3    H261061   0.335   2.920  16.329 -1.0870  2.5050 -3.0993
13216TIP3   OH261062   4.478   5.109   3.029 -0.1659 -0.7776  0.3256
13216TIP3    H161063   4.487   5.186   2.973  0.4294 -0.3639  0.9811
13216TIP3    H261064   4.439   5.043   2.972 -1.3359  0.2088 -0.0743
13217TIP3   OH261065   2.908   2.423  15.623  0.0606 -0.2891 -0.1830
13217TIP3    H161066   2.986   2.439  15.571  1.0841  0.2890  1.4482
13217TIP3    H261067   2.869   2.510  15.635 -0.8025 -0.5608 -0.9029
13218TIP3   OH261068   4.356   5.879  12.883  0.4025 -0.2781  0.5360
13218TIP3    H161069   4.383   5.970  12.874  1.4710 -0.5307  1.0249
13218TIP3    H261070   4.307   5.860  12.802  2.2666  0.0268 -0.7351
13219TIP3   OH261071   5.385   0.994   3.198  0.3265  0.4302 -0.0590
13219TIP3    H161072   5.463   0.939   3.209 -0.6201 -1.5432 -2.4082
13219TIP3    H261073   5.366   1.026   3.287  2.8774 -0.2615  0.8319
13220TIP3   OH261074   5.334   1.955  11.388  0.4884 -0.2363 -0.1131
13220TIP3    H161075   5.325   1.991  11.476 -1.8199 -2.4843  0.6726
13220TIP3    H261076   5.246   1.959  11.351  1.0546 -0.9946 -1.6143
13221TIP3   OH261077   3.444   4.910   0.592 -0.1518 -0.1880 -0.2251
13221TIP3    H161078   3.517   4.957   0.632  0.9717  1.0746 -3.3989
13221TIP3    H261079   3.486   4.853   0.527 -1.9029  0.0413 -1.6236
13222TIP3   OH261080   0.774   6.705  12.139 -0.5309 -0.2802  0.4390
13222TIP3    H161081   0.750   6.746  12.056 -1.1766  0.0446  0.7796
13222TIP3    H261082   0.866   6.679  12.128 -0.0620  1.3601  0.2534
13223TIP3   OH261083   3.172   5.261  15.474 -0.0211  0.1556 -1.0496
13223TIP3    H161084   3.262   5.288  15.456  0.0541  0.1824 -0.6370
13223TIP3    H261085   3.139   5.326  15.536 -1.0309  1.3932 -2.7933
13224TIP3   OH261086   6.355   2.333   4.419  0.0346 -0.0676  0.2924
13224TIP3    H161087   6.346   2.249   4.374 -0.3593  0.6044 -0.9267
13224TIP3    H261088   6.450   2.344   4.429  0.0807 -0.7364  0.6178
13225TIP3   OH261089   3.933   3.976  12.490  0.1681  0.0496 -0.2632
13225TIP3    H161090   3.989   3.939  12.558 -1.7465  2.1409  2.7233
13225TIP3    H261091   3.939   4.071  12.504 -1.8938  0.4558 -1.6618
13226TIP3   OH261092   2.328   5.992   6.727  0.0386  0.2398  0.5079
13226TIP3    H161093   2.326   6.001   6.823 -2.2462 -3.0534  0.9449
13226TIP3    H261094   2.247   6.032   6.698  0.1681  0.1949  0.0794
13227TIP3   OH261095   5.228   6.263   4.859  0.1937  0.0010  0.8605
13227TIP3    H161096   5.174   6.315   4.918 -0.2678  1.2087 -0.5457
13227TIP3    H261097   5.312   6.308   4.858 -0.2216  0.8176 -0.4003
13228TIP3   OH261098   1.043   6.613   0.759  0.5266  0.5428  0.1303
13228TIP3    H161099   1.114   6.558   0.727  1.3085  0.8429  1.2944
13228TIP3    H261100   1.024   6.579   0.846  1.4169  2.4327  1.1107
13229TIP3   OH261101   2.141   6.167  12.521  0.1849 -0.0131 -0.4398
13229TIP3    H161102   2.151   6.261  12.533  0.4340 -0.0975  0.0685
13229TIP3    H261103   2.050   6.155  12.493 -0.3283  0.2552  1.0285
13230TIP3   OH261104   6.005   4.805   1.173  0.0942 -0.0821 -0.3780
13230TIP3    H161105   5.964   4.722   1.148 -0.3245  0.8189 -3.0685
13230TIP3    H261106   6.032   4.792   1.264 -1.1545 -2.6687 -0.2691
13231TIP3   OH261107   3.820   6.435  16.354  0.3401 -0.1231 -0.0484
13231TIP3    H161108   3.856   6.394  16.433  2.4831  1.5225 -0.0695
13231TIP3    H261109   3.844   6.527  16.361 -3.0828  0.9343 -0.6729
13232TIP3   OH261110   2.752   2.511   5.635  0.0130  0.1932 -0.3999
13232TIP3    H161111   2.762   2.596   5.679 -2.6257 -0.1954  1.2045
13232TIP3    H261112   2.702   2.458   5.697  1.6900 -2.6576 -1.2755
13233TIP3   OH261113   2.406   4.932   0.926 -0.7149 -0.2773  0.3896
13233TIP3    H161114   2.385   4.844   0.955  0.6570 -0.6385  0.3639
13233TIP3    H261115   2.431   4.979   1.005  1.9617 -0.9551  0.0652
13234TIP3   OH261116   5.845   1.291  11.009 -0.4746  0.0128  0.1617
13234TIP3    H161117   5.776   1.342  10.969 -0.0448  0.5694  0.1148
13234TIP3    H261118   5.809   1.202  11.016 -1.2297  0.3193  0.2543
13235TIP3   OH261119   0.342   2.718  12.208 -0.0231  0.0492 -0.8407
13235TIP3    H161120   0.264   2.681  12.249  0.4426  0.7537  0.7626
13235TIP3    H261121   0.415   2.668  12.245  0.4119  0.7041 -0.7829
13236TIP3   OH261122   6.581   1.259  16.735 -0.5004 -0.1993  0.6767
13236TIP3    H161123   6.635   1.336  16.753  0.8235 -1.0060  0.3681
13236TIP3    H261124   6.537   1.241  16.818 -0.4829  0.6217  0.8742
13237TIP3   OH261125   0.219   2.237  16.208 -0.8221  0.3067 -0.1876
13237TIP3    H161126   0.149   2.292  16.243 -1.7023  0.8671 -2.6146
13237TIP3    H261127   0.300   2.277  16.242 -1.5832  0.4527  1.5679
13238TIP3   OH261128   5.994   3.220  16.184 -0.0987 -0.3063 -0.4480
13238TIP3    H161129   6.021   3.281  16.252 -1.2747  0.2435 -0.4566
13238TIP3    H261130   5.992   3.134  16.227  0.3065 -0.1451 -0.1080
13239TIP3   OH261131   4.145   5.711   3.684  1.2534 -0.2201  0.2982
13239TIP3    H161132   4.169   5.789   3.633  0.6135  0.9305  1.6668
13239TIP3    H261133   4.050   5.718   3.693  1.3667 -0.2383  1.8171
13240TIP3   OH261134   3.654   1.674  11.112  0.1641 -0.2868  0.2747
13240TIP3    H161135   3.735   1.664  11.162  1.0152  0.8541 -0.8281
13240TIP3    H261136   3.585   1.677  11.179  1.1866  0.3868  1.3336
13241TIP3   OH261137   5.024   5.968  15.559  0.0273  0.1142 -0.1934
13241TIP3    H161138   5.023   5.989  15.466 -0.4026  2.9045  0.3575
13241TIP3    H261139   5.098   5.908  15.569 -0.3597 -0.8358 -2.3917
13242TIP3   OH261140   3.449   5.263  14.630 -0.4017 -0.2705  0.9903
13242TIP3    H161141   3.463   5.208  14.552 -0.7412  0.5775  0.3114
13242TIP3    H261142   3.398   5.208  14.689  1.3837 -1.5844  1.3885
13243TIP3   OH261143   4.287   4.537   1.864  0.1692 -0.0236  0.3395
13243TIP3    H161144   4.200   4.520   1.829 -1.0684 -2.1042  3.8635
13243TIP3    H261145   4.345   4.475   1.819 -0.3095  0.6822 -1.3063
13244TIP3   OH261146   0.874   0.747   3.195  0.7554 -0.7243 -0.1260
13244TIP3    H161147   0.846   0.818   3.137  1.3398 -0.4023 -0.0237
13244TIP3    H261148   0.956   0.716   3.156  0.8365 -0.9109  0.1890
13245TIP3   OH261149   3.677   2.845   0.729 -0.2079  1.1954  0.4545
13245TIP3    H161150   3.659   2.792   0.807 -0.9266 -0.2217 -0.6268
13245TIP3    H261151   3.666   2.935   0.759 -1.5935  0.6508  1.7488
13246TIP3   OH261152   4.963   4.669  14.381 -0.0173 -1.0035  0.3182
13246TIP3    H161153   4.961   4.621  14.298  1.5238 -0.6604  0.0371
13246TIP3    H261154   5.055   4.696  14.390 -0.3266 -0.3394  1.7416
13247TIP3   OH261155   1.581   4.484   1.388  0.5059  0.2123  0.4934
13247TIP3    H161156   1.653   4.422   1.379 -1.6362 -2.4921  0.6543
13247TIP3    H261157   1.528   4.449   1.460 -2.3015  0.5297 -1.2519
13248TIP3   OH261158   1.963   6.504  15.622 -0.3920  0.5806 -0.5370
13248TIP3    H161159   1.951   6.464  15.708 -1.8667  0.5511 -0.7324
13248TIP3    H261160   2.034   6.567  15.635  1.9814 -1.9623 -0.2119
13249TIP3   OH261161   2.119   0.445  11.066 -0.1761 -0.2192 -0.0148
13249TIP3    H161162   2.073   0.525  11.093 -0.6519 -0.5435  0.1498
13249TIP3    H261163   2.049   0.385  11.041  0.1725 -0.6593  0.0580
13250TIP3   OH261164   4.807   4.576  16.816 -0.3760  0.2976  0.0849
13250TIP3    H161165   4.749   4.525  16.873 -0.2879  0.1251  0.0228
13250TIP3    H261166   4.865   4.622  16.876  1.2204 -1.6456  0.1261
13251TIP3   OH261167   1.766   6.748  13.407 -0.6895  0.0142 -0.6847
13251TIP3    H161168   1.753   6.721  13.316  1.1554  2.8601 -1.9165
13251TIP3    H261169   1.738   6.839  13.409  0.8312  0.4994  1.1857
13252TIP3   OH261170   0.923   5.053   0.994 -0.1822 -0.3097  0.7772
13252TIP3    H161171   0.885   4.968   1.018  0.7990 -0.8985  0.3190
13252TIP3    H261172   0.945   5.094   1.077 -2.6598  0.4860  1.1170
13253TIP3   OH261173   3.017   0.282   2.552 -0.8239 -0.2667  0.8298
13253TIP3    H161174   2.970   0.320   2.477 -0.5432 -0.7641  0.3958
13253TIP3    H261175   3.097   0.334   2.559  0.4875 -1.8690 -0.9459
13254TIP3   OH261176   4.534   2.740   5.730  0.0243 -0.3652  0.0575
13254TIP3    H161177   4.512   2.653   5.695 -0.3846 -0.1329 -0.2862
13254TIP3    H261178   4.582   2.722   5.810  2.3833 -0.9594 -1.3897
13255TIP3   OH261179   2.715   2.503   1.506 -0.1700  0.0116  0.1979
13255TIP3    H161180   2.752   2.592   1.504  2.4606 -0.9820 -1.5503
13255TIP3    H261181   2.621   2.516   1.518 -0.1781  3.1625 -1.9081
13256TIP3   OH261182   4.475   5.800   6.434  0.1134 -0.5802  0.2661
13256TIP3    H161183   4.528   5.723   6.456  2.0613  0.4695 -0.5097
13256TIP3    H261184   4.516   5.872   6.482 -0.3054  0.3561 -0.7285
13257TIP3   OH261185   0.763   6.578  13.090  0.0921  0.0972 -0.1152
13257TIP3    H161186   0.757   6.492  13.048  2.2348 -0.2987  0.2988
13257TIP3    H261187   0.804   6.634  13.024  0.2588  0.3612  0.2075
13258TIP3   OH261188   0.785   3.662  14.328 -0.3312 -0.3182 -0.0340
13258TIP3    H161189   0.843   3.609  14.383 -0.2655 -0.4211 -0.1994
13258TIP3    H261190   0.844   3.706  14.267 -0.5719 -2.3441 -1.8716
13259TIP3   OH261191   3.515   6.657  15.359 -0.2553 -0.1785 -0.1233
13259TIP3    H161192   3.432   6.691  15.392  0.0884  1.5537 -0.9583
13259TIP3    H261193   3.522   6.570  15.399 -1.3119  0.5809  1.8855
13260TIP3   OH261194   3.236   1.961   3.674 -0.1101  0.2834 -0.4501
13260TIP3    H161195   3.283   2.040   3.646  1.9304 -0.3011  1.1176
13260TIP3    H261196   3.300   1.890   3.663 -1.0590 -0.7568  0.5366
13261TIP3   OH261197   4.168   4.849  12.676 -0.2867  0.3675  0.7611
13261TIP3    H161198   4.180   4.847  12.771 -0.4287  0.9610  0.7955
13261TIP3    H261199   4.252   4.878  12.642 -0.2910  0.3224  0.7126
13262TIP3   OH261200   6.620   2.207  12.855 -0.1745 -0.1685 -0.0471
13262TIP3    H161201   6.610   2.217  12.761  1.4492  1.0643 -0.1270
13262TIP3    H261202   6.537   2.238  12.892 -0.2243  0.8470 -0.9931
13263TIP3   OH261203   3.716   0.503  11.821 -0.0495  0.0367  0.1168
13263TIP3    H161204   3.741   0.423  11.775  0.7686  0.6095 -0.4798
13263TIP3    H261205   3.686   0.562  11.752  0.0645  0.5027  0.4578
13264TIP3   OH261206   3.896   0.597   4.998  0.2325  0.5246 -0.2506
13264TIP3    H161207   3.806   0.627   4.980  0.6894  0.9319 -2.0878
13264TIP3    H261208   3.926   0.562   4.914  1.5095 -0.3802  0.5651
13265TIP3   OH261209   4.652   0.379  11.553 -0.0196 -0.1339  0.4724
13265TIP3    H161210   4.634   0.317  11.624  0.2340  0.6712  1.2620
13265TIP3    H261211   4.571   0.382  11.502  0.6299 -2.7228 -0.8849
13266TIP3   OH261212   6.425   3.421   3.167  0.4785  1.1397 -0.0175
13266TIP3    H161213   6.489   3.359   3.131 -1.7705 -0.9382 -0.7463
13266TIP3    H261214   6.443   3.423   3.261  0.0539 -1.4536  0.1947
13267TIP3   OH261215   6.379   2.402   3.438 -0.5618  0.0727 -0.2803
13267TIP3    H161216   6.472   2.423   3.442 -1.0154  2.1662  0.1074
13267TIP3    H261217   6.371   2.346   3.360  1.1486 -1.1361  0.3341
13268TIP3   OH261218   0.512   4.607   3.824 -0.5001 -0.4608 -0.5430
13268TIP3    H161219   0.513   4.517   3.856  0.3831 -0.0339  0.7062
13268TIP3    H261220   0.432   4.645   3.861  0.2471 -0.1239  0.7966
13269TIP3   OH261221   2.671   3.808   5.875  0.1563 -0.4193  0.0727
13269TIP3    H161222   2.596   3.855   5.839 -0.1326  0.0393  1.2331
13269TIP3    H261223   2.689   3.739   5.810 -1.0133 -0.2989 -0.4098
13270TIP3   OH261224   4.121   6.643   1.614  0.0946 -0.0325  0.0008
13270TIP3    H161225   4.212   6.673   1.615  0.2748 -0.5961  0.5328
13270TIP3    H261226   4.126   6.553   1.582 -0.2657 -0.0914  0.1100
13271TIP3   OH261227   0.520   1.371   1.518 -0.0006  0.6003 -0.1242
13271TIP3    H161228   0.486   1.325   1.441 -1.9720 -1.4226  1.7750
13271TIP3    H261229   0.460   1.445   1.530 -0.4712  0.1889  0.1296
13272TIP3   OH261230   5.991   4.473  15.488  0.1479  0.1664 -0.3988
13272TIP3    H161231   6.043   4.511  15.559 -1.1729  0.4728  0.4515
13272TIP3    H261232   5.905   4.515  15.496  0.3548  1.3597 -3.1275
13273TIP3   OH261233   1.782   2.389   1.039  0.1067  0.2723 -0.4544
13273TIP3    H161234   1.842   2.415   0.968 -0.5516 -0.4070 -1.2825
13273TIP3    H261235   1.726   2.323   0.999  0.5179 -1.0441  1.0545
13274TIP3   OH261236   4.045   3.585   4.119 -0.3506  0.0741 -0.3750
13274TIP3    H161237   3.972   3.638   4.087 -0.7754  0.9298  1.8254
13274TIP3    H261238   4.123   3.638   4.099 -0.7576  1.5489  1.6585
13275TIP3   OH261239   0.312   5.645   4.184 -0.0352  0.2041 -0.5133
13275TIP3    H161240   0.377   5.677   4.122  0.0939 -0.4074 -0.7087
13275TIP3    H261241   0.242   5.609   4.128  0.3367 -0.8596 -0.3261
13276TIP3   OH261242   1.241   0.042  12.776 -0.4025  0.4851 -0.0461
13276TIP3    H161243   1.202   0.048  12.689 -1.5739  0.4236  0.4531
13276TIP3    H261244   1.236  -0.051  12.798 -0.9109  0.6221  0.4344
13277TIP3   OH261245   6.491   2.156  14.946  0.2931  0.0280  0.0829
13277TIP3    H161246   6.569   2.148  15.001  0.8933 -0.3970 -0.7964
13277TIP3    H261247   6.418   2.161  15.007  0.9869  0.1248  0.9157
13278TIP3   OH261248   2.413   5.258   3.794  0.2593  0.2219  0.0806
13278TIP3    H161249   2.362   5.331   3.831  0.1938 -0.1752  0.7933
13278TIP3    H261250   2.357   5.181   3.807  1.5042 -0.4258  1.9602
13279TIP3   OH261251   2.788   0.017  12.366 -0.5659 -0.2345  0.2872
13279TIP3    H161252   2.720  -0.026  12.418 -1.4047 -0.1416 -0.6994
13279TIP3    H261253   2.745   0.037  12.283  1.1657 -1.8475 -1.0773
13280TIP3   OH261254   0.305   2.501  17.169 -0.1004  0.6068  0.1088
13280TIP3    H161255   0.368   2.531  17.235  0.4679 -0.8419  0.2495
13280TIP3    H261256   0.359   2.464  17.099 -0.7084 -3.1349  1.3970
13281TIP3   OH261257   0.600   6.258   1.958 -1.0328  0.0825 -0.2444
13281TIP3    H161258   0.656   6.337   1.959 -0.8485 -0.0311  1.8148
13281TIP3    H261259   0.657   6.189   1.924 -0.4626  0.3644  0.1199
13282TIP3   OH261260   6.741   0.151   5.881  0.0288 -0.1344  0.2127
13282TIP3    H161261   6.828   0.135   5.846  0.4764  1.8538  0.3064
13282TIP3    H261262   6.705   0.063   5.897  1.9031 -0.9978 -0.0415
13283TIP3   OH261263   0.038   2.344  15.913  0.1577 -0.4397  0.2362
13283TIP3    H161264  -0.036   2.299  15.952 -0.5311  0.0297 -0.4824
13283TIP3    H261265   0.115   2.299  15.947 -0.4453 -0.7273  1.2497
13284TIP3   OH261266   6.464   5.852   4.193  0.6158  0.8268 -0.2165
13284TIP3    H161267   6.394   5.787   4.183  0.5561  0.1997  3.1340
13284TIP3    H261268   6.538   5.802   4.229  2.1059  1.8790 -1.6731
13285TIP3   OH261269   1.835   0.621   3.707 -0.5519 -0.5146  0.3422
13285TIP3    H161270   1.784   0.661   3.636 -1.2578  3.0658  2.5941
13285TIP3    H261271   1.790   0.538   3.724 -2.0548 -0.1698 -1.5669
13286TIP3   OH261272   2.221   5.867  16.632 -0.0328 -0.2076  0.0597
13286TIP3    H161273   2.262   5.807  16.694 -0.0743 -0.5306 -0.2239
13286TIP3    H261274   2.170   5.927  16.686  1.1421  0.4604  0.4557
13287TIP3   OH261275   1.560   4.393  13.983 -0.3655 -0.7099 -0.3021
13287TIP3    H161276   1.529   4.458  13.919 -2.2296  0.8106  1.9692
13287TIP3    H261277   1.627   4.440  14.033 -0.5518 -1.1013  0.3111
13288TIP3   OH261278   5.267   0.628  16.000  0.4434  0.3604  0.5887
13288TIP3    H161279   5.302   0.716  16.016  0.4920  0.5105 -0.2819
13288TIP3    H261280   5.337   0.583  15.953 -0.0699  0.2811 -0.1208
13289TIP3   OH261281   6.279   3.444   2.649  0.3322 -0.3751  0.2664
13289TIP3    H161282   6.353   3.393   2.682  0.5010 -0.5072 -0.2967
13289TIP3    H261283   6.309   3.535   2.655  1.1814 -0.4949 -1.4039
13290TIP3   OH261284   3.683   1.214   4.870 -0.2978  0.9586  0.1312
13290TIP3    H161285   3.777   1.228   4.876  0.1994 -0.7221 -2.3161
13290TIP3    H261286   3.660   1.173   4.954  1.3888  0.3529  0.3440
13291TIP3   OH261287   4.305   1.169   2.990 -0.0386 -0.1836  0.1641
13291TIP3    H161288   4.308   1.254   3.035  1.4841 -0.3541  0.4390
13291TIP3    H261289   4.342   1.187   2.903 -0.2413 -0.4577  0.0206
13292TIP3   OH261290   5.568   0.321  14.565  0.4483 -0.0913  0.6272
13292TIP3    H161291   5.629   0.358  14.629 -1.9468  0.8898  2.5001
13292TIP3    H261292   5.498   0.282  14.618 -0.7813 -0.7838 -1.3943
13293TIP3   OH261293   4.685   4.730  15.093 -0.2155  0.2176 -0.7613
13293TIP3    H161294   4.710   4.681  15.171 -1.2453 -0.4924 -0.8560
13293TIP3    H261295   4.593   4.752  15.108 -0.1236  0.9903 -1.3088
13294TIP3   OH261296   0.054   1.305   4.262 -0.5178 -0.6554  0.0551
13294TIP3    H161297   0.022   1.293   4.172  1.5460  0.8899 -0.9728
13294TIP3    H261298   0.121   1.237   4.272  0.0099 -0.1456  0.0195
13295TIP3   OH261299   0.234   3.039   1.250 -0.1692  0.1954 -0.3305
13295TIP3    H161300   0.236   3.116   1.193  0.4181 -0.0606 -0.6721
13295TIP3    H261301   0.148   3.041   1.291 -0.2222  0.9341 -0.4756
13296TIP3   OH261302   0.002   5.860  11.389 -0.1382  0.0769 -0.3210
13296TIP3    H161303  -0.032   5.778  11.425 -1.5115  0.7469 -0.0585
13296TIP3    H261304  -0.075   5.910  11.364  0.7196  0.6387 -1.9994
13297TIP3   OH261305   1.496   4.308  11.081  0.4583 -0.5169 -0.7472
13297TIP3    H161306   1.444   4.320  11.161 -1.0345  1.5234 -1.9270
13297TIP3    H261307   1.585   4.294  11.113 -0.0438  0.4418  1.2963
13298TIP3   OH261308   6.421   0.582   3.438  0.5616  0.4060 -0.2030
13298TIP3    H161309   6.406   0.647   3.370 -0.0729  0.4011 -0.0734
13298TIP3    H261310   6.516   0.567   3.436  0.5801  0.5633 -0.9342
13299TIP3   OH261311   2.271   0.893  11.713 -0.1167  0.2621  0.5167
13299TIP3    H161312   2.187   0.887  11.758 -0.7204  0.1376 -0.5756
13299TIP3    H261313   2.283   0.806  11.674 -0.5577  0.9115 -1.1434
13300TIP3   OH261314   5.482   3.230   6.807 -0.4617 -0.8071 -0.1340
13300TIP3    H161315   5.409   3.173   6.832 -0.0647 -2.0230 -1.5973
13300TIP3    H261316   5.558   3.171   6.807  0.5849  0.4579  1.5065
13301TIP3   OH261317   5.279   5.489  15.844 -0.1482  0.3689 -0.2978
13301TIP3    H161318   5.247   5.410  15.886  0.5863  0.0274 -0.3569
13301TIP3    H261319   5.273   5.557  15.911 -4.2419  1.2190 -1.2472
13302TIP3   OH261320   2.596   2.782   1.294  0.2321  1.0709  0.2115
13302TIP3    H161321   2.656   2.724   1.246 -1.1354 -1.0753  0.9675
13302TIP3    H261322   2.542   2.723   1.346 -2.4324  2.8889 -0.2754
13303TIP3   OH261323   2.403   0.172   3.052  0.1939 -0.1662  0.3731
13303TIP3    H161324   2.405   0.226   3.131  0.3487 -1.2953  1.1803
13303TIP3    H261325   2.414   0.082   3.085 -0.6083 -0.7447 -0.8636
13304TIP3   OH261326   4.826   0.175  15.152  0.3819 -0.2956 -0.0904
13304TIP3    H161327   4.805   0.167  15.244  0.4683 -0.0930 -0.0517
13304TIP3    H261328   4.751   0.137  15.106  0.1021  0.0841  0.0504
13305TIP3   OH261329   3.091   2.813  17.167 -0.2027 -0.0435  0.2937
13305TIP3    H161330   3.166   2.807  17.226  0.3123  1.6001 -0.1545
13305TIP3    H261331   3.015   2.802  17.225  0.3274 -0.4747  0.9338
13306TIP3   OH261332   6.724   6.541  14.690 -0.1617 -0.3613  1.0126
13306TIP3    H161333   6.809   6.529  14.649 -1.0818 -3.2661 -0.3145
13306TIP3    H261334   6.663   6.553  14.617 -1.4666 -3.0370  1.5416
13307TIP3   OH261335   0.508   6.081   6.052  0.0419  0.0769  0.2104
13307TIP3    H161336   0.504   6.009   5.988 -1.6601  0.7406 -0.4972
13307TIP3    H261337   0.436   6.063   6.113  0.9261  0.0786  1.2918
13308TIP3   OH261338   1.629   4.872   4.402 -0.4549  0.0813 -0.1678
13308TIP3    H161339   1.614   4.967   4.410 -0.7631  0.0015  0.1934
13308TIP3    H261340   1.605   4.852   4.312  0.6778  0.5425 -0.5931
13309TIP3   OH261341   6.748   3.593  14.771 -0.5015 -0.3184  0.2531
13309TIP3    H161342   6.791   3.663  14.722  0.0917 -1.8874 -1.5851
13309TIP3    H261343   6.672   3.570  14.717 -0.6945 -1.0876  0.8333
13310TIP3   OH261344   4.549   1.368   1.407 -0.2291 -0.4450 -0.4532
13310TIP3    H161345   4.495   1.418   1.346 -1.1732 -1.9934 -0.9405
13310TIP3    H261346   4.629   1.419   1.416 -1.2205  1.2211 -0.7857
13311TIP3   OH261347   0.636   3.221  16.377  0.5991 -0.3780  0.0067
13311TIP3    H161348   0.682   3.301  16.402  1.7925 -1.1305  0.3315
13311TIP3    H261349   0.562   3.251  16.325  1.0719  0.9285  0.0457
13312TIP3   OH261350   6.044   1.494   4.019 -0.6374 -0.2320  0.6261
13312TIP3    H161351   5.967   1.491   4.075 -0.3914 -0.8376  0.9430
13312TIP3    H261352   6.013   1.532   3.937 -1.3065 -0.6109  0.6995
13313TIP3   OH261353   1.010   0.374  12.217 -0.8370 -0.0233 -0.8335
13313TIP3    H161354   1.102   0.348  12.222 -0.5212  1.1901 -0.0890
13313TIP3    H261355   0.978   0.332  12.137  0.6053  0.2957 -1.6030
13314TIP3   OH261356   5.002   1.060   4.891 -0.4056  0.4167  0.1750
13314TIP3    H161357   5.038   0.998   4.828 -0.4237  0.2652  0.3157
13314TIP3    H261358   5.031   1.028   4.976  0.3136  1.0749  0.1927
13315TIP3   OH261359   6.452   4.685   3.053  0.4124  0.3887 -0.4113
13315TIP3    H161360   6.518   4.617   3.067 -1.4025 -0.9833  2.3393
13315TIP3    H261361   6.501   4.760   3.020  3.5747 -0.1769  2.4793
13316TIP3   OH261362   6.544   0.106  13.192 -0.1274  0.0220  0.7968
13316TIP3    H161363   6.618   0.165  13.209 -1.1351  1.2759  0.9902
13316TIP3    H261364   6.492   0.110  13.272 -0.5800 -0.6019  0.5394
13317TIP3   OH261365   5.481   0.946   1.532  0.5770 -0.3123 -0.2126
13317TIP3    H161366   5.511   0.915   1.618  0.9962 -1.7018 -0.8263
13317TIP3    H261367   5.386   0.933   1.534  0.5774 -0.2784  0.0735
13318TIP3   OH261368   6.398   2.248  16.029 -0.2463  0.3396 -0.0367
13318TIP3    H161369   6.470   2.276  16.086 -1.5871  0.8564  1.4669
13318TIP3    H261370   6.397   2.313  15.958  0.5834  0.4674  0.0545
13319TIP3   OH261371   6.391   4.984   0.885  0.2635  0.1335 -0.3621
13319TIP3    H161372   6.407   4.928   0.962 -1.7083 -0.9918 -0.6998
13319TIP3    H261373   6.345   4.927   0.824  0.0869  1.5675 -1.6142
13320TIP3   OH261374   2.821   1.510   0.006 -0.0545 -0.2133  0.8812
13320TIP3    H161375   2.887   1.449  -0.028  0.7149  0.8902  0.3388
13320TIP3    H261376   2.861   1.596  -0.002 -1.7397  0.5537  0.0720
13321TIP3   OH261377   0.620   4.611  12.258 -0.4953 -0.3841 -0.4012
13321TIP3    H161378   0.615   4.651  12.345  1.4651  0.6701 -0.7233
13321TIP3    H261379   0.536   4.566  12.248 -1.4159  0.7984  1.3871
13322TIP3   OH261380   4.493   4.117  11.862 -0.0446 -0.0499  0.0413
13322TIP3    H161381   4.547   4.039  11.850 -0.4829 -0.4149  0.4066
13322TIP3    H261382   4.408   4.083  11.890 -0.3257  0.5443 -0.0818
13323TIP3   OH261383   1.496   5.376   3.743  0.2937 -0.2606 -0.5320
13323TIP3    H161384   1.530   5.388   3.655  1.1640  1.6037  0.0171
13323TIP3    H261385   1.419   5.432   3.747 -0.6286 -1.4700 -0.5310
13324TIP3   OH261386   0.504   6.135  14.704 -0.4780 -0.2080 -0.0271
13324TIP3    H161387   0.433   6.180  14.658 -0.8658 -0.2650  0.5006
13324TIP3    H261388   0.464   6.105  14.786  0.1062 -0.4140  0.1893
13325TIP3   OH261389   0.230   1.190   2.317  0.2844 -0.1367 -0.0211
13325TIP3    H161390   0.161   1.159   2.377  0.1888 -2.0989 -1.0550
13325TIP3    H261391   0.312   1.165   2.361  0.2681  0.0449  0.1136
13326TIP3   OH261392   2.904   1.518   5.029 -0.3406  0.4056 -0.0921
13326TIP3    H161393   2.852   1.588   4.989 -1.0975  0.0153  0.1938
13326TIP3    H261394   2.841   1.447   5.043  0.5296 -0.5439 -0.8744
13327TIP3   OH261395   2.494   1.304   3.932 -0.5532  0.3502  0.8062
13327TIP3    H161396   2.447   1.281   3.852 -0.8095  0.1463  1.0098
13327TIP3    H261397   2.480   1.398   3.942  0.6197  0.6443 -0.1105
13328TIP3   OH261398   0.425   6.488   5.824  0.5082  0.8098  0.2371
13328TIP3    H161399   0.367   6.471   5.898  0.6585 -0.5162  0.0744
13328TIP3    H261400   0.381   6.558   5.775 -1.2532 -0.4940 -0.1511
13329TIP3   OH261401   0.600   1.696   5.401 -0.3080 -0.1347  0.0529
13329TIP3    H161402   0.652   1.615   5.411 -0.4971 -0.3325 -0.5352
13329TIP3    H261403   0.612   1.742   5.484  1.4135  0.1763 -0.3191
13330TIP3   OH261404   6.246   0.523  16.904  0.2502 -0.3288  0.0783
13330TIP3    H161405   6.291   0.445  16.872  0.2665 -0.2382 -0.1201
13330TIP3    H261406   6.200   0.493  16.983  1.1023 -0.2880  0.5974
13331TIP3   OH261407   2.627   2.509  16.882  0.3618 -0.5622 -0.3885
13331TIP3    H161408   2.603   2.502  16.790 -0.7273 -0.9627 -0.0920
13331TIP3    H261409   2.548   2.544  16.924  0.5422 -1.2233  0.5219
13332TIP3   OH261410   1.034   3.213  14.624 -0.8841  0.0190 -0.4723
13332TIP3    H161411   0.990   3.235  14.707 -0.6391  0.8797 -0.5557
13332TIP3    H261412   1.035   3.118  14.622  0.1242 -0.0439  1.0750
13333TIP3   OH261413   2.155   0.773  15.699 -0.3580  0.2403 -0.4788
13333TIP3    H161414   2.131   0.850  15.752  0.3644  0.2525 -0.1567
13333TIP3    H261415   2.196   0.713  15.762 -1.8604 -0.8720 -0.5144
13334TIP3   OH261416   0.626   6.472  12.750 -0.1672 -0.1913  0.1579
13334TIP3    H161417   0.552   6.528  12.774 -0.0448 -0.4719  1.2458
13334TIP3    H261418   0.649   6.427  12.831  1.1826 -0.1264 -0.1703
13335TIP3   OH261419   0.977   4.046  11.697 -0.6281  0.5086 -0.0041
13335TIP3    H161420   0.949   4.132  11.727 -1.1148 -0.3454  2.1890
13335TIP3    H261421   1.000   3.999  11.777  0.9566 -0.9614 -1.2510
13336TIP3   OH261422   2.158   0.977  14.071  0.1079 -0.5233 -0.2793
13336TIP3    H161423   2.074   0.941  14.101 -0.4434  0.8631 -0.1028
13336TIP3    H261424   2.206   0.995  14.151 -0.2332  0.5310 -0.2962
13337TIP3   OH261425   4.137   0.374   3.525  0.2360  0.2028  0.1339
13337TIP3    H161426   4.072   0.316   3.567  0.1627  0.5592  0.5164
13337TIP3    H261427   4.139   0.452   3.580  1.1190  0.1298  0.2178
13338TIP3   OH261428   5.865   6.001  14.043  0.2592 -0.0752 -0.3788
13338TIP3    H161429   5.956   5.998  14.075  0.3548 -0.6605 -0.6773
13338TIP3    H261430   5.851   5.914  14.004 -0.0802  0.3717 -1.2813
13339TIP3   OH261431   1.582   0.354   2.059 -0.2713  0.2535 -0.6508
13339TIP3    H161432   1.630   0.429   2.093 -1.1528  0.7638 -0.4977
13339TIP3    H261433   1.497   0.390   2.031 -0.7366 -0.6903 -0.4965
13340TIP3   OH261434   1.752   6.378  13.357 -0.3684  0.2738 -0.5022
13340TIP3    H161435   1.833   6.397  13.403 -0.8759  1.6280 -0.1352
13340TIP3    H261436   1.752   6.282  13.348  0.7111  0.1539  0.5011
13341TIP3   OH261437   2.723   2.168  16.482 -0.5006 -0.2685  0.0197
13341TIP3    H161438   2.684   2.163  16.570  0.7540 -0.2020  0.6055
13341TIP3    H261439   2.814   2.194  16.498  0.4233 -2.5414 -1.0994
13342TIP3   OH261440   3.454   3.623   1.146 -0.0710  0.4487  0.5215
13342TIP3    H161441   3.479   3.537   1.114  2.7963  1.2465  0.2507
13342TIP3    H261442   3.424   3.670   1.069 -0.2878  0.1233  0.4075
13343TIP3   OH261443   6.200   0.779   1.494  0.5663 -0.1928  0.2180
13343TIP3    H161444   6.172   0.849   1.553  0.1796 -2.3205  2.7407
13343TIP3    H261445   6.124   0.720   1.488  1.5415 -1.4757 -0.0865
13344TIP3   OH261446   3.731   1.593   5.172 -0.4036 -0.3956 -0.5358
13344TIP3    H161447   3.777   1.549   5.244  1.5923  0.7604 -1.0040
13344TIP3    H261448   3.742   1.687   5.190 -3.9479  0.0464  0.0816
13345TIP3   OH261449   5.067   5.170   2.370  0.0190  0.0620  0.8490
13345TIP3    H161450   5.096   5.088   2.410  0.1686  0.3928  1.4383
13345TIP3    H261451   4.988   5.194   2.420  0.1981  0.4715  0.9440
13346TIP3   OH261452   3.831   0.709   3.823 -0.4050 -0.1430 -0.4538
13346TIP3    H161453   3.771   0.691   3.895  0.4762 -1.2520  0.0340
13346TIP3    H261454   3.875   0.626   3.807  2.5526  1.0655  0.6526
13347TIP3   OH261455   4.767   4.407   6.134  0.1936  0.6592  0.4698
13347TIP3    H161456   4.717   4.474   6.181  0.6940  0.5281  1.2158
13347TIP3    H261457   4.714   4.328   6.139  0.5553  0.4583  1.4659
13348TIP3   OH261458   1.407   0.489  13.573  0.4867  0.1978  0.5857
13348TIP3    H161459   1.497   0.466  13.594  0.5368  0.6622  0.9099
13348TIP3    H261460   1.405   0.498  13.478  0.6060 -0.5177  0.5108
13349TIP3   OH261461   4.791   3.805   5.320 -0.0813 -0.1724  0.0487
13349TIP3    H161462   4.837   3.747   5.259 -0.5595  1.2549 -1.7474
13349TIP3    H261463   4.755   3.874   5.265 -1.2586  0.7400  1.8720
13350TIP3   OH261464   4.157   2.731  16.473  0.2537 -0.2967  0.0436
13350TIP3    H161465   4.110   2.651  16.447 -0.2247 -0.4249  1.2560
13350TIP3    H261466   4.246   2.718  16.440 -0.3477 -0.3820 -1.6351
13351TIP3   OH261467   1.057   4.804   3.673  0.1182 -0.1964 -0.0729
13351TIP3    H161468   0.979   4.817   3.618  0.3976 -0.4890 -0.5465
13351TIP3    H261469   1.042   4.720   3.716  0.1373 -0.2149 -0.1026
13352TIP3   OH261470   4.471   3.098  13.539 -0.1949 -0.5651 -0.2301
13352TIP3    H161471   4.531   3.060  13.602 -0.5976  0.1160  0.5929
13352TIP3    H261472   4.407   3.029  13.521  0.5020 -1.1068 -0.6978
13353TIP3   OH261473   2.679   2.303   3.458 -0.4731  0.1611 -0.2595
13353TIP3    H161474   2.726   2.295   3.540 -1.5928  0.9965  0.4907
13353TIP3    H261475   2.742   2.275   3.391  1.2581  1.7432  0.6299
13354TIP3   OH261476   0.600   0.690  10.959 -0.6709  0.0847 -0.2991
13354TIP3    H161477   0.579   0.598  10.944 -0.0924 -0.3883  1.5849
13354TIP3    H261478   0.514   0.733  10.963 -0.9243 -0.1573 -2.1741
13355TIP3   OH261479   3.909   5.996   4.054 -0.0988  0.9432 -0.1847
13355TIP3    H161480   3.951   5.915   4.085  1.2807  2.0090  0.8609
13355TIP3    H261481   3.864   6.031   4.131  0.1024  1.6420 -0.3779
13356TIP3   OH261482   4.582   3.193   1.068 -0.1869 -0.4503  0.1728
13356TIP3    H161483   4.578   3.266   1.131  1.2132  0.4049 -0.6849
13356TIP3    H261484   4.663   3.207   1.020 -1.0129 -1.3138 -1.5530
13357TIP3   OH261485   3.928   6.606   1.884  0.6141 -0.0894  0.1130
13357TIP3    H161486   3.978   6.538   1.840  0.5566 -0.2384  0.2777
13357TIP3    H261487   3.839   6.599   1.847  0.5297 -0.3087  0.3583
13358TIP3   OH261488   2.916   2.086  12.791 -0.6317  0.8274 -0.3355
13358TIP3    H161489   2.898   1.997  12.760 -0.4927  0.4023  0.7624
13358TIP3    H261490   2.836   2.112  12.836  0.6601 -0.3319  2.8824
13359TIP3   OH261491   2.719   3.190  15.453  0.4988  0.2360 -0.1080
13359TIP3    H161492   2.636   3.145  15.440  0.5569  0.1971 -0.3509
13359TIP3    H261493   2.781   3.120  15.475  0.3861  0.3085  0.4732
13360TIP3   OH261494   5.934   3.778  12.444 -0.1654  0.1021 -0.0429
13360TIP3    H161495   5.841   3.755  12.435 -0.6622  1.8298  0.3678
13360TIP3    H261496   5.956   3.822  12.362  0.4305 -0.6531 -0.3073
13361TIP3   OH261497   3.278   3.383   3.160  0.0444  0.0247  0.4750
13361TIP3    H161498   3.203   3.438   3.139 -0.7765 -1.9378 -2.2915
13361TIP3    H261499   3.290   3.393   3.254 -3.1756  1.0160  0.8889
13362TIP3   OH261500   5.520   0.500  16.298  0.1906  0.6556 -0.1589
13362TIP3    H161501   5.546   0.430  16.237 -0.7227 -0.2795  0.4782
13362TIP3    H261502   5.601   0.527  16.340  0.3435 -1.5097  1.0904
13363TIP3   OH261503   2.772   1.573  14.981  0.1317 -0.5564  0.8030
13363TIP3    H161504   2.857   1.604  14.950 -0.6858  1.6850  0.5769
13363TIP3    H261505   2.753   1.496  14.928  0.5145  0.9066 -1.5805
13364TIP3   OH261506   2.703   2.841  14.465  0.2752  0.0990 -0.0533
13364TIP3    H161507   2.752   2.894  14.528  0.4882  0.4360 -0.4973
13364TIP3    H261508   2.626   2.811  14.513 -0.0039  1.0602  0.1061
13365TIP3   OH261509   1.280   2.373   0.827  0.1772 -0.0378 -0.2304
13365TIP3    H161510   1.230   2.449   0.858 -0.7971  0.0366 -1.8701
13365TIP3    H261511   1.336   2.409   0.757 -1.3223 -1.0043 -2.0238
13366TIP3   OH261512   2.576   2.445  15.135  0.0863 -0.0962  0.4233
13366TIP3    H161513   2.552   2.533  15.105 -0.9674 -0.4857  0.0750
13366TIP3    H261514   2.565   2.390  15.058 -1.5536 -0.9202  1.2113
13367TIP3   OH261515   1.631   6.545   3.482  0.0197 -0.4423 -0.0675
13367TIP3    H161516   1.548   6.500   3.469 -0.8545  1.3661 -1.1333
13367TIP3    H261517   1.615   6.606   3.553 -0.4393  1.7810 -1.9780
13368TIP3   OH261518   2.776   6.464  10.853 -0.1623 -0.2689  0.0621
13368TIP3    H161519   2.842   6.507  10.799 -0.1764 -2.8242 -2.2446
13368TIP3    H261520   2.694   6.476  10.805 -0.4380 -1.3523  0.2217
13369TIP3   OH261521   5.291   0.397   1.182  0.5241  0.2027  0.3757
13369TIP3    H161522   5.292   0.339   1.259  1.1317 -0.5167 -0.1661
13369TIP3    H261523   5.302   0.339   1.108 -0.9949  0.7904 -0.3455
13370TIP3   OH261524   5.060   1.619  14.109 -0.3148  0.7489 -0.0049
13370TIP3    H161525   5.035   1.539  14.064 -0.2372  0.2319  0.8434
13370TIP3    H261526   5.107   1.670  14.043  1.1309 -0.6437 -0.1356
13371TIP3   OH261527   5.187   1.256   1.539  0.0607 -0.1176  0.1767
13371TIP3    H161528   5.143   1.189   1.486  0.9323 -1.2570  0.8453
13371TIP3    H261529   5.134   1.335   1.526 -1.3970 -1.0906 -0.1100
13372TIP3   OH261530   0.621   2.607  13.749 -0.1301 -0.4969 -0.2355
13372TIP3    H161531   0.626   2.600  13.653 -2.9289 -1.8588 -0.3827
13372TIP3    H261532   0.555   2.675  13.764  0.7823  0.1935  0.7781
13373TIP3   OH261533   0.735   1.982   3.148 -0.0510 -0.6725 -0.7629
13373TIP3    H161534   0.653   2.019   3.181  0.6667 -0.3604  0.7622
13373TIP3    H261535   0.717   1.889   3.140 -0.4738 -0.6556 -0.1219
13374TIP3   OH261536   3.484   5.286  12.882 -0.0251 -0.2755  0.1658
13374TIP3    H161537   3.530   5.364  12.850  1.0391 -1.0381 -0.2196
13374TIP3    H261538   3.500   5.285  12.976 -0.3952  0.1882  0.2371
13375TIP3   OH261539   4.814   3.928   4.892 -0.4016 -0.2513 -0.7096
13375TIP3    H161540   4.801   3.853   4.833 -0.3072 -1.9252  1.2855
13375TIP3    H261541   4.872   3.987   4.844 -2.6974 -0.0455 -3.4894
13376TIP3   OH261542   6.244   6.719   0.707  0.3540 -0.0199 -0.0998
13376TIP3    H161543   6.153   6.743   0.722  1.0254  1.4914  1.9425
13376TIP3    H261544   6.248   6.626   0.728 -0.8717 -0.3517 -1.1719
13377TIP3   OH261545   6.748   1.678   0.867 -0.0310  0.6772  0.4322
13377TIP3    H161546   6.711   1.604   0.915  1.1950  0.9002  1.8000
13377TIP3    H261547   6.716   1.667   0.777 -0.9923 -0.7252  0.9128
13378TIP3   OH261548   3.373   3.191  13.132 -0.1359  0.2347  0.9099
13378TIP3    H161549   3.359   3.104  13.095 -1.5078  1.1636 -0.8963
13378TIP3    H261550   3.440   3.230  13.076 -1.2954  1.1894  0.1386
13379TIP3   OH261551   2.162   1.896   0.490  0.7403 -0.3457 -0.1588
13379TIP3    H161552   2.092   1.864   0.434  0.6773 -1.2404  0.3971
13379TIP3    H261553   2.178   1.986   0.461 -0.1435 -0.3709 -0.7593
13380TIP3   OH261554   3.663   4.016   4.404  0.2712 -0.5691 -0.4126
13380TIP3    H161555   3.671   3.921   4.400 -1.2995 -0.7907  0.8002
13380TIP3    H261556   3.750   4.046   4.430  0.9876 -1.5987 -1.5250
13381TIP3   OH261557   0.394   5.137  15.634  0.2579 -0.7372 -1.2736
13381TIP3    H161558   0.377   5.083  15.710  2.8786 -2.7168 -1.9543
13381TIP3    H261559   0.457   5.203  15.665 -1.6029  0.9219 -0.8683
13382TIP3   OH261560   4.379   5.890   3.540 -0.5193 -0.1568  0.4030
13382TIP3    H161561   4.411   5.908   3.452 -0.1896  0.4676  0.6461
13382TIP3    H261562   4.295   5.937   3.544 -1.0098 -0.9922  0.0954
13383TIP3   OH261563   4.418   1.008  12.161  0.1061 -0.1529 -0.0819
13383TIP3    H161564   4.426   0.926  12.208  0.2301  0.0959  0.3368
13383TIP3    H261565   4.324   1.016  12.142 -0.0204  0.0193  0.6163
13384TIP3   OH261566   3.072   4.338  17.078  0.1163 -0.8960 -0.4263
13384TIP3    H161567   3.112   4.396  17.142  1.3586 -0.8446 -1.2054
13384TIP3    H261568   2.998   4.298  17.124  0.3256 -0.0514  0.6777
13385TIP3   OH261569   0.148   0.035  16.763  0.2472  0.0341 -0.9365
13385TIP3    H161570   0.238   0.015  16.738  0.0844  0.1374 -1.6450
13385TIP3    H261571   0.103  -0.050  16.760  0.2211  0.0508 -1.0307
13386TIP3   OH261572   6.626   3.157   5.818  0.0197 -0.3440 -0.2350
13386TIP3    H161573   6.586   3.163   5.732 -1.0896 -0.7952  0.2263
13386TIP3    H261574   6.678   3.076   5.816  0.6137  0.0421 -0.7116
13387TIP3   OH261575   2.960   0.460  15.840 -0.4527 -0.0821  0.0576
13387TIP3    H161576   2.925   0.435  15.926 -1.3206 -0.5099 -0.4120
13387TIP3    H261577   2.899   0.526  15.807  0.6008  1.0689  0.3156
13388TIP3   OH261578   0.955   6.540   1.430  0.2716 -0.4003  0.5108
13388TIP3    H161579   0.963   6.498   1.344 -0.3619  0.9477 -0.2203
13388TIP3    H261580   0.898   6.481   1.480 -1.6683  0.1549 -0.9243
13389TIP3   OH261581   3.939   1.970   3.473  0.0275  0.0940 -0.2437
13389TIP3    H161582   3.986   1.906   3.526  0.8291  2.3141  1.9240
13389TIP3    H261583   4.008   2.021   3.430 -0.5261  0.6348 -0.5164
13390TIP3   OH261584   2.304   6.686  11.980  0.1305  0.0925  0.0510
13390TIP3    H161585   2.303   6.599  11.939 -0.7935  0.1227 -0.0276
13390TIP3    H261586   2.353   6.741  11.919  2.5034 -0.7928  1.0667
13391TIP3   OH261587   5.836   4.416   5.591  0.1558 -0.4162 -0.0147
13391TIP3    H161588   5.783   4.476   5.539  0.9315 -1.1150 -1.6695
13391TIP3    H261589   5.775   4.380   5.656 -0.4617  1.6712  0.6461
13392TIP3   OH261590   6.420   5.018  11.445 -0.2713 -0.1422  0.4030
13392TIP3    H161591   6.408   4.961  11.369 -0.4146  1.5933 -0.9354
13392TIP3    H261592   6.357   4.986  11.510 -0.9959 -0.9143 -0.6564
13393TIP3   OH261593   4.789   4.512   0.229 -0.2362  0.2256 -0.1772
13393TIP3    H161594   4.758   4.479   0.313 -1.5607 -0.7702 -1.0104
13393TIP3    H261595   4.712   4.508   0.172 -0.2650  3.9230 -0.6416
13394TIP3   OH261596   4.344   3.451   4.398 -0.3438  0.5541  0.2240
13394TIP3    H161597   4.415   3.459   4.334 -0.5747  0.3527 -0.0592
13394TIP3    H261598   4.382   3.400   4.469  0.0342  1.1115  0.4291
13395TIP3   OH261599   4.042   2.306   3.561  0.2312  0.1606  0.1542
13395TIP3    H161600   4.080   2.297   3.648 -0.6221 -0.8073  0.4473
13395TIP3    H261601   3.967   2.247   3.561  0.1563  0.2169 -1.2121
13396TIP3   OH261602   3.115   4.866  16.261  0.3961  0.3003  0.1359
13396TIP3    H161603   3.179   4.860  16.190 -0.0713  0.6780 -0.3252
13396TIP3    H261604   3.097   4.960  16.268 -1.4264  0.0666 -0.9339
13397TIP3   OH261605   0.099   1.445  15.616  0.5385  0.3567  0.2539
13397TIP3    H161606   0.099   1.443  15.520  0.6727 -0.0969  0.2618
13397TIP3    H261607   0.191   1.454  15.640  0.6149 -0.6148  0.3556
13398TIP3   OH261608   5.365   1.484  13.140 -0.0962  0.6073  0.4179
13398TIP3    H161609   5.273   1.501  13.159 -0.9209 -0.9609 -1.8067
13398TIP3    H261610   5.380   1.523  13.054  0.4517 -1.6915 -0.5961
13399TIP3   OH261611   2.633   6.164  16.053  0.0334 -0.5873  0.0546
13399TIP3    H161612   2.652   6.100  16.122  1.2333  0.1604  0.4565
13399TIP3    H261613   2.704   6.152  15.989  0.1274  0.1592  0.0094
13400TIP3   OH261614   2.492   6.599   2.692  0.5336  0.2543 -0.7357
13400TIP3    H161615   2.423   6.598   2.758  0.0649 -0.4161 -1.2221
13400TIP3    H261616   2.450   6.634   2.614  0.8887  0.3357 -0.8949
13401TIP3   OH261617   3.953   0.142  12.406 -0.1572  0.3545 -0.3413
13401TIP3    H161618   4.030   0.146  12.349  0.1459  0.4488  0.0699
13401TIP3    H261619   3.885   0.102  12.351  0.4282 -0.5275 -0.4422
13402TIP3   OH261620   4.416   0.582  14.921  0.2511  0.2510 -0.0553
13402TIP3    H161621   4.436   0.620  15.006  0.8073 -0.9541  0.3699
13402TIP3    H261622   4.320   0.575  14.920  0.3036 -0.9427  1.0315
13403TIP3   OH261623   2.655   4.772   5.686 -0.5858 -0.2885  0.1592
13403TIP3    H161624   2.718   4.700   5.683 -0.4331 -0.1447 -1.9096
13403TIP3    H261625   2.569   4.729   5.687 -0.5749 -0.6644 -3.0534
13404TIP3   OH261626   1.234   3.536   1.300  0.1191  0.2225  0.0904
13404TIP3    H161627   1.242   3.499   1.388 -0.5193 -0.2306 -0.0364
13404TIP3    H261628   1.280   3.621   1.305 -0.5859  0.5565  1.0657
13405TIP3   OH261629   3.396   1.723   3.820  0.0821 -0.7134 -0.4552
13405TIP3    H161630   3.375   1.657   3.886  2.8514 -0.9209  0.3167
13405TIP3    H261631   3.376   1.681   3.736  1.1856 -2.3023  0.0469
13406TIP3   OH261632   3.411   1.054  14.965  0.7463  0.6857  0.1178
13406TIP3    H161633   3.471   1.113  14.919  1.3525 -1.4940 -2.0780
13406TIP3    H261634   3.331   1.105  14.975  1.2435  1.9322 -1.6769
13407TIP3   OH261635   5.461   1.958  14.494  0.5248 -0.2472 -0.0464
13407TIP3    H161636   5.418   1.880  14.460  0.5316 -0.5856  0.6967
13407TIP3    H261637   5.474   1.940  14.587  2.0266 -0.0438 -0.1808
13408TIP3   OH261638   4.744   3.359  13.727  0.2827 -0.2969  0.5445
13408TIP3    H161639   4.691   3.284  13.755 -0.7805  0.4016  0.4590
13408TIP3    H261640   4.706   3.386  13.643  2.0224 -0.9787 -0.5036
13409TIP3   OH261641   1.607   0.683   1.467  0.4664 -0.1016  0.1297
13409TIP3    H161642   1.682   0.650   1.517  0.3853  0.3165  0.5360
13409TIP3    H261643   1.627   0.661   1.376  1.4794  0.7277  0.1279
13410TIP3   OH261644   3.289   5.818   2.591 -0.2017  0.0492 -0.1192
13410TIP3    H161645   3.288   5.896   2.536 -1.3090 -0.4876 -0.8943
13410TIP3    H261646   3.374   5.777   2.572  0.6472  1.3395  0.7425
13411TIP3   OH261647   3.465   2.206  14.979 -0.5049  0.6036 -0.6202
13411TIP3    H161648   3.556   2.214  15.007 -0.4479 -2.0837  0.3485
13411TIP3    H261649   3.424   2.288  15.005  1.1427  0.9656  1.0357
13412TIP3   OH261650   0.130   0.828   2.274 -0.1732 -0.1329 -0.5017
13412TIP3    H161651   0.224   0.820   2.290 -0.6294 -1.7398  2.2161
13412TIP3    H261652   0.106   0.910   2.316  0.0225  0.3175 -1.2666
13413TIP3   OH261653   4.805   0.228   6.318  0.2443  0.1169 -0.1727
13413TIP3    H161654   4.727   0.247   6.266  0.2225  0.1316 -0.1342
13413TIP3    H261655   4.878   0.259   6.264  0.1890  0.6046  0.0309
13414TIP3   OH261656   6.248   5.479  12.768 -0.6150 -0.5010 -0.1466
13414TIP3    H161657   6.256   5.456  12.676  1.8155  0.8609 -0.3760
13414TIP3    H261658   6.202   5.562  12.769 -1.2198 -0.8295 -0.0541
13415TIP3   OH261659   4.231   1.449   2.825  0.3089 -0.1076  0.6353
13415TIP3    H161660   4.322   1.433   2.800  0.4234 -0.5042  1.2823
13415TIP3    H261661   4.235   1.463   2.919 -0.0205  2.0281  0.3806
13416TIP3   OH261662   1.282   3.867  15.132  0.4475  0.0263 -0.5971
13416TIP3    H161663   1.217   3.861  15.062  0.1237 -0.3180 -0.2709
13416TIP3    H261664   1.354   3.812  15.103 -0.2729 -1.2596 -0.0413
13417TIP3   OH261665   5.139   6.326   0.900  0.8728  0.5832 -0.4172
13417TIP3    H161666   5.193   6.382   0.956  1.5766  0.1366 -0.6404
13417TIP3    H261667   5.060   6.378   0.883  0.2877  0.4452  1.5932
13418TIP3   OH261668   1.566   1.218   5.053 -0.5229 -0.3371 -0.8687
13418TIP3    H161669   1.650   1.262   5.039 -0.8034  0.1029 -1.1791
13418TIP3    H261670   1.557   1.215   5.148  1.2728 -3.1296 -0.6684
13419TIP3   OH261671   6.642   2.494   2.485 -0.5709  0.8119 -0.7595
13419TIP3    H161672   6.646   2.589   2.491  0.4012  0.6815  2.4563
13419TIP3    H261673   6.579   2.468   2.552  1.5038 -0.8438  0.7261
13420TIP3   OH261674   3.702   5.794   0.915  0.4314 -0.1628  0.0382
13420TIP3    H161675   3.669   5.862   0.856 -0.2899 -0.0489  0.5665
13420TIP3    H261676   3.654   5.807   0.996 -0.0615 -1.5831  0.0108
13421TIP3   OH261677   4.859   3.930   2.006 -0.1622 -0.0444  0.4967
13421TIP3    H161678   4.924   3.872   1.967 -0.0886  0.9770 -0.9800
13421TIP3    H261679   4.781   3.919   1.952 -0.8194 -0.2652  1.4464
13422TIP3   OH261680   4.888   0.844  16.254 -1.0342  0.0649  0.2063
13422TIP3    H161681   4.947   0.847  16.330  0.0437 -2.3416 -0.4201
13422TIP3    H261682   4.941   0.880  16.183 -0.5911 -1.2759 -0.1711
13423TIP3   OH261683   0.951   3.791   0.312  0.4600 -0.0436 -0.0253
13423TIP3    H161684   0.923   3.776   0.402  1.8214  0.9427  0.6007
13423TIP3    H261685   0.888   3.742   0.259 -3.1031  2.7707  1.1571
13424TIP3   OH261686   4.842   0.635   5.222  0.6412 -0.4992 -0.1753
13424TIP3    H161687   4.823   0.728   5.212  1.1078 -0.3058  0.6776
13424TIP3    H261688   4.784   0.605   5.292 -0.3328 -1.1209 -1.2189
13425TIP3   OH261689   2.873   3.834   0.488 -0.2618 -0.8013  0.9315
13425TIP3    H161690   2.838   3.866   0.571 -2.1002  0.1492 -0.1349
13425TIP3    H261691   2.800   3.842   0.426  1.5368  0.2674 -1.2174
13426TIP3   OH261692   2.076   5.213  13.276 -0.2348 -0.0857  0.4063
13426TIP3    H161693   2.111   5.142  13.222  0.7063 -0.6147  1.6813
13426TIP3    H261694   2.076   5.289  13.217  1.8809 -0.3628 -0.0303
13427TIP3   OH261695   2.119   1.716  11.319  0.0802 -0.0309 -0.2673
13427TIP3    H161696   2.029   1.709  11.350  0.4236  1.9478  1.3853
13427TIP3    H261697   2.114   1.775  11.243  0.2264  2.8821  1.7875
13428TIP3   OH261698   6.771   2.893   0.740  0.0300 -0.0788 -0.1447
13428TIP3    H161699   6.811   2.955   0.679 -0.2438 -0.5125 -0.7756
13428TIP3    H261700   6.844   2.858   0.790  0.2628  0.2386 -0.2581
13429TIP3   OH261701   4.323   4.099  14.552  0.3151  0.1595 -0.4221
13429TIP3    H161702   4.343   4.180  14.505 -1.0159  0.9105  0.2409
13429TIP3    H261703   4.233   4.111  14.582 -0.0108 -1.6958 -0.5524
13430TIP3   OH261704   3.216   4.766  14.557  0.0211 -0.0729 -0.2874
13430TIP3    H161705   3.218   4.838  14.494 -0.6962 -2.4816 -3.2588
13430TIP3    H261706   3.308   4.754  14.582  0.1236  1.9778  0.5527
13431TIP3   OH261707   2.829   2.813   6.005  0.1169  0.1099  0.1458
13431TIP3    H161708   2.783   2.743   6.052 -0.5667  1.1415  1.0751
13431TIP3    H261709   2.823   2.889   6.063  0.0863  1.1826 -1.1939
13432TIP3   OH261710   0.212   5.684  14.055  0.0494 -0.1843 -0.0554
13432TIP3    H161711   0.260   5.646  14.128  2.1793  0.8917 -0.8253
13432TIP3    H261712   0.204   5.614  13.991  1.9492 -0.0340 -0.5207
13433TIP3   OH261713   6.433   4.377  16.425 -0.7101 -0.0226  0.0800
13433TIP3    H161714   6.395   4.433  16.358  0.7496 -0.8835 -1.5639
13433TIP3    H261715   6.521   4.412  16.439 -0.1336 -1.2646 -0.2446
13434TIP3   OH261716   1.535   4.200   4.555  0.0653  0.9536  0.2754
13434TIP3    H161717   1.525   4.114   4.594  0.8822  1.1784  1.0315
13434TIP3    H261718   1.469   4.255   4.598 -1.3427  0.4367 -1.1391
13435TIP3   OH261719   1.396   2.821  14.665 -0.4778  0.2886 -0.0627
13435TIP3    H161720   1.364   2.765  14.595  0.6054 -0.4130 -0.0304
13435TIP3    H261721   1.333   2.809  14.736 -0.6605 -0.3347 -0.3213
13436TIP3   OH261722   0.702   5.475  10.936 -0.3017 -0.2095  0.9024
13436TIP3    H161723   0.666   5.547  10.988  0.1015  1.4510 -1.0106
13436TIP3    H261724   0.638   5.405  10.944 -0.7591  0.3612  2.7289
13437TIP3   OH261725   1.486   1.949  13.839 -0.2281 -0.0875  0.2419
13437TIP3    H161726   1.535   1.975  13.917  0.2315 -0.7541  0.1860
13437TIP3    H261727   1.440   1.870  13.866  0.4603 -0.7090 -0.3482
13438TIP3   OH261728   6.578   1.951  11.825 -0.0231  0.0543 -0.1925
13438TIP3    H161729   6.575   1.961  11.920 -0.2220 -2.0575  0.0506
13438TIP3    H261730   6.665   1.914  11.807 -0.7016 -1.4051 -0.6100
13439TIP3   OH261731   0.496   6.427  16.667 -0.4139 -0.1647  0.0353
13439TIP3    H161732   0.509   6.493  16.734  2.8767 -2.7819  2.3323
13439TIP3    H261733   0.409   6.391  16.685 -0.4662  0.6401  1.5224
13440TIP3   OH261734   1.561   5.186  13.247 -0.3459 -0.0495 -0.2851
13440TIP3    H161735   1.478   5.229  13.269  0.5085  1.6577 -0.2499
13440TIP3    H261736   1.595   5.155  13.331  2.1690  5.1057  1.0196
13441TIP3   OH261737   0.392   4.208   4.491  0.3458  0.3938 -0.4063
13441TIP3    H161738   0.330   4.137   4.510 -0.1892  0.5016 -1.6383
13441TIP3    H261739   0.417   4.241   4.577  1.0321 -1.6245  0.2281
13442TIP3   OH261740   1.768   6.168  13.899  0.5558  0.2406 -0.5253
13442TIP3    H161741   1.701   6.108  13.933  1.4337  0.7372  2.4495
13442TIP3    H261742   1.722   6.250  13.883  0.2657  0.3797  0.8595
13443TIP3   OH261743   3.460   2.410  13.789 -0.4275 -0.1597  0.3595
13443TIP3    H161744   3.408   2.447  13.717  0.8039 -1.6708 -1.3928
13443TIP3    H261745   3.395   2.379  13.852 -1.6367 -0.4862 -0.9972
13444TIP3   OH261746   0.027   1.379  12.503  0.0150 -0.0477  0.1401
13444TIP3    H161747   0.072   1.331  12.434  0.1113 -0.2975  0.3751
13444TIP3    H261748  -0.053   1.412  12.462  0.5510  0.6523 -0.3585
13445TIP3   OH261749   3.420   2.901   5.284 -0.3877  0.4457 -0.7104
13445TIP3    H161750   3.382   2.954   5.354 -0.4084  1.0094 -1.1421
13445TIP3    H261751   3.508   2.881   5.314 -0.5944  0.1860 -0.2610
13446TIP3   OH261752   2.237   1.931   2.176  0.2118 -0.1980 -0.0481
13446TIP3    H161753   2.186   2.005   2.143  0.8030  0.5031  0.5619
13446TIP3    H261754   2.327   1.951   2.151  0.2909 -1.0474 -0.4579
13447TIP3   OH261755   6.053   2.863   5.641  0.3827  0.5107  0.4126
13447TIP3    H161756   6.086   2.837   5.727 -0.6620  0.7697  0.9093
13447TIP3    H261757   5.968   2.905   5.659 -0.7329 -1.0435 -0.8765
13448TIP3   OH261758   4.055   6.306   3.001 -0.3812  0.2667 -0.0628
13448TIP3    H161759   4.072   6.359   3.078 -1.8825  0.3586  0.2426
13448TIP3    H261760   3.989   6.356   2.952 -1.4094 -1.0161 -0.0444
13449TIP3   OH261761   1.004   6.216   4.246  0.1982 -0.4117  0.4073
13449TIP3    H161762   1.071   6.271   4.287  0.4560 -1.2064  1.0723
13449TIP3    H261763   0.932   6.276   4.226  1.0560  0.4457 -0.2378
13450TIP3   OH261764   3.636   3.697  13.976  0.1949 -0.3385  0.4370
13450TIP3    H161765   3.622   3.766  13.911 -0.6846 -0.3084  0.6539
13450TIP3    H261766   3.707   3.730  14.031 -0.5102  0.5912  0.8054
13451TIP3   OH261767   3.183   4.465  14.543 -0.8787 -0.1052  0.1365
13451TIP3    H161768   3.220   4.446  14.630  0.5357  1.2681 -0.1091
13451TIP3    H261769   3.171   4.560  14.543  0.4525  0.1162 -1.6126
13452TIP3   OH261770   1.815   1.552   0.023 -0.2193 -0.0485  0.0230
13452TIP3    H161771   1.784   1.584  -0.061 -1.2599 -0.3512  0.2728
13452TIP3    H261772   1.736   1.552   0.079  0.6137  1.0518  1.2785
13453TIP3   OH261773   6.291   3.104  13.324  0.3937 -0.9197  0.0496
13453TIP3    H161774   6.269   3.038  13.389  1.1790 -2.3226 -1.0422
13453TIP3    H261775   6.213   3.110  13.268 -0.1335 -0.0002  0.8592
13454TIP3   OH261776   2.218   0.974   4.282  0.2906  0.6349  0.6071
13454TIP3    H161777   2.250   1.033   4.214  0.0504  0.6912  0.5427
13454TIP3    H261778   2.128   1.003   4.299 -0.1332 -0.2394 -0.0395
13455TIP3   OH261779   4.199   1.709   5.966 -0.7932  0.0998  0.0765
13455TIP3    H161780   4.195   1.613   5.958 -1.7623  0.1690 -0.5059
13455TIP3    H261781   4.290   1.728   5.986 -0.1898 -0.8327 -1.6036
13456TIP3   OH261782   1.488   1.600   2.655  0.0278  0.3947  0.0299
13456TIP3    H161783   1.497   1.692   2.630  0.5578  0.5433  0.7498
13456TIP3    H261784   1.532   1.593   2.740  0.5779 -0.6684 -0.3194
13457TIP3   OH261785   1.837   0.922   6.144  0.0883  0.2096 -0.0979
13457TIP3    H161786   1.782   0.966   6.209 -0.2279 -0.8631  0.3814
13457TIP3    H261787   1.887   0.857   6.195 -1.2614 -1.7063 -1.0869
13458TIP3   OH261788   6.348   0.781  16.696  0.3117  0.0602 -0.3824
13458TIP3    H161789   6.365   0.858  16.642  0.2328  1.2170  1.1861
13458TIP3    H261790   6.288   0.727  16.643 -0.7676  1.7387 -0.9398
13459TIP3   OH261791   1.662   3.622  10.809  0.0806 -0.1938  0.0207
13459TIP3    H161792   1.611   3.651  10.884 -0.1708 -1.1241  0.2202
13459TIP3    H261793   1.596   3.602  10.742  0.2868  0.3134 -0.3441
13460TIP3   OH261794   3.474   4.175  14.671 -0.1561  0.1355 -0.2912
13460TIP3    H161795   3.535   4.207  14.604  0.0649  0.2820 -0.0272
13460TIP3    H261796   3.444   4.090  14.638 -1.1588  0.8424 -1.2557
13461TIP3   OH261797   2.724   0.811   2.112 -0.6488  0.1196 -0.6555
13461TIP3    H161798   2.718   0.758   2.033 -1.2755 -2.1468  0.8196
13461TIP3    H261799   2.666   0.886   2.096  0.4935  0.6308 -2.9096
13462TIP3   OH261800   4.457   1.489  14.305  0.3946 -0.2975  0.8367
13462TIP3    H161801   4.514   1.463  14.377  1.9525 -0.2283 -0.3049
13462TIP3    H261802   4.489   1.438  14.230 -1.2647 -0.4761  0.2104
13463TIP3   OH261803   5.356   0.643  13.204  0.1198  0.2794 -0.0084
13463TIP3    H161804   5.275   0.665  13.159  0.0300  1.5406  0.7159
13463TIP3    H261805   5.400   0.727  13.217  0.8573 -0.2239  0.9055
13464TIP3   OH261806   1.386   4.334   5.487 -0.3499 -0.7536 -0.0854
13464TIP3    H161807   1.455   4.268   5.492 -1.9209 -2.4241  1.6491
13464TIP3    H261808   1.361   4.349   5.579 -0.5566  1.7460 -0.5031
13465TIP3   OH261809   0.876   1.709  11.573  0.1214  0.4473  0.0474
13465TIP3    H161810   0.884   1.776  11.642  0.4409  1.5002 -0.9806
13465TIP3    H261811   0.900   1.755  11.493 -0.8532 -0.5926 -0.8673
13466TIP3   OH261812   1.326   1.739   4.264  0.1206 -0.0457  0.0617
13466TIP3    H161813   1.383   1.813   4.244  1.3520  0.1683  3.5750
13466TIP3    H261814   1.385   1.664   4.267  0.0789 -0.0520  2.4136
13467TIP3   OH261815   3.529   2.968  13.378 -0.3491 -0.0251 -0.4527
13467TIP3    H161816   3.603   2.971  13.439 -0.0403  2.0077 -0.8536
13467TIP3    H261817   3.452   2.986  13.432 -0.5205 -1.5630 -0.1353
13468TIP3   OH261818   2.907   1.699   4.696  0.1419  0.2210 -0.1999
13468TIP3    H161819   2.955   1.618   4.712  1.0142  0.7225 -0.2097
13468TIP3    H261820   2.816   1.671   4.685  0.4102 -0.7396 -0.0906
13469TIP3   OH261821   2.920   1.880   5.650 -0.0173 -0.6700 -0.1651
13469TIP3    H161822   2.888   1.818   5.716  0.3737 -1.0112 -0.2947
13469TIP3    H261823   2.851   1.883   5.585 -0.9185  0.5191  0.8031
13470TIP3   OH261824   5.479   3.566   2.284 -0.4191 -0.0504  0.3756
13470TIP3    H161825   5.426   3.578   2.205  1.0155 -0.2312 -0.6408
13470TIP3    H261826   5.533   3.489   2.266 -0.6125 -0.5616  1.8573
13471TIP3   OH261827   2.594   2.968  16.621  0.2170 -0.0712 -0.7951
13471TIP3    H161828   2.646   2.891  16.645 -1.9263 -2.1955 -2.4640
13471TIP3    H261829   2.568   2.952  16.530 -1.3123  2.0716 -0.8020
13472TIP3   OH261830   6.475   0.295   3.308  0.2087  0.4221  0.5682
13472TIP3    H161831   6.382   0.313   3.289 -0.1114 -0.3960  1.3010
13472TIP3    H261832   6.477   0.277   3.402  0.9901 -0.2657  0.4278
13473TIP3   OH261833   6.187   0.963  11.797 -0.6914 -0.5098  0.3647
13473TIP3    H161834   6.220   0.969  11.887  0.7654 -0.2716 -0.1674
13473TIP3    H261835   6.091   0.963  11.807 -0.5543 -0.7449  1.9222
13474TIP3   OH261836   4.273   4.504  11.827 -0.2429 -0.5198  0.4412
13474TIP3    H161837   4.276   4.425  11.773  0.9948  0.8211 -1.5555
13474TIP3    H261838   4.238   4.572  11.770  1.6171  1.0855  1.0834
13475TIP3   OH261839   2.648   0.894   3.639  0.5669 -0.3667  0.4783
13475TIP3    H161840   2.631   0.960   3.706 -0.8911  0.4923 -0.6749
13475TIP3    H261841   2.688   0.943   3.567  2.8541 -1.4082  0.9394
13476TIP3   OH261842   4.165   5.562   5.205  0.0594  0.2008 -0.4966
13476TIP3    H161843   4.184   5.474   5.238  2.3261  0.0303 -2.0255
13476TIP3    H261844   4.069   5.566   5.204 -0.1422 -1.1580  2.2346
13477TIP3   OH261845   3.274   3.570  12.571  0.2213  0.1472  0.0391
13477TIP3    H161846   3.245   3.496  12.624 -1.1422  0.2213 -0.5636
13477TIP3    H261847   3.283   3.642  12.634  2.2236 -0.6444  0.7460
13478TIP3   OH261848   1.951   0.307   3.185 -0.3738  0.0393  0.3859
13478TIP3    H161849   2.015   0.236   3.182 -1.2942 -0.8071  0.3505
13478TIP3    H261850   1.954   0.339   3.275 -1.5218 -1.5393  1.0248
13479TIP3   OH261851   6.054   4.987   4.392  0.0011 -0.0278  0.1173
13479TIP3    H161852   6.010   4.918   4.442 -0.2067 -0.9484 -1.2881
13479TIP3    H261853   6.053   5.063   4.450  2.9139 -1.9007  3.0022
13480TIP3   OH261854   1.454   6.435   1.086  0.0757  0.1554  0.0750
13480TIP3    H161855   1.482   6.349   1.053 -0.2590 -0.6980  1.8427
13480TIP3    H261856   1.490   6.438   1.175  0.8095  2.2470 -0.2415
13481TIP3   OH261857   2.700   3.590   3.149  0.3045  0.2594 -0.3132
13481TIP3    H161858   2.610   3.565   3.165  0.6382 -1.1959 -0.4948
13481TIP3    H261859   2.729   3.632   3.229 -0.0651 -0.7390  0.3669
13482TIP3   OH261860   6.117   1.509  11.438  0.8451  0.1409  0.7545
13482TIP3    H161861   6.197   1.473  11.400  1.0142 -0.1906  1.4024
13482TIP3    H261862   6.048   1.490  11.375  1.2833  0.4620  0.1731
13483TIP3   OH261863   5.744   6.643  16.433  0.2366  0.0357 -0.0892
13483TIP3    H161864   5.669   6.626  16.490 -0.6552  3.1478 -0.1110
13483TIP3    H261865   5.813   6.672  16.492  0.0957  0.9280 -0.3346
13484TIP3   OH261866   3.735   6.727  15.584 -0.2773  0.0684 -0.4102
13484TIP3    H161867   3.662   6.758  15.531  1.9839  1.7910 -2.7980
13484TIP3    H261868   3.808   6.784  15.559  2.0216 -1.8817  1.4071
13485TIP3   OH261869   4.840   4.472  15.298  0.0812  0.5506 -0.7341
13485TIP3    H161870   4.924   4.519  15.299  1.0088 -1.0556 -0.5835
13485TIP3    H261871   4.862   4.383  15.271 -1.4363 -0.1477  0.1909
13486TIP3   OH261872   4.580   5.486  17.263 -0.2283 -0.0104 -0.0873
13486TIP3    H161873   4.523   5.472  17.339 -2.3883  0.6738 -1.4750
13486TIP3    H261874   4.583   5.401  17.219  0.7231 -0.3148  0.5492
13487TIP3   OH261875   5.483   3.940   6.440 -0.0314 -0.6801 -0.2040
13487TIP3    H161876   5.446   3.861   6.399 -0.3667 -1.1016  0.8748
13487TIP3    H261877   5.578   3.930   6.429 -0.0796 -1.1507 -0.2287
13488TIP3   OH261878   0.979   0.383   5.569 -0.5569  0.0164  0.3000
13488TIP3    H161879   1.046   0.450   5.551  0.8033 -1.7915 -1.8575
13488TIP3    H261880   0.909   0.403   5.507 -1.7093  1.3681  1.9502
13489TIP3   OH261881   2.007   5.320   2.493  0.0181  0.2766  0.4322
13489TIP3    H161882   2.038   5.245   2.545 -2.1498  0.7575  2.5702
13489TIP3    H261883   1.918   5.296   2.467  0.1487  1.1532 -0.9161
13490TIP3   OH261884   2.772   5.227   4.220 -0.1559  0.1796  0.2749
13490TIP3    H161885   2.781   5.307   4.270  0.8313  1.0918 -1.2772
13490TIP3    H261886   2.738   5.255   4.135 -1.4191 -1.2634  0.2549
13491TIP3   OH261887   3.707   0.572  15.346 -0.1578  0.0254  0.0823
13491TIP3    H161888   3.627   0.582  15.399 -0.1008  0.8575  0.0393
13491TIP3    H261889   3.714   0.656  15.300  0.6369 -0.1204 -0.0601
13492TIP3   OH261890   5.438   2.436  16.546 -0.0468  0.2182  0.3288
13492TIP3    H161891   5.347   2.457  16.564 -0.3296 -0.0293 -0.7111
13492TIP3    H261892   5.438   2.341  16.530  0.1244  0.4260 -1.0593
13493TIP3   OH261893   1.525   0.123  13.614  0.1159  0.8688 -0.2127
13493TIP3    H161894   1.605   0.150  13.568  2.3252 -0.1560  2.6971
13493TIP3    H261895   1.522   0.181  13.690 -0.9397 -0.2510  0.6228
13494TIP3   OH261896   5.642   2.468   2.031 -0.1870 -0.4044  1.1347
13494TIP3    H161897   5.620   2.404   2.098  0.6650 -1.2643  0.6193
13494TIP3    H261898   5.738   2.465   2.026 -0.1055  1.1719  1.3555
13495TIP3   OH261899   2.080   6.607   0.474  0.0871 -0.3649 -0.0906
13495TIP3    H161900   2.067   6.572   0.386  1.3317 -0.9161 -0.0917
13495TIP3    H261901   2.101   6.530   0.527  2.3076  0.2594  0.0385
13496TIP3   OH261902   4.944   3.268   5.836  0.1844  0.4660  0.0552
13496TIP3    H161903   4.851   3.283   5.856  0.4603  1.3765  0.7535
13496TIP3    H261904   4.982   3.243   5.920  0.5402 -0.0661 -0.2639
13497TIP3   OH261905   3.897   4.782  12.950 -0.0668  0.1382 -0.1837
13497TIP3    H161906   3.841   4.775  12.873  0.7251  0.2342 -0.7837
13497TIP3    H261907   3.929   4.693  12.964 -2.6778 -0.6022  1.9875
13498TIP3   OH261908   6.415   1.768  14.356 -0.1203  0.1799 -0.1526
13498TIP3    H161909   6.332   1.748  14.399 -0.2186  0.0017 -0.4229
13498TIP3    H261910   6.473   1.796  14.428  0.3173 -1.9737  0.3995
13499TIP3   OH261911   3.150   1.139  15.215  0.4146  0.3780 -0.2904
13499TIP3    H161912   3.074   1.191  15.191  0.2282  0.1969 -0.1017
13499TIP3    H261913   3.126   1.099  15.299  0.6446  0.1725 -0.3209
13500TIP3   OH261914   3.743   4.519   3.611  0.0634 -0.3685 -0.4157
13500TIP3    H161915   3.818   4.463   3.590  0.2456 -1.1629  2.1131
13500TIP3    H261916   3.754   4.595   3.554  3.1118 -0.2076  0.2222
13501TIP3   OH261917   3.466   4.174   2.650 -0.2192 -0.2362  0.6297
13501TIP3    H161918   3.496   4.227   2.724 -0.9110  0.5510  0.3759
13501TIP3    H261919   3.524   4.198   2.578 -2.2284  2.4336 -0.2794
13502TIP3   OH261920   4.894   3.687  12.513 -0.2377 -0.2289  0.9519
13502TIP3    H161921   4.864   3.664  12.600 -1.3196  2.1678  1.2975
13502TIP3    H261922   4.898   3.783  12.513 -2.2689  0.0061 -2.2169
13503TIP3   OH261923   1.903   1.496  16.215  0.0812 -0.4190 -0.2221
13503TIP3    H161924   1.958   1.418  16.231  1.1715  0.5881  1.1925
13503TIP3    H261925   1.814   1.465  16.228  0.5424 -1.2668  1.2855
13504TIP3   OH261926   4.528   3.252  16.367 -0.6063 -0.2702  0.3009
13504TIP3    H161927   4.580   3.331  16.384 -1.5286  0.9425 -1.9632
13504TIP3    H261928   4.467   3.247  16.440 -0.4840  1.1240  0.5341
13505TIP3   OH261929   5.923   1.365  15.112  0.3096  0.0714  0.5476
13505TIP3    H161930   5.981   1.395  15.182  1.0502 -2.2255  1.0062
13505TIP3    H261931   5.864   1.302  15.154 -0.1501 -0.3248 -0.6304
13506TIP3   OH261932   5.308   1.641  14.428 -0.0753 -0.5482 -0.0454
13506TIP3    H161933   5.335   1.650  14.519 -1.1677  0.2448  0.2155
13506TIP3    H261934   5.311   1.547  14.411 -3.3012 -1.1279  1.9111
13507TIP3   OH261935   3.008   1.948  11.152 -0.0248 -0.5714 -0.1165
13507TIP3    H161936   2.961   1.943  11.069 -1.0537 -0.9360  0.4619
13507TIP3    H261937   2.958   1.890  11.211 -0.9300  1.7093  1.5071
13508TIP3   OH261938   6.614   0.347  13.597  0.4448 -0.4524  0.2289
13508TIP3    H161939   6.564   0.296  13.661 -1.3925  0.1731 -0.6425
13508TIP3    H261940   6.578   0.435  13.604 -0.6656 -0.5973 -2.4111
13509TIP3   OH261941   1.311   5.349   4.763 -0.6687  0.0817  1.1531
13509TIP3    H161942   1.344   5.356   4.853 -0.7529 -0.2140  1.2095
13509TIP3    H261943   1.281   5.437   4.741  0.1857  0.3715  1.0889
13510TIP3   OH261944   4.769   0.119   2.159  0.0195  0.5907 -0.7932
13510TIP3    H161945   4.849   0.079   2.195 -0.7851 -0.1047  0.2871
13510TIP3    H261946   4.747   0.188   2.221 -0.8041  0.0709 -0.4873
13511TIP3   OH261947   3.904   4.065   5.958 -0.2568  0.4174  0.2118
13511TIP3    H161948   3.942   4.151   5.979  0.2258  0.7999 -1.9818
13511TIP3    H261949   3.857   4.079   5.876  0.5033 -1.5838 -0.6317
13512TIP3   OH261950   2.623   6.645   2.025  0.0570 -0.8447 -1.0544
13512TIP3    H161951   2.593   6.724   1.980  1.4630 -0.6947 -1.7823
13512TIP3    H261952   2.702   6.673   2.071 -1.2541 -1.0262  1.4643
13513TIP3   OH261953   1.856   6.353  14.591  0.4255 -0.3159 -0.2401
13513TIP3    H161954   1.923   6.298  14.633 -0.7187  0.2524  2.4921
13513TIP3    H261955   1.861   6.437  14.637 -1.3992  0.1267 -0.7714
13514TIP3   OH261956   5.407   0.028  16.507  0.3256 -0.1197 -0.3434
13514TIP3    H161957   5.494   0.015  16.544  0.7539 -0.6756 -1.4939
13514TIP3    H261958   5.348  -0.017  16.568  0.8044  0.4411  0.5596
13515TIP3   OH261959   1.357   1.629  10.928 -0.0547 -0.2028 -0.5179
13515TIP3    H161960   1.271   1.590  10.947 -1.0858  2.3046  0.4737
13515TIP3    H261961   1.356   1.644  10.833 -0.2000 -1.2727 -0.6936
13516TIP3   OH261962   5.303   2.012   0.305  0.4986  0.7453  0.4498
13516TIP3    H161963   5.222   2.058   0.285  0.1703  0.4169  1.0159
13516TIP3    H261964   5.323   1.964   0.224 -0.3417  0.1304  0.5968
13517TIP3   OH261965   3.991   4.408   0.951 -0.1323  0.1589  0.0921
13517TIP3    H161966   4.070   4.459   0.934 -1.3245  1.2248 -3.0419
13517TIP3    H261967   3.927   4.471   0.984 -0.8934  0.2834 -1.5074
13518TIP3   OH261968   5.541   1.355  11.278 -0.2354 -0.2180 -0.2875
13518TIP3    H161969   5.534   1.270  11.234 -0.3459  0.4073 -1.5483
13518TIP3    H261970   5.465   1.404  11.246 -1.7023 -0.5075  2.4931
13519TIP3   OH261971   3.342   0.709   1.985 -0.0585 -0.5942 -0.0412
13519TIP3    H161972   3.287   0.764   2.040 -2.1483 -0.5816 -1.9736
13519TIP3    H261973   3.413   0.766   1.957  0.2087 -0.1882  1.3978
13520TIP3   OH261974   5.198   1.892   6.053 -0.1860 -0.3466  0.1052
13520TIP3    H161975   5.183   1.957   6.121 -1.4636 -1.5343  1.0172
13520TIP3    H261976   5.257   1.828   6.092  1.7020  0.6002 -1.0512
13521TIP3   OH261977   5.907   1.378  12.540  0.1674 -0.1422  0.7988
13521TIP3    H161978   6.001   1.383  12.525  0.0356 -1.3652 -0.6607
13521TIP3    H261979   5.880   1.469  12.552  1.4946  0.2368  1.1153
13522TIP3   OH261980   3.735   0.629   1.440  0.3020 -0.2973 -0.0509
13522TIP3    H161981   3.828   0.651   1.433  0.7386 -1.7638  0.8030
13522TIP3    H261982   3.713   0.653   1.530 -0.2751  0.4137 -0.3683
13523TIP3   OH261983   5.412   3.081   5.902  0.5264 -0.0842  0.2695
13523TIP3    H161984   5.444   3.012   5.844  1.0256  0.3171  0.0634
13523TIP3    H261985   5.489   3.132   5.924  0.0803  0.7227  0.0007
13524TIP3   OH261986   5.480   5.577   2.112  0.3812  0.4983  0.2331
13524TIP3    H161987   5.513   5.495   2.147  0.1001 -0.0761 -0.7910
13524TIP3    H261988   5.391   5.556   2.082  0.0844  1.3282  0.4857
13525TIP3   OH261989   5.556   4.697  14.463 -0.1817 -0.1639 -0.0055
13525TIP3    H161990   5.489   4.713  14.398 -0.3831 -0.2937  0.1677
13525TIP3    H261991   5.561   4.602  14.470  0.4628 -0.1703 -0.4708
13526TIP3   OH261992   1.493   2.858  16.167 -0.7115  0.3361  0.1395
13526TIP3    H161993   1.528   2.813  16.244 -0.4395 -0.7919 -0.6067
13526TIP3    H261994   1.420   2.910  16.200 -0.2329  0.3314  1.2408
13527TIP3   OH261995   4.916   5.972  11.325 -0.5390 -0.3135  0.3754
13527TIP3    H161996   4.944   6.031  11.395  0.0712  0.0167 -0.1271
13527TIP3    H261997   4.994   5.920  11.306 -0.6743 -0.3541 -0.0917
13528TIP3   OH261998   1.551   6.427  14.580 -0.7350  0.1316  0.4049
13528TIP3    H161999   1.634   6.450  14.621 -1.7999 -0.5085  3.1562
13528TIP3    H262000   1.565   6.442  14.487  1.5376  2.8155  1.0316
13529TIP3   OH262001   4.095   0.839   3.002 -0.7904  0.1790  0.1182
13529TIP3    H162002   4.028   0.888   2.955  0.5717 -0.3981 -2.6357
13529TIP3    H262003   4.051   0.758   3.029 -1.6566  0.5736 -0.0865
13530TIP3   OH262004   0.094   1.743  15.320  0.1488 -0.3387  0.6828
13530TIP3    H162005   0.082   1.660  15.273 -0.8134 -0.2612  0.7716
13530TIP3    H262006   0.189   1.758  15.319  0.3014 -1.2684  0.3727
13531TIP3   OH262007   2.595   3.627  11.261 -0.0538 -0.0489  0.3349
13531TIP3    H162008   2.578   3.681  11.183  0.4803 -1.7952 -1.0585
13531TIP3    H262009   2.513   3.578  11.274  0.3109 -0.7545  0.0228
13532TIP3   OH262010   4.038   1.780  11.083  0.1315  0.5234 -0.0941
13532TIP3    H162011   3.953   1.771  11.039 -0.3518  0.7254  0.7817
13532TIP3    H262012   4.057   1.692  11.116 -0.6196  0.8577  1.2819
13533TIP3   OH262013   6.104   5.194   4.164 -0.0841  0.0855  0.2467
13533TIP3    H162014   6.070   5.144   4.090 -1.1784  1.6552 -0.3559
13533TIP3    H262015   6.093   5.136   4.239  0.2148 -1.1898 -0.6671
13534TIP3   OH262016   4.969   1.203  15.494  0.1136  0.3487 -0.0045
13534TIP3    H162017   5.054   1.201  15.449  0.9216 -0.3090  1.4848
13534TIP3    H262018   4.988   1.243  15.579 -1.0460  0.1009  0.3874
13535TIP3   OH262019   3.320   2.603  14.847  0.0873 -0.6285 -0.6026
13535TIP3    H162020   3.312   2.668  14.917  0.0030 -1.0486 -0.2152
13535TIP3    H262021   3.256   2.630  14.781 -0.0731 -0.4186 -0.3626
13536TIP3   OH262022   4.941   2.531  16.199  0.3800  0.6916 -0.5816
13536TIP3    H162023   5.018   2.495  16.156 -0.6563  0.4756 -2.3397
13536TIP3    H262024   4.871   2.522  16.135 -0.8457  2.0212  0.4996
13537TIP3   OH262025   4.955   6.274   5.305  0.2622 -0.3979  0.2517
13537TIP3    H162026   4.916   6.319   5.230 -1.3610 -1.0391  0.6626
13537TIP3    H262027   4.880   6.250   5.360  1.1793 -2.2882  0.7638
13538TIP3   OH262028   1.530   5.993   3.109 -0.2975 -0.4082 -0.5787
13538TIP3    H162029   1.608   6.035   3.072  0.4601 -0.6057  0.7359
13538TIP3    H262030   1.563   5.911   3.147 -1.1590 -0.5208 -0.0528
13539TIP3   OH262031   1.561   3.903   3.729 -0.1662 -0.1962  0.2019
13539TIP3    H162032   1.653   3.929   3.719 -0.4830  0.5195 -1.1667
13539TIP3    H262033   1.518   3.980   3.767 -0.5888  0.3283 -1.2607
13540TIP3   OH262034   3.250   1.692   0.467 -0.5622  0.2813  0.3704
13540TIP3    H162035   3.250   1.597   0.459 -0.1498  0.1305  1.8572
13540TIP3    H262036   3.330   1.720   0.422  0.2523 -0.2494  1.4413
13541TIP3   OH262037   0.065   1.608  14.774  0.4034 -0.6634 -0.1707
13541TIP3    H162038   0.126   1.600  14.700 -0.0481  0.1216 -0.6397
13541TIP3    H262039  -0.006   1.664  14.741  0.0274 -0.5806  0.7487
13542TIP3   OH262040   5.557   0.774  16.549  0.1277 -0.1913 -0.0343
13542TIP3    H162041   5.590   0.863  16.545  1.2144 -0.5856 -0.1751
13542TIP3    H262042   5.628   0.723  16.588  0.1396 -1.2585 -1.3672
13543TIP3   OH262043   4.455   2.144  16.235 -0.4846  0.4566  0.7022
13543TIP3    H162044   4.525   2.079  16.243 -0.1180  0.4498 -1.7393
13543TIP3    H262045   4.374   2.093  16.234 -0.2254  0.0227 -0.7265
13544TIP3   OH262046   6.447   1.873   1.551  0.3664 -0.0007  0.1876
13544TIP3    H162047   6.377   1.816   1.517  1.0670  0.2527 -1.7790
13544TIP3    H262048   6.523   1.816   1.557  0.8433  0.4887 -0.9501
13545TIP3   OH262049   5.976   1.584   2.280  0.2856  0.2941  0.5636
13545TIP3    H162050   6.016   1.606   2.364 -0.1045  0.2797  0.7555
13545TIP3    H262051   5.889   1.550   2.303 -0.2716  1.3444  0.0934
13546TIP3   OH262052   0.302   1.310   1.323  0.6183 -0.4282  0.3503
13546TIP3    H162053   0.274   1.388   1.371  1.5935 -0.0611  0.3468
13546TIP3    H262054   0.224   1.254   1.321 -0.8961  1.5342 -1.7504
13547TIP3   OH262055   4.160   0.661  12.112  0.1895 -0.2377  0.0394
13547TIP3    H162056   4.254   0.668  12.131  0.3966  0.5299 -1.1657
13547TIP3    H262057   4.148   0.713  12.033 -1.1181 -1.0150 -0.2961
13548TIP3   OH262058   2.446   5.363  17.138 -0.5831  0.0860  0.5823
13548TIP3    H162059   2.465   5.416  17.061  1.7275 -1.8314 -0.2873
13548TIP3    H262060   2.434   5.275  17.105  1.8353 -1.0706  2.4159
13549TIP3   OH262061   0.312   6.715   3.536  0.3245 -0.0410 -0.2724
13549TIP3    H162062   0.322   6.780   3.467 -0.4428 -0.5794 -0.9054
13549TIP3    H262063   0.365   6.749   3.609  0.3125  1.0496 -0.7527
13550TIP3   OH262064   2.905   6.118  16.700 -0.0736  0.5859 -0.3563
13550TIP3    H162065   2.914   6.024  16.714 -0.5645  0.5110 -0.4942
13550TIP3    H262066   2.952   6.135  16.619 -0.7223  0.2969 -0.8108
13551TIP3   OH262067   0.430   4.362   1.768 -0.2577 -0.3162  0.1908
13551TIP3    H162068   0.460   4.271   1.762 -0.8705 -0.6010  1.2119
13551TIP3    H262069   0.349   4.365   1.717  0.6140  0.0744 -1.2300
13552TIP3   OH262070   0.757   2.270  12.451  0.5046 -0.0025  0.2524
13552TIP3    H162071   0.728   2.267  12.360 -1.5902 -0.0923  0.8678
13552TIP3    H262072   0.853   2.273  12.446  0.4153  0.6988 -1.9499
13553TIP3   OH262073   2.107   1.278   0.004 -0.1983  0.2890 -0.2117
13553TIP3    H162074   2.202   1.278  -0.008 -0.1774  0.9304 -0.0633
13553TIP3    H262075   2.094   1.282   0.098 -0.3596  2.3049 -0.2828
13554TIP3   OH262076   2.205   5.914   1.548 -0.7310  0.1973 -0.1962
13554TIP3    H162077   2.164   5.839   1.591  0.8980 -0.7824 -0.2524
13554TIP3    H262078   2.140   5.943   1.484 -0.9685 -1.9763 -1.0436
13555TIP3   OH262079   2.400   6.486   1.063 -0.2453 -0.7877 -0.1537
13555TIP3    H162080   2.451   6.431   1.122  0.4551  0.1257  0.1158
13555TIP3    H262081   2.378   6.430   0.989 -0.9891 -1.9104  0.8768
13556TIP3   OH262082   6.633   4.748   3.324 -0.1744 -0.5248 -0.3001
13556TIP3    H162083   6.581   4.725   3.247 -1.1351  1.9947 -0.5057
13556TIP3    H262084   6.608   4.839   3.343  0.2330 -0.9650  2.8227
13557TIP3   OH262085   5.847   1.558  12.889 -0.1093  0.2730  0.2212
13557TIP3    H162086   5.783   1.627  12.902  1.3456  1.6513  0.3820
13557TIP3    H262087   5.859   1.554  12.794  0.2698  0.7119  0.2446
13558TIP3   OH262088   2.649   2.304   1.303 -0.5322 -0.0230 -0.0324
13558TIP3    H162089   2.704   2.226   1.297 -0.3053  0.1308  0.0869
13558TIP3    H262090   2.697   2.364   1.359 -1.1949 -0.2004  0.7397
13559TIP3   OH262091   1.890   5.114  11.164 -0.0346  0.3458  0.2597
13559TIP3    H162092   1.838   5.044  11.125  1.2594 -0.2144 -0.5267
13559TIP3    H262093   1.839   5.143  11.239 -1.2789 -0.4508 -0.2531
13560TIP3   OH262094   0.485   4.276  15.805 -0.0519 -0.0172  0.7777
13560TIP3    H162095   0.415   4.311  15.750 -0.2017 -0.7041  0.5255
13560TIP3    H262096   0.454   4.189  15.832  1.1344 -0.7871 -0.2048
13561TIP3   OH262097   4.630   4.558  15.435 -0.2710 -0.1105  0.3284
13561TIP3    H162098   4.702   4.525  15.382 -0.6857  1.5926 -1.4197
13561TIP3    H262099   4.625   4.651  15.413 -1.3732  0.3562  2.3464
13562TIP3   OH262100   2.338   5.244  15.834 -0.4448 -0.1354  0.1871
13562TIP3    H162101   2.245   5.267  15.841 -0.3977 -0.4202  2.3253
13562TIP3    H262102   2.357   5.252  15.740 -1.8586  2.8888  0.0174
13563TIP3   OH262103   0.676   6.314   4.512  0.1247 -0.2960  0.2051
13563TIP3    H162104   0.737   6.243   4.534 -0.1147 -0.2320  1.1030
13563TIP3    H262105   0.606   6.270   4.464  0.5709 -0.4702 -0.2948
13564TIP3   OH262106   3.312   6.439  14.133  0.2065  0.3198  0.0094
13564TIP3    H162107   3.294   6.358  14.084 -0.0123 -0.3241  1.1166
13564TIP3    H262108   3.400   6.425  14.168  0.2124  0.6189  0.1113
13565TIP3   OH262109   1.218   1.229   5.950  0.6046 -0.4686 -0.7471
13565TIP3    H162110   1.251   1.243   6.039 -0.1796 -0.7128 -0.4108
13565TIP3    H262111   1.296   1.204   5.900  1.0970 -0.0746 -0.1916
13566TIP3   OH262112   0.736   6.735   1.135  0.0055  0.2659  0.3455
13566TIP3    H162113   0.800   6.806   1.138 -0.6489  0.9705 -1.2703
13566TIP3    H262114   0.787   6.655   1.141  1.0218  0.8203 -0.6131
13567TIP3   OH262115   1.283   5.625   5.197  0.3787 -0.4285  0.0393
13567TIP3    H162116   1.264   5.603   5.288  0.6551 -0.8239  0.0056
13567TIP3    H262117   1.366   5.673   5.201  0.4236 -0.5026 -0.0114
13568TIP3   OH262118   5.429   3.891   3.485  0.7226  0.6893  0.2076
13568TIP3    H162119   5.367   3.858   3.420 -0.5177 -2.4974  2.7300
13568TIP3    H262120   5.387   3.970   3.519 -2.4028 -1.5604  2.1150
13569TIP3   OH262121   4.440   6.506   5.058  0.0072  0.1216 -0.7824
13569TIP3    H162122   4.346   6.525   5.060 -0.4716 -1.9889 -0.7526
13569TIP3    H262123   4.480   6.585   5.022 -1.9674  0.3963 -2.5328
13570TIP3   OH262124   0.699   6.531   1.864  0.3867 -0.1745 -0.0971
13570TIP3    H162125   0.714   6.618   1.901  0.1229 -0.3677  0.4806
13570TIP3    H262126   0.659   6.547   1.779 -0.1899  0.2626  0.2463
13571TIP3   OH262127   1.197   1.120   3.649 -0.0784  0.2889  0.0016
13571TIP3    H162128   1.138   1.117   3.574  0.8572 -1.4361 -0.7167
13571TIP3    H262129   1.262   1.051   3.632  1.9721  1.8717  0.8970
13572TIP3   OH262130   6.741   1.325   2.483  0.4467  0.2890  0.1140
13572TIP3    H162131   6.701   1.254   2.434  1.5049 -0.9026  0.9056
13572TIP3    H262132   6.826   1.291   2.510  0.5232  1.4480  1.4813
13573TIP3   OH262133   6.157   4.759  14.679  0.1278  0.4560  0.2933
13573TIP3    H162134   6.112   4.684  14.718  2.0726 -1.5661 -1.1500
13573TIP3    H262135   6.144   4.830  14.742 -1.4170 -1.1715  1.9275
13574TIP3   OH262136   1.915   1.898   2.031 -0.0456  0.5485 -0.0716
13574TIP3    H162137   1.980   1.962   2.060  0.0163  0.9475 -1.0522
13574TIP3    H262138   1.846   1.950   1.991 -2.3275  0.3603  3.2532
13575TIP3   OH262139   2.669   2.823  10.021  0.4718 -0.0907 -0.0440
13575TIP3    H162140   2.757   2.844  10.053  0.4242 -2.8325  2.3693
13575TIP3    H262141   2.633   2.767  10.090 -2.6475 -0.2088 -1.6471
13576TIP3   OH262142   2.435   3.405  16.597  0.2157 -0.1690  0.4671
13576TIP3    H162143   2.450   3.382  16.689 -1.0199  0.5392  0.8700
13576TIP3    H262144   2.475   3.333  16.548 -0.3840 -1.3162  1.5942
13577TIP3   OH262145   5.000   1.877  13.062 -0.3414  0.3991 -0.6617
13577TIP3    H162146   5.059   1.935  13.013  0.5081  0.3543  0.2904
13577TIP3    H262147   5.051   1.848  13.137 -2.0344  1.5502  1.0266
13578TIP3   OH262148   1.342   4.400   5.143 -0.1224  0.2122 -0.2911
13578TIP3    H162149   1.332   4.490   5.174 -0.0277 -0.2233  1.0400
13578TIP3    H262150   1.292   4.347   5.204  2.9985 -1.0600  1.3867
13579TIP3   OH262151   1.853   2.344   1.315  0.4791  0.6817 -0.1263
13579TIP3    H162152   1.831   2.363   1.224  1.7453 -0.1042 -0.6081
13579TIP3    H262153   1.813   2.259   1.332 -1.3392  1.6315  0.6568
13580TIP3   OH262154   3.163   5.838   5.918  0.4059 -0.1441  0.0832
13580TIP3    H162155   3.225   5.768   5.938 -0.5454 -1.4902 -1.3657
13580TIP3    H262156   3.082   5.810   5.961 -0.3004 -0.5688 -1.4701
13581TIP3   OH262157   3.657   0.097   3.140  0.0857  0.0364 -0.0357
13581TIP3    H162158   3.631   0.144   3.219  0.4089  1.0597 -0.5230
13581TIP3    H262159   3.584   0.111   3.079  0.6230  0.7417 -0.5215
13582TIP3   OH262160   4.783   5.786   0.983 -0.2763 -0.4168 -0.2487
13582TIP3    H162161   4.695   5.753   1.003 -0.4969 -0.3487 -1.0928
13582TIP3    H262162   4.828   5.712   0.943 -0.5065  0.0384 -1.3846
13583TIP3   OH262163   5.231   1.422   2.395  0.5951 -0.0282  0.0544
13583TIP3    H162164   5.267   1.334   2.405 -0.5150 -0.5612 -0.4167
13583TIP3    H262165   5.243   1.443   2.302  0.7663  0.2760  0.1436
13584TIP3   OH262166   0.902   3.425  13.786 -0.0912 -0.0066 -0.3036
13584TIP3    H162167   0.979   3.394  13.739 -0.0977  1.3148 -1.2337
13584TIP3    H262168   0.934   3.495  13.842 -0.3048 -0.7493  0.7803
13585TIP3   OH262169   1.201   1.237   3.214  0.0823 -0.3431 -0.0401
13585TIP3    H162170   1.127   1.189   3.250 -0.3413  0.2122 -0.1564
13585TIP3    H262171   1.245   1.276   3.290 -2.2726  2.9676 -0.1499
13586TIP3   OH262172   4.955   2.328   5.005  0.1860 -0.1267  0.4808
13586TIP3    H162173   4.896   2.331   5.080 -0.3050  2.5194  0.0889
13586TIP3    H262174   4.995   2.415   5.002  0.6244 -0.3289 -1.9896
13587TIP3   OH262175   6.561   5.090  16.548  0.3207 -0.1150 -0.0331
13587TIP3    H162176   6.565   4.995  16.536  0.5803 -0.1149  0.0591
13587TIP3    H262177   6.558   5.125  16.459  0.6512 -0.1916 -0.0767
13588TIP3   OH262178   6.467   1.521   5.269  0.0602  0.1698  0.2564
13588TIP3    H162179   6.462   1.546   5.177 -2.0675  0.1996  0.3101
13588TIP3    H262180   6.517   1.440   5.269  0.4300  0.3741 -0.8774
13589TIP3   OH262181   1.952   3.235  14.973  0.2396  0.4114  0.3964
13589TIP3    H162182   1.948   3.320  15.018  0.1918 -0.3390  1.8988
13589TIP3    H262183   1.863   3.201  14.979  0.5293 -0.2809  0.9398
13590TIP3   OH262184   6.614   5.555   4.776 -0.3919  0.1348 -0.1520
13590TIP3    H162185   6.553   5.623   4.749 -0.4848  0.3442  0.5634
13590TIP3    H262186   6.698   5.601   4.786 -0.0388 -0.2064 -1.4160
13591TIP3   OH262187   3.374   1.088  15.528 -0.1487 -0.0062  0.0269
13591TIP3    H162188   3.338   1.168  15.491  0.0253 -0.8994 -2.2169
13591TIP3    H262189   3.360   1.021  15.461  0.6965 -1.6319  1.3737
13592TIP3   OH262190   4.134   5.682   0.217  0.2146  0.2199 -0.3145
13592TIP3    H162191   4.150   5.628   0.139  0.1791  0.7455 -0.6895
13592TIP3    H262192   4.074   5.629   0.270  1.7460 -1.0018  0.2853
13593TIP3   OH262193   5.613   6.686   3.486  0.3187  0.0532 -0.0147
13593TIP3    H162194   5.543   6.620   3.488  0.4097 -0.0468 -0.0740
13593TIP3    H262195   5.675   6.656   3.553 -0.1791  0.6880  0.7466
13594TIP3   OH262196   3.586   1.769   0.642 -0.0149 -0.2627 -0.1696
13594TIP3    H162197   3.563   1.678   0.660  0.9367 -0.2715  1.1561
13594TIP3    H262198   3.680   1.766   0.622  0.3697  0.5924  1.3741
13595TIP3   OH262199   0.726   3.429   1.521  0.6227  0.4131  0.1672
13595TIP3    H162200   0.728   3.334   1.531 -1.1213  0.1066 -1.6591
13595TIP3    H262201   0.635   3.453   1.540  0.1364  1.1966 -2.6449
13596TIP3   OH262202   2.567   5.096  13.782  0.4040 -0.2979  0.2047
13596TIP3    H162203   2.503   5.025  13.779  0.7775 -0.6252 -0.1481
13596TIP3    H262204   2.632   5.073  13.716 -0.3832  1.2546 -1.1946
13597TIP3   OH262205   4.691   2.416  14.351 -0.1163 -0.0636 -0.4324
13597TIP3    H162206   4.767   2.399  14.295  2.1757 -0.4382  2.5334
13597TIP3    H262207   4.725   2.410  14.441 -3.2948  1.5224  1.0633
13598TIP3   OH262208   0.157   5.623   4.425 -0.3227 -0.2834  0.5617
13598TIP3    H162209   0.225   5.625   4.358  0.4675 -2.1119  1.2168
13598TIP3    H262210   0.119   5.710   4.424  1.6890  0.6492 -0.2010
13599TIP3   OH262211   6.626   1.230  14.426 -0.3207  0.1820 -0.4364
13599TIP3    H162212   6.535   1.219  14.452 -0.2245  0.2396 -0.0617
13599TIP3    H262213   6.640   1.325  14.425  0.1012  0.1557  0.8507
13600TIP3   OH262214   6.705   5.663  11.563  0.2336  0.3117  0.4034
13600TIP3    H162215   6.771   5.628  11.624 -1.8868 -1.5726  1.7675
13600TIP3    H262216   6.643   5.710  11.619 -1.2703 -0.6771 -0.3669
13601TIP3   OH262217   3.370   4.882   3.816 -0.0705 -0.1203 -0.0158
13601TIP3    H162218   3.327   4.804   3.781  1.8183 -2.1005  1.8189
13601TIP3    H262219   3.455   4.885   3.773  0.7492 -0.4006  1.4961
13602TIP3   OH262220   3.391   6.733  12.164 -0.5047  0.0735 -0.2952
13602TIP3    H162221   3.413   6.774  12.081  0.5724  1.2283  0.5150
13602TIP3    H262222   3.468   6.682  12.188 -0.6040  0.1636  0.2408
13603TIP3   OH262223   3.372   1.994  11.767  0.1821 -0.0662 -0.9380
13603TIP3    H162224   3.462   2.013  11.793  0.3462 -1.3446 -0.5073
13603TIP3    H262225   3.331   1.957  11.845 -0.8186  0.7449 -1.0416
13604TIP3   OH262226   3.559   0.244   4.497 -0.1499 -0.3844  0.0264
13604TIP3    H162227   3.478   0.272   4.540  1.9451  3.0307  2.3053
13604TIP3    H262228   3.571   0.307   4.426  0.9820 -0.1875  0.3757
13605TIP3   OH262229   0.153   4.086   3.389 -0.5198  0.4350  0.3066
13605TIP3    H162230   0.220   4.153   3.374  0.4852 -0.3158  1.3310
13605TIP3    H262231   0.111   4.113   3.471  0.4988 -0.6369  1.2158
13606TIP3   OH262232   2.144   3.651   4.271  0.1041 -0.2555  0.4847
13606TIP3    H162233   2.105   3.572   4.309  0.6442 -0.7261  0.0757
13606TIP3    H262234   2.192   3.691   4.344 -0.6458  0.0086  0.8383
13607TIP3   OH262235   6.368   1.908  15.161 -0.0474 -0.2479  0.1382
13607TIP3    H162236   6.440   1.920  15.222  0.8587  1.5049 -1.1705
13607TIP3    H262237   6.402   1.849  15.094 -0.2220 -0.2901  0.0847
13608TIP3   OH262238   4.934   1.060  14.398 -0.4344 -0.3234  0.1048
13608TIP3    H162239   4.842   1.037  14.383 -0.5298  0.8826 -1.4985
13608TIP3    H262240   4.943   1.147  14.359  2.0470 -1.5473 -2.3955
13609TIP3   OH262241   5.347   1.185   2.471  0.5438 -0.7860  0.7339
13609TIP3    H162242   5.280   1.140   2.521  0.3701 -0.5052  0.7602
13609TIP3    H262243   5.387   1.246   2.534  0.3442 -0.4539  0.5422
13610TIP3   OH262244   1.890   5.281  16.387  0.0549  0.2781 -0.8927
13610TIP3    H162245   1.947   5.347  16.427  0.7711 -0.2714 -0.9774
13610TIP3    H262246   1.950   5.211  16.359 -0.6495 -0.2563 -1.1107
13611TIP3   OH262247   3.792   4.948  11.808  0.0830  0.2900  0.2116
13611TIP3    H162248   3.782   4.868  11.859  0.5635  0.9524  1.3681
13611TIP3    H262249   3.749   4.928  11.724 -3.2499  0.1129  1.7982
13612TIP3   OH262250   0.068   2.203   1.264 -0.2466 -0.1024  0.1934
13612TIP3    H162251   0.003   2.273   1.262  0.0817  0.1891 -1.1466
13612TIP3    H262252   0.047   2.153   1.343  0.2689  2.2254  1.9070
13613TIP3   OH262253   1.764   6.259   6.308  0.1024  0.4318 -0.8755
13613TIP3    H162254   1.845   6.238   6.355  0.9441  2.0004 -1.5585
13613TIP3    H262255   1.721   6.324   6.363  1.2219  2.4850 -2.3020
13614TIP3   OH262256   1.578   1.246  12.196 -0.1688  0.0542  0.2915
13614TIP3    H162257   1.564   1.309  12.125 -0.7447 -0.7277 -0.3032
13614TIP3    H262258   1.563   1.297  12.276  3.9742  1.9367  0.1386
13615TIP3   OH262259   3.424   6.641   0.498 -0.3007  0.1772  0.3360
13615TIP3    H162260   3.443   6.566   0.442  0.7569  0.0549  0.8252
13615TIP3    H262261   3.464   6.716   0.454 -1.7720  0.5631 -0.3964
13616TIP3   OH262262   6.220   2.818   1.030 -0.0994 -0.0073  0.2535
13616TIP3    H162263   6.210   2.912   1.044  0.9384  0.5170 -2.0064
13616TIP3    H262264   6.313   2.807   1.009  0.2017 -1.8361  2.1950
13617TIP3   OH262265   3.627   0.617   4.592 -0.1384 -0.4536 -0.0902
13617TIP3    H162266   3.667   0.691   4.546  1.2036 -0.6538  0.6885
13617TIP3    H262267   3.536   0.643   4.605  0.3823  1.2284  0.4790
13618TIP3   OH262268   5.843   2.544  14.799  0.6285  0.0749 -0.0672
13618TIP3    H162269   5.755   2.534  14.834  0.6108  0.1246 -0.0966
13618TIP3    H262270   5.885   2.459  14.814  0.6558  0.1309  0.1702
13619TIP3   OH262271   1.221   6.468   5.488 -0.2899 -0.5331  0.3768
13619TIP3    H162272   1.126   6.476   5.495 -0.3486 -0.7521 -0.0744
13619TIP3    H262273   1.253   6.558   5.487 -0.6661 -0.3686 -1.4301
13620TIP3   OH262274   0.106   5.509  14.489 -0.1130 -0.9974 -0.1031
13620TIP3    H162275   0.137   5.567  14.559  0.6861 -0.0623 -1.1970
13620TIP3    H262276   0.176   5.510  14.424 -0.8634 -1.8041 -0.9508
13621TIP3   OH262277   0.594   6.574   4.532 -0.1043  0.5302  0.7915
13621TIP3    H162278   0.634   6.490   4.507 -0.2113  0.3992  1.0552
13621TIP3    H262279   0.573   6.564   4.625 -0.4925  0.7020  0.7233
13622TIP3   OH262280   4.740   6.133   1.450 -0.3429  0.0695 -0.3803
13622TIP3    H162281   4.808   6.066   1.456 -0.1227  0.3194 -0.0183
13622TIP3    H262282   4.658   6.084   1.456 -0.1886 -0.1948 -0.4141
13623TIP3   OH262283   3.187   0.227  16.242 -0.6912  0.3507  0.4983
13623TIP3    H162284   3.251   0.223  16.171  0.6472  2.2132  1.5087
13623TIP3    H262285   3.122   0.289  16.212 -2.6432 -2.2060 -0.9106
13624TIP3   OH262286   3.295   3.002  16.817 -0.1690 -0.2280  0.0653
13624TIP3    H162287   3.320   2.959  16.899  0.4170  1.7023  0.9584
13624TIP3    H262288   3.199   2.994  16.815 -0.0716 -1.7934  0.0195
13625TIP3   OH262289   5.143   4.757  15.690  0.2569  0.2083 -0.4782
13625TIP3    H162290   5.132   4.805  15.772  0.8085  1.0136 -0.8594
13625TIP3    H262291   5.087   4.803  15.627  0.0429 -0.2409 -0.6209
13626TIP3   OH262292   6.067   5.664   1.103 -0.4992 -0.8946 -0.2305
13626TIP3    H162293   6.052   5.747   1.057  0.9538  1.0493  2.5300
13626TIP3    H262294   6.000   5.662   1.172  1.8373  0.0865  2.2343
13627TIP3   OH262295   4.411   6.448  16.968  0.2284 -0.0201 -0.0977
13627TIP3    H162296   4.485   6.507  16.980 -0.2549  0.3953  0.9326
13627TIP3    H262297   4.344   6.481  17.028  0.7938 -3.0826  2.4530
13628TIP3   OH262298   6.268   5.185  14.771  0.1225 -0.6062 -0.1395
13628TIP3    H162299   6.362   5.181  14.792  0.8979 -1.1272 -3.2208
13628TIP3    H262300   6.257   5.271  14.729 -0.7221 -0.6677 -0.0507
13629TIP3   OH262301   1.213   4.840   3.907 -1.2017 -0.5722  0.1663
13629TIP3    H162302   1.223   4.744   3.905  0.5851 -0.4554  1.1668
13629TIP3    H262303   1.135   4.857   3.855 -0.0550 -2.3908 -2.3619
13630TIP3   OH262304   2.826   5.620   1.953 -0.2545 -0.0283 -0.1512
13630TIP3    H162305   2.880   5.691   1.988  0.6151  0.0880 -1.6122
13630TIP3    H262306   2.768   5.663   1.890 -2.2827 -0.1232  1.5453
13631TIP3   OH262307   3.384   5.046   5.932  0.0839 -0.5307 -0.3484
13631TIP3    H162308   3.302   5.063   5.978  0.5952 -1.6784  1.0998
13631TIP3    H262309   3.367   4.967   5.880  0.4552 -1.2230  0.5507
13632TIP3   OH262310   5.558   3.638  16.172  0.0164 -0.4077 -0.5681
13632TIP3    H162311   5.488   3.618  16.235  1.2750  0.9968  1.4074
13632TIP3    H262312   5.536   3.724  16.138  0.1984 -0.4657 -0.8395
13633TIP3   OH262313   4.269   4.274  11.681 -0.0748 -0.0337  0.2778
13633TIP3    H162314   4.296   4.255  11.591  2.9495  2.8895  0.4000
13633TIP3    H262315   4.331   4.226  11.735 -0.2040  0.3342  0.7528
13634TIP3   OH262316   6.395   1.963  13.618 -0.0884 -0.7334  0.2781
13634TIP3    H162317   6.309   2.006  13.611  0.0604 -0.4681  0.0858
13634TIP3    H262318   6.389   1.913  13.699  0.0892  0.4655  1.0681
13635TIP3   OH262319   2.097   0.747  12.244 -0.3606  0.7601 -0.2347
13635TIP3    H162320   2.143   0.689  12.182  0.4289 -0.4943  1.4362
13635TIP3    H262321   2.167   0.800  12.284 -0.8607  1.5680 -0.4137
13636TIP3   OH262322   2.436   2.093   1.792 -0.1869  0.0980 -0.5028
13636TIP3    H162323   2.513   2.069   1.741 -0.8936  0.3559 -1.7291
13636TIP3    H262324   2.380   2.015   1.791 -0.3329  0.1981 -0.3444
13637TIP3   OH262325   5.747   4.226  14.380  0.5602  0.4095  0.0891
13637TIP3    H162326   5.657   4.195  14.380 -0.2373  2.5917  0.4087
13637TIP3    H262327   5.764   4.250  14.289 -0.0938  2.3692  0.4425
13638TIP3   OH262328   1.439   4.970   3.688 -0.2231  0.1353 -0.1134
13638TIP3    H162329   1.493   4.960   3.610 -1.0191  0.7131 -0.7593
13638TIP3    H262330   1.349   4.960   3.656 -0.4924 -2.3212  1.1845
13639TIP3   OH262331   5.906   4.454   0.281  0.4429 -0.1363  0.2567
13639TIP3    H162332   5.964   4.386   0.248  1.1828  1.3380 -1.6750
13639TIP3    H262333   5.820   4.431   0.246  0.9209  0.5254 -1.4769
13640TIP3   OH262334   3.277   2.411  15.024  0.0658  0.2262 -0.1874
13640TIP3    H162335   3.294   2.465  14.947 -1.4641  0.0813 -0.6585
13640TIP3    H262336   3.186   2.431  15.047  0.3699 -0.0370  1.3451
13641TIP3   OH262337   1.092   6.335  13.201  0.4772  0.1599  0.0579
13641TIP3    H162338   1.143   6.415  13.218  0.1917  0.3178  0.1711
13641TIP3    H262339   1.138   6.267  13.251  1.7398 -0.1197 -1.4112
13642TIP3   OH262340   2.080   0.550  13.942  0.1071  0.0054  0.7777
13642TIP3    H162341   2.163   0.533  13.897 -0.1329 -0.5488  0.5498
13642TIP3    H262342   2.102   0.619  14.005  1.2819 -1.6235  2.2687
13643TIP3   OH262343   3.829   4.799   2.795 -0.3020 -0.1991 -0.0692
13643TIP3    H162344   3.911   4.832   2.757 -0.3835 -1.1320 -1.1275
13643TIP3    H262345   3.760   4.839   2.742 -0.4115 -1.7107 -1.1413
13644TIP3   OH262346   3.462   0.374   3.124  0.5136 -0.5026  0.1548
13644TIP3    H162347   3.423   0.361   3.210 -1.5360 -0.2924 -0.6832
13644TIP3    H262348   3.387   0.386   3.065  1.7838 -1.7476 -1.8528
13645TIP3   OH262349   6.451   1.948  11.254  0.1077  0.4481 -0.5914
13645TIP3    H162350   6.399   1.906  11.321  1.7015 -1.3492 -0.4070
13645TIP3    H262351   6.390   2.007  11.209 -1.1931  1.0689  1.8309
13646TIP3   OH262352   4.869   1.059   2.238  0.4243 -0.1814  0.5154
13646TIP3    H162353   4.884   1.036   2.330  0.1914  1.4626  0.9891
13646TIP3    H262354   4.956   1.054   2.198  0.6799  0.0085  1.0325
13647TIP3   OH262355   5.133   2.740   2.005 -0.0411  0.0224 -0.0128
13647TIP3    H162356   5.177   2.660   2.035 -0.7380 -0.7869 -1.0528
13647TIP3    H262357   5.043   2.730   2.036 -0.4978 -0.3195 -1.3774
13648TIP3   OH262358   4.647   6.777   1.452 -0.4904 -0.4777  0.0280
13648TIP3    H162359   4.717   6.840   1.436  0.6319 -1.7348 -0.2885
13648TIP3    H262360   4.620   6.793   1.542 -0.0412  0.2760  0.0381
13649TIP3   OH262361   5.421   6.122   1.626  0.4157  0.5310  0.1476
13649TIP3    H162362   5.367   6.156   1.698  0.3077 -0.8705  0.7548
13649TIP3    H262363   5.467   6.048   1.664  1.1719  0.4239 -0.9575
13650TIP3   OH262364   2.980   1.829  15.473 -0.0971 -0.5540 -0.1702
13650TIP3    H162365   2.966   1.746  15.518  0.1297 -0.7247 -0.4108
13650TIP3    H262366   2.947   1.814  15.384  0.4495 -0.5641 -0.3761
13651TIP3   OH262367   5.332   1.085  13.935  0.7556  0.4998  0.1376
13651TIP3    H162368   5.381   1.032  13.872 -1.1659 -1.0707 -0.1080
13651TIP3    H262369   5.257   1.117  13.885  1.3532  2.7396  0.5499
13652TIP3   OH262370   3.953   0.089  11.491 -0.5062 -0.3190 -0.4028
13652TIP3    H162371   3.907   0.124  11.414 -0.5952 -0.6269 -0.4931
13652TIP3    H262372   3.902   0.011  11.516  0.2247 -0.9329 -0.7823
13653TIP3   OH262373   5.306   1.501  11.166  0.3385 -0.6119 -0.2408
13653TIP3    H162374   5.237   1.547  11.213  1.5100  2.1693 -1.0046
13653TIP3    H262375   5.291   1.522  11.074  2.8078  1.1080 -0.3322
13654TIP3   OH262376   6.213   3.856  13.687 -0.0471  0.4545 -0.4121
13654TIP3    H162377   6.281   3.916  13.655 -0.4119  0.4883 -1.1413
13654TIP3    H262378   6.131   3.898  13.662 -0.2963 -0.8665 -1.9044
13655TIP3   OH262379   2.533   6.764   1.076 -0.2018 -0.0925 -0.3034
13655TIP3    H162380   2.625   6.753   1.050 -0.7365  0.0327 -2.4167
13655TIP3    H262381   2.498   6.675   1.077 -0.6167  0.0237 -1.8711
13656TIP3   OH262382   5.541   3.389  11.997  0.5615 -0.9784 -0.0270
13656TIP3    H162383   5.605   3.424  11.935 -0.9198 -1.9547 -2.2264
13656TIP3    H262384   5.458   3.393  11.951 -0.9384 -0.3107  2.5104
13657TIP3   OH262385   2.983   5.954  14.019 -0.6301 -0.0998 -0.1915
13657TIP3    H162386   2.922   5.881  14.019 -2.4615  1.3342  1.1999
13657TIP3    H262387   2.942   6.020  13.963  0.6289  0.1879 -0.8301
13658TIP3   OH262388   0.645   5.015  16.061  0.3763  0.4192  0.2416
13658TIP3    H162389   0.735   5.035  16.034  0.4121  0.0781  0.1022
13658TIP3    H262390   0.651   4.929  16.103  0.0886  0.3146  0.0731
13659TIP3   OH262391   0.046   2.817  16.977 -0.6105  0.1863  0.4701
13659TIP3    H162392   0.137   2.824  16.946 -1.2505  0.6581 -1.4473
13659TIP3    H262393   0.037   2.726  17.005  0.4790  0.1642  0.8003
13660TIP3   OH262394   2.930   3.684  13.940 -0.3866 -0.4490 -0.4033
13660TIP3    H162395   2.930   3.694  14.035 -1.1658  0.7425 -0.4982
13660TIP3    H262396   2.856   3.626  13.922 -0.4771 -0.3640 -0.3050
13661TIP3   OH262397   1.133   4.548  11.075  0.0921  0.2187 -0.6862
13661TIP3    H162398   1.085   4.477  11.117  0.8128 -0.0826 -0.3555
13661TIP3    H262399   1.196   4.504  11.019 -0.0047  0.6118 -1.1131
13662TIP3   OH262400   5.501   4.427  14.419  0.1684 -0.1955 -0.4458
13662TIP3    H162401   5.502   4.334  14.442  0.4445  0.1345  0.9875
13662TIP3    H262402   5.415   4.458  14.449  0.4957  0.2250  0.0907
13663TIP3   OH262403   2.835   6.388  14.731  0.2422 -0.1011  0.1318
13663TIP3    H162404   2.836   6.363  14.638 -0.2893  0.0945  0.0702
13663TIP3    H262405   2.804   6.479  14.730  1.0592  0.1946  0.4365
13664TIP3   OH262406   1.442   3.458   2.370  0.1320  0.2796  0.3212
13664TIP3    H162407   1.425   3.519   2.441  1.3360  1.6589 -0.5232
13664TIP3    H262408   1.356   3.442   2.330 -0.6549 -0.9519  2.3480
13665TIP3   OH262409   2.085   6.350   0.592 -0.5473  0.2819  0.1738
13665TIP3    H162410   2.058   6.289   0.523  0.7222 -1.4096  1.0855
13665TIP3    H262411   2.181   6.343   0.594 -0.0996  3.8793 -1.0097
13666TIP3   OH262412   5.659   5.395   6.242 -0.7234  0.1049  0.3341
13666TIP3    H162413   5.727   5.390   6.309 -0.8483 -2.6934  0.3484
13666TIP3    H262414   5.650   5.306   6.210 -3.6738  0.5708 -0.4094
13667TIP3   OH262415   1.052   3.658  15.326  0.2830  0.1913  0.1598
13667TIP3    H162416   1.114   3.639  15.256 -0.9547 -1.2879 -0.5920
13667TIP3    H262417   1.084   3.608  15.401  1.2934  1.3257  0.5083
13668TIP3   OH262418   6.423   2.502   5.050  0.0246  0.2257 -0.3568
13668TIP3    H162419   6.505   2.528   5.009  0.7766 -1.2468  0.1572
13668TIP3    H262420   6.382   2.441   4.989 -0.3396  0.3823 -0.2773
13669TIP3   OH262421   5.985   6.501   0.969  0.3781  0.2184  0.2282
13669TIP3    H162422   6.049   6.488   1.039  0.3327 -0.5700  0.1320
13669TIP3    H262423   5.901   6.478   1.009  0.2728  0.3493  0.0840
13670TIP3   OH262424   4.169   1.618   0.717  0.3941 -0.3513 -0.3232
13670TIP3    H162425   4.215   1.659   0.643  0.1976 -0.4446 -0.4981
13670TIP3    H262426   4.183   1.679   0.790 -0.9030  0.6441 -0.8743
13671TIP3   OH262427   2.707   4.712   6.704  0.0950  0.0364 -0.4115
13671TIP3    H162428   2.796   4.738   6.727  0.2387 -0.9297  0.1956
13671TIP3    H262429   2.657   4.793   6.709  0.4575  0.2063  1.7331
13672TIP3   OH262430   1.750   4.316  15.354 -0.3625 -0.2339 -0.2827
13672TIP3    H162431   1.830   4.266  15.334 -0.3841  0.5183 -2.4815
13672TIP3    H262432   1.685   4.284  15.291 -2.4624 -2.1304  2.6153
13673TIP3   OH262433   1.433   5.100   3.042  0.5358  0.4782 -0.5778
13673TIP3    H162434   1.424   5.024   3.099 -0.6141 -0.3018 -1.7485
13673TIP3    H262435   1.467   5.169   3.099  1.2683 -0.8008  0.5927
13674TIP3   OH262436   2.149   2.458  11.012  0.8578  0.1515 -0.2879
13674TIP3    H162437   2.063   2.461  11.053  1.3875  0.5396  0.8319
13674TIP3    H262438   2.150   2.533  10.952  0.7637  0.7438  0.4352
13675TIP3   OH262439   2.883   0.960   5.815 -0.0326 -0.2147  0.1297
13675TIP3    H162440   2.928   1.039   5.844  2.1325 -0.5752 -1.9403
13675TIP3    H262441   2.886   0.901   5.890  0.2307  0.8841  1.0038
13676TIP3   OH262442   5.374   3.326  15.289  1.0184 -0.0291  0.0315
13676TIP3    H162443   5.351   3.409  15.247  1.0341 -0.2533 -0.4262
13676TIP3    H262444   5.440   3.288  15.231  1.5457 -0.0276  0.6156
13677TIP3   OH262445   0.352   4.672  15.043  0.2507  0.3265  0.0165
13677TIP3    H162446   0.340   4.686  15.137  2.8867 -0.2305  0.4920
13677TIP3    H262447   0.332   4.579  15.030 -0.9170  0.5817 -0.1689
13678TIP3   OH262448   0.730   3.155  14.187  0.1737 -0.1695  0.2392
13678TIP3    H162449   0.690   3.155  14.099 -0.3650 -1.4632  0.4575
13678TIP3    H262450   0.817   3.192  14.173  0.8485 -2.1035 -1.2340
13679TIP3   OH262451   1.594   1.015   0.137  0.3684 -0.0202  0.4179
13679TIP3    H162452   1.591   1.097   0.087  0.3502 -0.4672 -0.3276
13679TIP3    H262453   1.635   0.952   0.079 -3.5949 -1.7572 -0.8949
13680TIP3   OH262454   4.547   6.502  14.754  0.0507 -0.7890 -0.2972
13680TIP3    H162455   4.484   6.498  14.826 -0.7441 -2.8540 -1.0288
13680TIP3    H262456   4.630   6.525  14.796 -0.8544  0.5076  0.8976
13681TIP3   OH262457   5.702   2.152   5.144  0.6085  0.0045  0.1053
13681TIP3    H162458   5.617   2.190   5.124  1.0226  0.1916 -1.3678
13681TIP3    H262459   5.728   2.194   5.226 -1.5606 -1.4919  1.6720
13682TIP3   OH262460   3.980   0.543   1.203 -0.7776  0.1714  0.6930
13682TIP3    H162461   3.973   0.570   1.112 -1.1872 -1.2296  0.2956
13682TIP3    H262462   4.074   0.546   1.222 -0.6268 -0.1963  0.0185
13683TIP3   OH262463   5.089   3.646   5.361  0.0503 -0.4243 -0.3280
13683TIP3    H162464   5.069   3.673   5.272  2.5946  0.2167 -0.7873
13683TIP3    H262465   5.140   3.565   5.350 -0.2971 -0.7733  0.5836
13684TIP3   OH262466   1.318   3.543   3.672 -0.5799  0.2893 -0.6049
13684TIP3    H162467   1.398   3.543   3.620 -0.4712 -0.4412 -0.4543
13684TIP3    H262468   1.291   3.635   3.676  0.4753  0.5918 -0.3057
13685TIP3   OH262469   3.413   6.434   0.315  0.1836 -0.1106  0.4617
13685TIP3    H162470   3.430   6.370   0.246  1.1436  0.4922  0.1176
13685TIP3    H262471   3.366   6.506   0.271 -1.9367 -1.0247  1.0710
13686TIP3   OH262472   6.035   3.162   0.350  0.3528  0.4007 -0.0520
13686TIP3    H162473   5.954   3.198   0.388 -0.0160 -0.0891 -0.3561
13686TIP3    H262474   6.022   3.067   0.351  1.0698  0.2992  0.2016
13687TIP3   OH262475   5.384   4.906   2.361  0.4322 -0.4356  0.0020
13687TIP3    H162476   5.377   4.996   2.394  3.1574 -0.6704  1.5354
13687TIP3    H262477   5.345   4.852   2.429  2.8574 -0.6582  1.3184
13688TIP3   OH262478   2.353   2.336   2.881  0.0300 -0.0140  0.1092
13688TIP3    H162479   2.282   2.372   2.828  2.0917  2.1133 -1.4831
13688TIP3    H262480   2.408   2.289   2.818 -0.7376 -3.1841  1.5967
13689TIP3   OH262481   3.466   5.513   6.313 -0.1666 -0.4492 -0.0254
13689TIP3    H162482   3.506   5.481   6.394 -0.0867 -0.1793  0.0431
13689TIP3    H262483   3.412   5.587   6.340 -1.4699 -1.3838  0.0212
13690TIP3   OH262484   1.296   5.014   1.288  0.3892  0.0619 -0.1765
13690TIP3    H162485   1.352   4.989   1.362 -0.9422  0.3369  0.9611
13690TIP3    H262486   1.352   5.068   1.232  1.4318 -0.1842  0.6085
13691TIP3   OH262487   0.653   0.503  14.414 -0.2071 -0.2393 -0.2155
13691TIP3    H162488   0.685   0.469  14.331 -0.3876  1.0344 -0.8300
13691TIP3    H262489   0.732   0.517  14.467 -0.1436 -1.8116  0.1630
13692TIP3   OH262490   5.108   6.424  15.449 -0.0182  0.5797  0.4096
13692TIP3    H162491   5.039   6.400  15.511 -0.6299  0.3040 -0.3627
13692TIP3    H262492   5.157   6.342  15.435 -0.0743  0.5682  0.2837
13693TIP3   OH262493   4.593   0.169   0.960 -0.2705 -0.2613  0.2165
13693TIP3    H162494   4.500   0.156   0.938 -0.9378  2.6066  0.9725
13693TIP3    H262495   4.614   0.095   1.018 -2.1997 -0.7539  0.3590
13694TIP3   OH262496   2.803   0.583   1.341  0.3763 -0.4059  0.0067
13694TIP3    H162497   2.810   0.488   1.349 -2.3467 -0.6737  0.1439
13694TIP3    H262498   2.822   0.601   1.249 -1.4090 -1.4304 -0.6108
13695TIP3   OH262499   5.535   2.611  14.774 -0.3031 -0.1557  0.5604
13695TIP3    H162500   5.444   2.592  14.753 -0.3530 -1.0874  1.5679
13695TIP3    H262501   5.536   2.629  14.868  0.3590  1.1845  0.3342
13696TIP3   OH262502   2.219   6.350  13.003  0.2658 -0.8761 -0.2855
13696TIP3    H162503   2.248   6.264  12.972 -1.2814 -1.7960  0.6771
13696TIP3    H262504   2.210   6.340  13.097 -1.0708 -0.0322 -0.2968
13697TIP3   OH262505   3.149   0.313   3.916 -0.7610  0.2369  0.0039
13697TIP3    H162506   3.084   0.380   3.899 -1.5562 -0.2807  0.9032
13697TIP3    H262507   3.166   0.319   4.010 -2.8932 -2.5602  0.7011
13698TIP3   OH262508   6.739   3.671   2.837  0.4506 -0.1820  0.8430
13698TIP3    H162509   6.747   3.613   2.913 -0.3604 -0.8030  0.4771
13698TIP3    H262510   6.765   3.757   2.869 -0.5471 -0.2888  2.0227
13699TIP3   OH262511   5.720   3.865  10.943 -0.2274 -0.0741 -0.0820
13699TIP3    H162512   5.725   3.949  10.898  1.4463  0.0276  0.2072
13699TIP3    H262513   5.784   3.810  10.897  0.4842 -0.4060  1.2619
13700TIP3   OH262514   2.758   3.527  12.371  0.4665  0.1075 -0.2718
13700TIP3    H162515   2.728   3.461  12.308 -0.7839 -0.4408  0.8380
13700TIP3    H262516   2.717   3.501  12.454  1.3708  1.2943  0.5797
13701TIP3   OH262517   0.070   0.667   2.551 -0.3358 -0.0112 -0.2116
13701TIP3    H162518   0.067   0.622   2.467  0.5236 -1.3407  0.4375
13701TIP3    H262519   0.139   0.623   2.600 -0.5723  0.9641  1.0742
13702TIP3   OH262520   6.678   5.947  13.421 -0.6032  0.1957  0.5932
13702TIP3    H162521   6.745   5.930  13.355 -0.9437  1.4316 -0.1207
13702TIP3    H262522   6.656   5.861  13.456  0.1166 -0.4172 -0.4017
13703TIP3   OH262523   1.703   1.202   2.007  0.0796 -0.2437 -0.3349
13703TIP3    H162524   1.657   1.245   2.079  0.4767 -0.1290 -0.1503
13703TIP3    H262525   1.776   1.260   1.987  1.9838 -1.8817  1.4244
13704TIP3   OH262526   1.420   1.160  12.774  0.1276 -0.1934 -0.2230
13704TIP3    H162527   1.348   1.128  12.829  1.3121 -2.2099  0.2435
13704TIP3    H262528   1.431   1.251  12.800 -0.3892 -0.6478  1.7568
13705TIP3   OH262529   5.945   4.431  13.517  0.5382 -0.4852 -0.4409
13705TIP3    H162530   5.900   4.397  13.595  0.9279  0.2051  0.1021
13705TIP3    H262531   5.891   4.505  13.489  1.9557  1.1969  1.0019
13706TIP3   OH262532   3.220   3.956  13.474 -0.0352 -0.2430 -0.7822
13706TIP3    H162533   3.227   3.952  13.379 -0.7119  0.2372 -0.8536
13706TIP3    H262534   3.290   4.015  13.501 -0.6909  0.7051 -1.1041
13707TIP3   OH262535   2.884   4.775  13.797 -0.4760 -0.2434  0.2877
13707TIP3    H162536   2.789   4.768  13.812 -1.1912  2.3991 -2.2174
13707TIP3    H262537   2.909   4.689  13.762 -2.1488 -0.6212 -0.0697
13708TIP3   OH262538   4.335   1.537   2.109 -0.4393  0.1521  0.4506
13708TIP3    H162539   4.295   1.463   2.155 -2.1152  1.1279  0.6315
13708TIP3    H262540   4.354   1.503   2.021 -2.8718 -0.0488 -0.0650
13709TIP3   OH262541   4.180   3.655  16.053  0.3309 -0.0879 -0.1071
13709TIP3    H162542   4.227   3.678  15.973  1.6495 -0.3212  0.5603
13709TIP3    H262543   4.177   3.559  16.052  2.9844 -0.3013  1.4652
13710TIP3   OH262544   6.525   0.844  16.289 -0.1105 -0.1070 -0.1429
13710TIP3    H162545   6.594   0.908  16.272  1.0055 -1.0504  0.6586
13710TIP3    H262546   6.545   0.810  16.376 -1.4477 -0.5980 -0.0043
13711TIP3   OH262547   0.617   1.821  16.131  0.0486  0.8847 -0.3623
13711TIP3    H162548   0.568   1.872  16.067 -0.5003 -0.7476 -1.3015
13711TIP3    H262549   0.552   1.793  16.195 -0.1085 -0.4060 -1.0412
13712TIP3   OH262550   5.014   3.753  13.858 -0.7405  0.4875 -0.7842
13712TIP3    H162551   4.969   3.671  13.836  0.6713 -0.6713  0.4412
13712TIP3    H262552   4.964   3.789  13.931  1.4662 -2.0475  2.2532
13713TIP3   OH262553   0.448   3.064  16.532 -0.0715 -0.1357 -0.1554
13713TIP3    H162554   0.379   3.128  16.551  0.3481  0.5352 -0.8550
13713TIP3    H262555   0.501   3.105  16.464 -0.8656 -1.9794 -1.9904
13714TIP3   OH262556   1.853   6.263   5.108 -0.2604  0.2128  0.0450
13714TIP3    H162557   1.936   6.308   5.095  0.0195 -1.0455 -3.7121
13714TIP3    H262558   1.786   6.331   5.097  0.2221  0.6228 -0.3761
13715TIP3   OH262559   6.110   6.541  12.244 -0.5581 -0.8276 -0.0488
13715TIP3    H162560   6.070   6.543  12.331 -0.0048 -1.4428  0.2314
13715TIP3    H262561   6.084   6.457  12.207 -1.3460 -0.2812 -0.7575
13716TIP3   OH262562   4.822   6.456  16.878  0.2089 -0.0836 -0.0744
13716TIP3    H162563   4.761   6.420  16.943 -0.4970  0.5454 -0.3701
13716TIP3    H262564   4.818   6.393  16.806 -2.1117  1.2095 -1.1888
13717TIP3   OH262565   0.645   3.409  16.697 -0.2242  0.1502 -0.2633
13717TIP3    H162566   0.619   3.333  16.749 -0.9763  0.5033 -0.1068
13717TIP3    H262567   0.690   3.372  16.621  0.0365 -0.4148  0.1590
13718TIP3   OH262568   6.276   3.976   0.831 -0.0986  0.5228  0.1470
13718TIP3    H162569   6.345   3.952   0.894 -0.3326  1.3876  0.7458
13718TIP3    H262570   6.314   3.955   0.746  0.1053 -0.9694  0.5710
13719TIP3   OH262571   6.273   2.896  11.738 -0.0066 -0.5563  0.3064
13719TIP3    H162572   6.335   2.844  11.788 -0.5950 -1.4597  0.1176
13719TIP3    H262573   6.187   2.867  11.769 -0.3587 -0.3758 -0.4705
13720TIP3   OH262574   2.234   1.026  10.566 -0.0232  0.1070  0.0293
13720TIP3    H162575   2.241   0.939  10.607  0.2244  0.8390  1.5990
13720TIP3    H262576   2.151   1.060  10.598  0.2853  0.7878  0.1130
13721TIP3   OH262577   1.727   4.420  13.039 -0.3585 -0.0991 -0.0103
13721TIP3    H162578   1.695   4.364  12.969 -2.4425  0.9858 -0.0011
13721TIP3    H262579   1.708   4.372  13.120  0.8919 -0.7840 -0.0880
13722TIP3   OH262580   3.711   1.109   0.664  0.4145 -0.4325 -0.0053
13722TIP3    H162581   3.751   1.027   0.637 -0.3818 -0.5894 -0.7629
13722TIP3    H262582   3.780   1.155   0.712  1.4765 -0.7307 -1.1889
13723TIP3   OH262583   4.295   3.784  15.824 -0.0236  0.0657 -0.6456
13723TIP3    H162584   4.257   3.834  15.752 -0.7196 -1.2063 -1.2038
13723TIP3    H262585   4.378   3.751  15.789  0.0257  0.1209 -0.5810
13724TIP3   OH262586   1.284   3.704  13.673 -0.0604 -0.3714 -0.0869
13724TIP3    H162587   1.267   3.611  13.661  1.7386 -1.3677  3.6170
13724TIP3    H262588   1.368   3.719  13.630  0.0298 -0.6879 -0.0255
13725TIP3   OH262589   2.142   0.952  11.216 -0.3426 -0.0288 -0.0979
13725TIP3    H162590   2.191   0.970  11.297 -0.6086  1.1519 -0.1822
13725TIP3    H262591   2.155   1.030  11.162 -1.0753 -0.3394 -0.7450
13726TIP3   OH262592   5.761   0.686  16.790 -0.3046 -0.4443  0.1982
13726TIP3    H162593   5.691   0.724  16.841 -1.3636 -0.9949 -0.7958
13726TIP3    H262594   5.745   0.592  16.792  1.3112 -0.7294  1.2400
13727TIP3   OH262595   5.043   4.304  14.955  0.1641  0.0174  0.1255
13727TIP3    H162596   5.045   4.273  15.046 -0.6521 -1.9196 -0.4756
13727TIP3    H262597   5.031   4.225  14.903 -1.4174  1.2970 -1.5519
13728TIP3   OH262598   1.838   1.061   1.309  0.0746  0.1735 -0.1155
13728TIP3    H162599   1.770   1.097   1.251  1.3334  1.8464 -0.6379
13728TIP3    H262600   1.807   1.081   1.397 -0.7419 -0.2920 -0.2846
13729TIP3   OH262601   5.091   0.217  16.503 -0.3806  0.0793 -0.4920
13729TIP3    H162602   5.037   0.285  16.464  0.5579  0.9442 -0.3133
13729TIP3    H262603   5.179   0.235  16.471 -0.4710 -2.6306 -2.6069
13730TIP3   OH262604   2.051   1.734  16.131 -0.1286 -0.6193 -0.4028
13730TIP3    H162605   2.101   1.721  16.212 -0.6924  0.3551  0.1267
13730TIP3    H262606   1.990   1.661  16.129  0.9904 -1.5828 -0.8322
13731TIP3   OH262607   5.481   1.124   2.243 -0.0059 -0.4707 -0.0450
13731TIP3    H162608   5.420   1.145   2.313 -2.8670 -2.8193 -1.5892
13731TIP3    H262609   5.459   1.186   2.173 -1.1598 -1.6987 -0.8204
13732TIP3   OH262610   4.608   4.989   3.235  0.1935  0.4615 -0.3048
13732TIP3    H162611   4.541   4.943   3.286  2.1088 -0.1621  1.7621
13732TIP3    H262612   4.558   5.051   3.181 -2.1937 -1.4347 -0.4496
13733TIP3   OH262613   6.394   3.188   5.339 -0.1273  0.6642  0.2341
13733TIP3    H162614   6.307   3.227   5.327  0.3175  1.6488  0.0721
13733TIP3    H262615   6.423   3.166   5.250 -0.6849 -0.7835  0.3818
13734TIP3   OH262616   1.588   5.251   0.317  0.2509 -0.0619 -0.3969
13734TIP3    H162617   1.504   5.273   0.278  1.0520  1.3979 -1.4040
13734TIP3    H262618   1.631   5.197   0.251  0.2921 -0.4157 -0.0831
13735TIP3   OH262619   2.272   0.608  11.716  0.1360 -0.2281 -0.3673
13735TIP3    H162620   2.332   0.640  11.784  1.0105 -2.3494 -0.0368
13735TIP3    H262621   2.221   0.540  11.760 -3.0680  1.9194 -0.4742
13736TIP3   OH262622   0.359   0.828  14.595  0.3075  0.2575  1.0791
13736TIP3    H162623   0.411   0.846  14.517  0.6961 -2.1805  0.7267
13736TIP3    H262624   0.361   0.733  14.606 -4.0146 -0.0743  1.0640
13737TIP3   OH262625   2.801   0.661  15.224  0.0164 -0.1366 -0.1008
13737TIP3    H162626   2.806   0.666  15.129 -0.1644 -0.2555 -0.1173
13737TIP3    H262627   2.892   0.667  15.254 -0.0303  1.5461 -0.2073
13738TIP3   OH262628   1.589   5.208  15.311  0.6179  0.3248 -0.7818
13738TIP3    H162629   1.556   5.140  15.369 -0.8330  2.2047  0.7189
13738TIP3    H262630   1.612   5.161  15.230  1.4627 -2.1835  0.7753
13739TIP3   OH262631   0.012   6.388  17.009  0.0114 -0.4743 -0.4725
13739TIP3    H162632   0.059   6.313  17.047 -0.3738 -0.3553  0.2549
13739TIP3    H262633  -0.069   6.393  17.060  2.4381  4.0687  3.7008
13740TIP3   OH262634   3.561   5.008  16.768  0.0100  0.0868  0.8951
13740TIP3    H162635   3.491   5.032  16.708  1.3362 -0.0793 -0.7986
13740TIP3    H262636   3.526   5.029  16.855 -1.3500  1.9711 -0.0238
13741TIP3   OH262637   3.106   1.727  13.456 -0.1741 -0.2856  0.0691
13741TIP3    H162638   3.084   1.699  13.368  1.4236  1.0175 -0.8106
13741TIP3    H262639   3.027   1.771  13.488 -0.0710  1.2499 -1.6231
13742TIP3   OH262640   0.555   3.011   2.950 -0.4037  0.5978 -0.4670
13742TIP3    H162641   0.579   3.092   2.905 -0.3687  0.2273 -1.1205
13742TIP3    H262642   0.481   3.036   3.005  1.3486  1.7630  1.5638
13743TIP3   OH262643   3.158   0.777   4.034  0.0540  0.1619 -0.1401
13743TIP3    H162644   3.190   0.723   3.961  0.5111  0.6435 -0.3072
13743TIP3    H262645   3.221   0.849   4.038 -1.4126  1.5417 -0.9376
13744TIP3   OH262646   1.710   2.533  13.467  0.1898  0.1216 -0.4992
13744TIP3    H162647   1.792   2.518  13.420  1.7823 -0.9830  2.3703
13744TIP3    H262648   1.733   2.597  13.535 -1.7572  0.9725 -0.5768
13745TIP3   OH262649   5.001   3.280  13.717  0.1592  0.2699  0.0236
13745TIP3    H162650   5.048   3.321  13.789  0.0395  2.1206 -0.9105
13745TIP3    H262651   4.918   3.327  13.712 -1.0806 -1.7312  0.4661
13746TIP3   OH262652   1.349   1.015   4.990  0.4416 -0.3578  0.2208
13746TIP3    H162653   1.360   1.104   5.024 -0.6866  0.0591 -0.4373
13746TIP3    H262654   1.339   1.027   4.896  1.9463 -1.3545 -0.0933
13747TIP3   OH262655   3.848   1.764  16.370  0.3486 -0.6549  0.3513
13747TIP3    H162656   3.754   1.771  16.389  0.1053 -0.3555 -0.8740
13747TIP3    H262657   3.890   1.776  16.455 -0.6242  1.5233  0.6097
13748TIP3   OH262658   3.780   4.856   0.268 -0.0624 -0.4539  0.4125
13748TIP3    H162659   3.809   4.767   0.290 -0.1879 -0.4364  0.6523
13748TIP3    H262660   3.687   4.846   0.247 -0.0691 -0.3834  0.4102
13749TIP3   OH262661   6.361   3.016  11.198 -0.3028  0.1039 -0.4384
13749TIP3    H162662   6.373   3.015  11.103  1.6042 -0.2799 -0.2472
13749TIP3    H262663   6.334   2.926  11.219  1.1990 -0.3973 -0.4707
13750TIP3   OH262664   2.123   6.418   1.621 -0.1605  0.3359 -0.1968
13750TIP3    H162665   2.186   6.352   1.651 -0.1754 -0.6754 -2.2153
13750TIP3    H262666   2.139   6.493   1.678  2.5198 -0.0704 -0.2751
13751TIP3   OH262667   5.748   5.997  15.679 -0.2571  0.3620  0.3660
13751TIP3    H162668   5.745   5.949  15.596 -1.1733  2.4872 -0.9393
13751TIP3    H262669   5.840   5.995  15.705  0.4689  1.4299 -1.8876
13752TIP3   OH262670   1.144   4.379   3.050 -0.7058  0.5318 -0.1322
13752TIP3    H162671   1.053   4.409   3.044 -0.1955  2.1525 -0.3260
13752TIP3    H262672   1.167   4.390   3.142 -0.5266  0.6965 -0.1960
13753TIP3   OH262673   5.019   6.750   4.541  0.2754 -0.0386 -0.0819
13753TIP3    H162674   5.083   6.805   4.496  0.0105  1.1019  0.8928
13753TIP3    H262675   5.054   6.661   4.532  1.3652  0.4245 -0.6155
13754TIP3   OH262676   5.558   6.267  11.435  0.4256 -0.2532  0.3203
13754TIP3    H162677   5.566   6.353  11.393  1.1890 -0.7728 -0.6411
13754TIP3    H262678   5.505   6.283  11.513 -0.6757  0.8252 -0.6190
13755TIP3   OH262679   4.163   2.956  16.312  0.2234  0.1355  0.5642
13755TIP3    H162680   4.187   2.896  16.382 -0.4240  1.2582  1.7847
13755TIP3    H262681   4.087   2.916  16.271 -0.5769  0.3936  1.7639
13756TIP3   OH262682   5.680   0.933   0.763  1.2610 -0.1543  0.1563
13756TIP3    H162683   5.637   1.014   0.791 -1.1328 -1.9842  2.1539
13756TIP3    H262684   5.726   0.902   0.840  0.6797 -1.5710 -0.0419
13757TIP3   OH262685   2.239   2.620   0.321 -0.2885 -0.5783 -0.3044
13757TIP3    H162686   2.169   2.683   0.338 -1.0252 -1.3816 -0.2672
13757TIP3    H262687   2.245   2.617   0.226 -0.3403 -0.5459 -0.3090
13758TIP3   OH262688   4.043   5.706  16.330 -0.7225 -0.0024  0.3876
13758TIP3    H162689   3.968   5.706  16.271 -0.2074  0.1321 -0.2839
13758TIP3    H262690   4.119   5.716  16.272 -0.1707 -0.3607  1.0276
13759TIP3   OH262691   4.403   6.446   5.459 -0.3948  0.6602 -0.1906
13759TIP3    H162692   4.448   6.433   5.542 -0.5447 -0.2654 -0.2408
13759TIP3    H262693   4.464   6.497   5.406 -0.5214  1.7206  0.6651
13760TIP3   OH262694   6.508   5.985   2.116 -0.5990  0.4541 -0.0311
13760TIP3    H162695   6.429   5.952   2.072  1.1316 -1.0738 -2.1955
13760TIP3    H262696   6.540   6.055   2.058 -0.7529  1.6576  1.2684
13761TIP3   OH262697   4.108   2.195  17.080  0.1256  0.0885  0.5537
13761TIP3    H162698   4.144   2.282  17.102 -0.0588  0.7474 -1.5492
13761TIP3    H262699   4.165   2.134  17.127  2.5425  1.2188 -0.6996
13762TIP3   OH262700   3.759   3.169  15.190  0.3185  1.1051  0.1246
13762TIP3    H162701   3.852   3.169  15.169  0.5708 -0.1065  1.1336
13762TIP3    H262702   3.715   3.145  15.109  1.1293 -1.5299  0.3737
13763TIP3   OH262703   5.868   5.019  11.217  0.0906  0.7190 -0.0856
13763TIP3    H162704   5.858   4.993  11.126 -0.1621 -0.9152  0.3714
13763TIP3    H262705   5.819   4.952  11.266  3.2765 -0.6669  1.4735
13764TIP3   OH262706   3.262   0.037   3.217  0.6386  0.3400 -0.1621
13764TIP3    H162707   3.250  -0.056   3.234 -0.5875  0.1549 -1.8411
13764TIP3    H262708   3.345   0.059   3.260  0.6695 -1.3815  0.7158
13765TIP3   OH262709   0.098   4.656   0.877 -0.3626 -0.6891  0.4651
13765TIP3    H162710   0.138   4.673   0.962 -1.9806 -0.0279  1.1443
13765TIP3    H262711   0.171   4.635   0.820  1.0283  1.1922  1.4277
13766TIP3   OH262712   0.719   1.501  15.498 -0.6703  0.2984 -0.1368
13766TIP3    H162713   0.777   1.518  15.572 -0.2424 -0.0866 -0.3810
13766TIP3    H262714   0.777   1.497  15.422 -1.1346  0.9708 -0.5422
13767TIP3   OH262715   3.458   1.546   0.269 -0.1821 -0.1258 -0.5323
13767TIP3    H162716   3.399   1.489   0.318 -0.0583  0.2313  0.0402
13767TIP3    H262717   3.544   1.528   0.305 -0.3773  1.7728  0.9820
13768TIP3   OH262718   5.562   4.327  14.800  0.5376  0.6267  0.5014
13768TIP3    H162719   5.632   4.306  14.862  1.3866  0.9845 -0.3078
13768TIP3    H262720   5.572   4.420  14.781 -0.9928  1.0055  1.3519
13769TIP3   OH262721   0.087   5.081  15.526 -0.0283 -0.1476  0.3029
13769TIP3    H162722   0.101   5.092  15.432 -1.8236 -1.6067 -0.1872
13769TIP3    H262723   0.056   5.166  15.556 -0.8168 -0.0659 -0.7112
13770TIP3   OH262724   6.181   5.057   4.731 -0.0848 -0.0425  0.6067
13770TIP3    H162725   6.166   5.066   4.825  0.1326  0.4126  0.6028
13770TIP3    H262726   6.093   5.042   4.695  0.0349 -2.0913  1.0570
13771TIP3   OH262727   0.839   2.376  16.106  0.2541  0.3202  0.3839
13771TIP3    H162728   0.795   2.294  16.126  1.1546 -0.7133 -1.5959
13771TIP3    H262729   0.910   2.352  16.047 -0.4555  2.7098 -1.6107
13772TIP3   OH262730   1.442   0.029   5.698  0.2523  0.4175 -0.1616
13772TIP3    H162731   1.535   0.033   5.674  0.3236 -2.9103 -0.9272
13772TIP3    H262732   1.395   0.033   5.615 -0.0581 -1.1010 -0.0901
13773TIP3   OH262733   1.868   6.768   0.526  0.3103 -0.1649  0.7631
13773TIP3    H162734   1.951   6.722   0.536  0.6184  0.2421  0.1036
13773TIP3    H262735   1.886   6.858   0.553  0.5955  0.4030 -1.1937
13774TIP3   OH262736   6.526   0.078  11.545 -0.0426 -0.0231  0.8785
13774TIP3    H162737   6.573   0.065  11.627 -1.6037  1.9491  2.1943
13774TIP3    H262738   6.442   0.116  11.571 -1.1048 -0.4715 -1.5693
13775TIP3   OH262739   1.502   5.954   0.042  0.1495  0.0452  0.2210
13775TIP3    H162740   1.542   6.009  -0.026  1.2054 -0.9257  0.0263
13775TIP3    H262741   1.486   6.014   0.115 -0.4188  0.9741 -0.6447
13776TIP3   OH262742   2.014   2.212  14.613  0.0154 -0.4081  0.4983
13776TIP3    H162743   2.101   2.200  14.650  0.5188  0.0599 -0.4921
13776TIP3    H262744   2.003   2.139  14.552  0.0314 -0.0585  0.0658
13777TIP3   OH262745   3.640   3.342  12.436  0.3466 -0.1364  0.3112
13777TIP3    H162746   3.585   3.287  12.380 -1.3641 -0.3944  2.1470
13777TIP3    H262747   3.651   3.423  12.386  1.1023 -1.2949 -1.5003
13778TIP3   OH262748   5.627   0.454  16.789 -0.4934  0.0876 -0.1165
13778TIP3    H162749   5.585   0.440  16.704 -2.6517 -1.2257  1.0935
13778TIP3    H262750   5.663   0.368  16.813  2.7730  1.0633 -0.9263
13779TIP3   OH262751   1.627   1.107  15.195  0.3041 -0.4070  0.2591
13779TIP3    H162752   1.722   1.100  15.188  0.5964  2.4063  0.2508
13779TIP3    H262753   1.597   1.124  15.106  0.3148  2.5595  0.7195
13780TIP3   OH262754   4.875   1.401   0.187  0.7167  0.2927 -0.0995
13780TIP3    H162755   4.930   1.474   0.158  0.2683 -0.3151 -2.7394
13780TIP3    H262756   4.926   1.358   0.255  2.4025  1.2104 -0.7310
13781TIP3   OH262757   2.540   3.202  12.537 -0.3384  0.0025  0.2356
13781TIP3    H162758   2.491   3.146  12.597 -0.3915 -0.6351 -0.3826
13781TIP3    H262759   2.490   3.198  12.455 -1.6026  2.7511  0.7812
13782TIP3   OH262760   1.496   4.090   2.613 -0.1426 -0.2085 -0.7137
13782TIP3    H162761   1.476   3.997   2.615 -1.2346 -0.0591  2.9347
13782TIP3    H262762   1.588   4.095   2.587  0.7461 -2.5749  1.6427
13783TIP3   OH262763   5.533   5.699  17.225 -0.2342 -0.0207  0.5281
13783TIP3    H162764   5.500   5.684  17.313 -0.8526 -2.6531 -0.0586
13783TIP3    H262765   5.457   5.684  17.168  0.0466  2.0117 -0.4724
13784TIP3   OH262766   0.643   3.167   3.816  0.1652 -0.0120 -0.6132
13784TIP3    H162767   0.726   3.214   3.821 -0.6221  1.4253 -0.6355
13784TIP3    H262768   0.603   3.196   3.734 -0.5496 -0.3789 -0.4048
13785TIP3   OH262769   5.209   3.785  16.673 -0.0862  0.0064 -0.0357
13785TIP3    H162770   5.156   3.707  16.658  0.8176 -0.2913 -2.0878
13785TIP3    H262771   5.297   3.759  16.645  0.7356  1.0683  1.4526
13786TIP3   OH262772   4.529   0.286   1.342  0.3362  0.1966 -0.4668
13786TIP3    H162773   4.475   0.296   1.421  1.5151 -0.0799  0.4209
13786TIP3    H262774   4.467   0.262   1.273 -0.6695 -0.0732  0.4922
13787TIP3   OH262775   2.304   1.896  12.220  0.0383  0.1687 -0.2618
13787TIP3    H162776   2.211   1.877  12.237  0.6720 -2.0007  1.1273
13787TIP3    H262777   2.322   1.849  12.138  0.3992 -1.2286  0.5939
13788TIP3   OH262778   0.084   5.025   0.310  0.1186 -0.2443 -0.5873
13788TIP3    H162779   0.155   5.012   0.373 -0.9182  2.9706  1.4849
13788TIP3    H262780   0.122   5.080   0.241 -0.1360  1.0111  0.2389
13789TIP3   OH262781   4.965   3.304   2.811 -0.1559  0.7968  0.2735
13789TIP3    H162782   4.898   3.238   2.828  0.3704 -0.7914 -3.0119
13789TIP3    H262783   4.997   3.330   2.898 -1.7888 -1.7684  1.7538
13790TIP3   OH262784   1.238   0.381   1.506  0.1581  0.0750 -0.3290
13790TIP3    H162785   1.327   0.348   1.521 -0.1794 -1.1568 -0.9114
13790TIP3    H262786   1.181   0.320   1.551 -0.4685  0.0568 -1.1162
13791TIP3   OH262787   0.262   4.291  12.062 -0.5437 -0.1601 -0.2971
13791TIP3    H162788   0.292   4.378  12.088 -1.3010  0.0432 -0.0648
13791TIP3    H262789   0.204   4.264  12.134 -1.0279 -0.4682 -0.7983
13792TIP3   OH262790   1.250   0.045   0.847 -0.4096 -0.1465 -0.5758
13792TIP3    H162791   1.285  -0.030   0.894  0.0757  0.3812 -0.0751
13792TIP3    H262792   1.173   0.012   0.801  0.1009 -1.0685 -0.7870
13793TIP3   OH262793   5.702   6.052  14.626  0.1300  0.0701 -0.0139
13793TIP3    H162794   5.778   6.042  14.568  0.6218  3.9648 -0.3038
13793TIP3    H262795   5.627   6.043  14.568  0.5241  0.5331 -0.6114
13794TIP3   OH262796   0.934   4.579   5.851  0.6505  0.4438 -0.0155
13794TIP3    H162797   0.885   4.584   5.933  1.5717 -0.6879  0.6285
13794TIP3    H262798   0.903   4.654   5.801 -1.5316 -0.0779  0.4589
13795TIP3   OH262799   5.137   2.006   4.463  0.2066 -0.4475  0.5585
13795TIP3    H162800   5.221   2.050   4.475 -0.3745  0.4639  1.5397
13795TIP3    H262801   5.148   1.921   4.503  1.1453 -0.9886 -0.7656
13796TIP3   OH262802   1.713   3.534  12.018 -0.0676  0.3198 -0.8656
13796TIP3    H162803   1.793   3.567  11.977 -0.2146  1.2282 -0.4478
13796TIP3    H262804   1.679   3.469  11.956  0.9119  0.0245 -1.1127
13797TIP3   OH262805   3.227   0.469   1.379  0.3905 -0.0382 -0.2182
13797TIP3    H162806   3.167   0.434   1.445  2.0099 -1.0190  0.8232
13797TIP3    H262807   3.180   0.459   1.296 -0.5236 -1.6852  0.4445
13798TIP3   OH262808   0.984   0.227  12.976  0.0991 -0.8885  0.4543
13798TIP3    H162809   0.947   0.239  12.889 -1.2165  0.3505  1.1372
13798TIP3    H262810   0.995   0.133  12.985 -0.9902 -1.1358 -0.5593
13799TIP3   OH262811   6.037   4.810   4.864  0.3351  0.2405  0.2333
13799TIP3    H162812   6.002   4.755   4.794  0.6115  1.8732 -1.2590
13799TIP3    H262813   6.132   4.798   4.858  0.3890  0.7636 -0.0217
13800TIP3   OH262814   4.041   4.207  15.740  0.4463  0.5181 -0.2339
13800TIP3    H162815   3.993   4.282  15.702 -1.6568 -0.7308 -0.1940
13800TIP3    H262816   4.052   4.147  15.666  2.5928  1.0054 -0.3870
13801TIP3   OH262817   5.602   5.089  12.224 -0.4265 -0.5472  0.0753
13801TIP3    H162818   5.572   5.155  12.162  1.7330 -0.1787 -0.6791
13801TIP3    H262819   5.641   5.021  12.168  0.7247 -0.6469  0.9691
13802TIP3   OH262820   1.765   4.412   2.559 -0.2112 -0.0431 -0.2242
13802TIP3    H162821   1.796   4.334   2.604  1.7648  0.5172 -0.5145
13802TIP3    H262822   1.724   4.379   2.478 -0.6773 -0.8317  0.3213
13803TIP3   OH262823   1.075   5.861  13.397 -0.6498  0.6370 -0.3898
13803TIP3    H162824   1.161   5.834  13.429 -0.9441 -0.3131 -0.3838
13803TIP3    H262825   1.031   5.896  13.475  0.3093  2.7363 -0.7094
13804TIP3   OH262826   2.205   5.278  10.718  0.6083 -0.1963  0.2956
13804TIP3    H162827   2.152   5.222  10.661  0.6603  0.8221 -0.7980
13804TIP3    H262828   2.176   5.256  10.806 -0.2749 -1.0255 -0.1757
13805TIP3   OH262829   1.107   1.270   5.315  0.2189 -0.2049  0.0156
13805TIP3    H162830   1.075   1.195   5.365  0.8760  0.0759  0.8917
13805TIP3    H262831   1.137   1.332   5.382  0.4303  0.5027 -0.7141
13806TIP3   OH262832   4.868   2.099   1.925 -0.2479 -0.1975  0.0335
13806TIP3    H162833   4.936   2.119   1.861 -0.8554  0.1517 -0.5144
13806TIP3    H262834   4.881   2.163   1.995  1.6389 -1.7654  1.2517
13807TIP3   OH262835   6.592   4.345   0.135  0.3043  0.0326  0.4171
13807TIP3    H162836   6.612   4.436   0.112 -1.1108  0.0180 -1.0098
13807TIP3    H262837   6.676   4.300   0.126  0.4611  0.6356 -1.9221
13808TIP3   OH262838   3.343   5.154   2.889  0.0135  0.6724  0.1704
13808TIP3    H162839   3.323   5.125   2.979  0.4446 -1.7829 -0.4436
13808TIP3    H262840   3.432   5.188   2.894  0.1442  0.2753  0.6214
13809TIP3   OH262841   3.634   6.695  12.598  0.3435  0.4212  0.6249
13809TIP3    H162842   3.557   6.733  12.640  1.0799  0.7630  1.7181
13809TIP3    H262843   3.692   6.671  12.671  0.4239 -1.6979 -0.0820
13810TIP3   OH262844   0.560   5.356  17.092  0.1525 -0.5052 -0.1301
13810TIP3    H162845   0.478   5.308  17.104  0.6935 -1.1127  1.3965
13810TIP3    H262846   0.546   5.439  17.137 -0.1049  0.0064 -1.1159
13811TIP3   OH262847   4.449   4.798  12.040 -0.4872  0.3739  0.3570
13811TIP3    H162848   4.517   4.787  11.973 -1.3651 -1.6692 -0.2797
13811TIP3    H262849   4.493   4.843  12.112  1.5081 -0.7346 -0.1020
13812TIP3   OH262850   1.454   0.221   6.357  0.0647 -0.0375 -0.1276
13812TIP3    H162851   1.492   0.303   6.387 -0.3630 -0.4228  1.5655
13812TIP3    H262852   1.376   0.247   6.309 -1.1071  0.5296  1.9656
13813TIP3   OH262853   5.341   4.305  11.820  0.1320 -0.1284 -0.3141
13813TIP3    H162854   5.283   4.305  11.744 -0.5987 -0.7623  0.2295
13813TIP3    H262855   5.289   4.343  11.890  0.1417 -1.2610  0.3398
13814TIP3   OH262856   4.213   1.684  15.139  0.3229  0.8909 -0.1480
13814TIP3    H162857   4.176   1.743  15.204 -0.0083  0.1681  0.3342
13814TIP3    H262858   4.208   1.598  15.179  2.7320  0.7584  0.0129
13815TIP3   OH262859   0.176   5.741  15.607 -0.5099 -0.8395 -0.1999
13815TIP3    H162860   0.264   5.749  15.643 -0.8651 -0.6708  0.6574
13815TIP3    H262861   0.159   5.825  15.565 -0.6999 -0.4371  0.6636
13816TIP3   OH262862   0.798   3.431   3.731  0.0183 -0.2829  0.2579
13816TIP3    H162863   0.831   3.366   3.668 -0.5100 -1.2505  0.9499
13816TIP3    H262864   0.713   3.458   3.696 -0.7488 -1.5838  1.0417
13817TIP3   OH262865   0.496   0.901  14.845  0.1182 -0.4538  0.3539
13817TIP3    H162866   0.539   0.877  14.763 -1.0278 -0.5378 -0.2486
13817TIP3    H262867   0.429   0.833  14.858 -2.6379  1.7699 -0.9641
13818TIP3   OH262868   5.545   0.278   1.519 -0.3444  0.0472 -0.1970
13818TIP3    H162869   5.631   0.257   1.555  1.1424  1.6477 -2.5446
13818TIP3    H262870   5.548   0.372   1.502 -1.8151 -0.1761 -2.0621
13819TIP3   OH262871   1.072   4.567   4.695 -0.1618 -0.0567 -0.5568
13819TIP3    H162872   1.001   4.630   4.681 -0.5386 -0.5233 -0.8018
13819TIP3    H262873   1.045   4.490   4.645  0.1912 -0.4856 -0.0946
13820TIP3   OH262874   0.834   5.472  13.558  0.7689 -0.4052 -0.0270
13820TIP3    H162875   0.825   5.381  13.532  1.9922 -0.0094 -2.0420
13820TIP3    H262876   0.746   5.509  13.547  0.2431 -1.3328  0.9126
13821TIP3   OH262877   1.240   4.836   0.670 -0.2142  0.0576  0.2124
13821TIP3    H162878   1.225   4.769   0.604  1.2090  0.6731 -0.7947
13821TIP3    H262879   1.329   4.866   0.654  0.0558  0.4856  2.2063
13822TIP3   OH262880   2.337   4.819  15.765  0.1792 -0.0460 -0.2319
13822TIP3    H162881   2.378   4.740  15.729  0.1572  0.6080 -1.7879
13822TIP3    H262882   2.271   4.787  15.825  0.0100 -1.2411 -1.0228
13823TIP3   OH262883   0.420   2.786   5.659 -0.2257 -0.6684 -0.0615
13823TIP3    H162884   0.481   2.744   5.720 -0.0792 -0.2650  0.0711
13823TIP3    H262885   0.470   2.797   5.578  1.2710  3.2529  1.1715
13824TIP3   OH262886   1.801   5.000  15.275 -0.0043 -0.2571 -0.1618
13824TIP3    H162887   1.794   5.073  15.214  0.1540  0.5328  0.7390
13824TIP3    H262888   1.895   4.985  15.284 -0.0535 -1.8270 -1.7629
13825TIP3   OH262889   4.130   2.281  14.031 -0.5353  0.1732 -0.1384
13825TIP3    H162890   4.143   2.368  14.069 -1.4354  0.7156 -1.0009
13825TIP3    H262891   4.215   2.239  14.038  0.2973  1.6281 -0.9292
13826TIP3   OH262892   0.837   6.189   2.230 -0.3206 -0.4856  1.1436
13826TIP3    H162893   0.743   6.206   2.222 -0.0903  1.5070  2.0041
13826TIP3    H262894   0.860   6.145   2.148 -1.6801  0.6634  0.0853
13827TIP3   OH262895   2.896   6.736   1.432 -0.2050 -0.0087 -0.0253
13827TIP3    H162896   2.830   6.799   1.404 -0.2520 -0.3753 -0.7452
13827TIP3    H262897   2.895   6.742   1.528 -2.7525 -1.4852  0.1363
13828TIP3   OH262898   2.185   2.230  12.640  0.0551  0.5062  0.2018
13828TIP3    H162899   2.168   2.295  12.708  0.2132  1.2013 -0.4163
13828TIP3    H262900   2.272   2.196  12.660 -0.2879  0.0053  0.9017
13829TIP3   OH262901   4.318   2.555  11.825  0.2548 -0.2359  0.2952
13829TIP3    H162902   4.312   2.462  11.846  0.0903 -0.5041 -0.8776
13829TIP3    H262903   4.237   2.574  11.779  0.6009  0.3243 -0.0886
13830TIP3   OH262904   1.868   5.575   5.551  0.4568  0.1184 -0.0181
13830TIP3    H162905   1.830   5.610   5.632 -0.2178  0.4606 -0.4719
13830TIP3    H262906   1.852   5.481   5.556 -2.1516  0.4106 -1.0109
13831TIP3   OH262907   4.203   2.627   3.042  0.3087 -0.0784 -0.4747
13831TIP3    H162908   4.191   2.640   2.948  0.2172 -1.2167 -0.6349
13831TIP3    H262909   4.131   2.569   3.068  0.3208  0.2336  0.3044
13832TIP3   OH262910   4.586   2.244   5.616 -0.5503 -0.0098 -0.2987
13832TIP3    H162911   4.574   2.169   5.558  2.4501 -0.5622 -0.3537
13832TIP3    H262912   4.634   2.308   5.563 -0.8575  0.9296  0.5152
13833TIP3   OH262913   0.364   6.538   1.769  0.5635  0.4671  0.1657
13833TIP3    H162914   0.416   6.618   1.757  0.0254  1.0021  1.2538
13833TIP3    H262915   0.363   6.524   1.863  0.3559 -0.6386  0.0116
13834TIP3   OH262916   2.176   1.575   0.507  0.2979  0.3113 -0.8363
13834TIP3    H162917   2.260   1.607   0.473  0.4410 -0.8337 -1.6223
13834TIP3    H262918   2.200   1.512   0.576  0.0455  0.9455 -0.1534
13835TIP3   OH262919   2.242   0.601  12.074 -0.0785 -0.1650 -0.2225
13835TIP3    H162920   2.334   0.624  12.066 -0.4468  1.0232 -1.3650
13835TIP3    H262921   2.242   0.511  12.106  1.4526  0.7029  2.6221
13836TIP3   OH262922   3.498   0.408   0.869 -0.2240  0.0686  0.3565
13836TIP3    H162923   3.427   0.389   0.808 -0.5128 -1.1120  1.0292
13836TIP3    H262924   3.507   0.503   0.866 -0.7780  0.1015 -0.9023
13837TIP3   OH262925   4.258   5.844   2.343 -0.2822 -0.2176  0.3250
13837TIP3    H162926   4.259   5.759   2.300  0.6352 -0.2405  0.3545
13837TIP3    H262927   4.187   5.892   2.302  0.2593 -0.4135 -0.8718
13838TIP3   OH262928   0.035   4.511  12.725 -0.4384  0.1593 -0.5295
13838TIP3    H162929   0.072   4.439  12.776  0.1236 -0.3569 -1.6322
13838TIP3    H262930  -0.030   4.551  12.783  0.2733 -0.3194  0.6345
13839TIP3   OH262931   2.957   2.275  16.538  0.1235  0.3747  0.0867
13839TIP3    H162932   2.928   2.364  16.518  0.0479  0.1093 -1.0255
13839TIP3    H262933   3.041   2.287  16.583  0.9259  0.9781 -1.5034
13840TIP3   OH262934   2.586   1.209   0.785  0.4998  0.3270  0.0763
13840TIP3    H162935   2.676   1.203   0.753  0.9080  3.5355  0.3489
13840TIP3    H262936   2.539   1.255   0.716  0.0865  2.2938  1.5739
13841TIP3   OH262937   5.231   0.221  12.026  0.7502  0.4713 -0.7326
13841TIP3    H162938   5.160   0.179  11.977 -0.3399  1.6381 -0.2095
13841TIP3    H262939   5.186   0.284  12.083  2.1953  1.0039 -0.1567
13842TIP3   OH262940   0.946   0.082  10.998 -0.4987 -0.1666 -0.2538
13842TIP3    H162941   0.928   0.157  10.942 -1.0387  0.4491  0.7355
13842TIP3    H262942   1.006   0.028  10.946  0.6523  1.3892 -0.6193
13843TIP3   OH262943   3.886   5.955  11.050 -0.0644  0.4249 -0.4838
13843TIP3    H162944   3.907   5.935  11.142  0.0327  0.5421 -0.4812
13843TIP3    H262945   3.954   5.911  11.000 -0.4648 -0.1543 -0.5313
13844TIP3   OH262946   2.201   1.272   2.532  0.0383  0.1209 -0.3765
13844TIP3    H162947   2.263   1.220   2.481  2.0450  1.3715  0.6449
13844TIP3    H262948   2.130   1.211   2.553  0.5613 -1.1853 -2.1788
13845TIP3   OH262949   2.466   0.458  11.169 -0.0632 -0.0804  0.6470
13845TIP3    H162950   2.405   0.391  11.199  1.0562 -0.7680  1.4585
13845TIP3    H262951   2.540   0.408  11.134  0.2313  0.7351  0.0985
13846TIP3   OH262952   1.447   2.449   2.483 -0.0977 -0.1658  0.2234
13846TIP3    H162953   1.473   2.442   2.391 -1.4116  0.2348 -0.2148
13846TIP3    H262954   1.503   2.388   2.529  0.9896  0.0595 -0.7594
13847TIP3   OH262955   1.489   6.260   2.959 -0.1868 -0.1271 -0.3185
13847TIP3    H162956   1.576   6.221   2.967 -0.3222 -0.0068  3.1801
13847TIP3    H262957   1.506   6.350   2.930  0.9694  0.1478  1.1007
13848TIP3   OH262958   3.916   6.180   6.633 -0.3785  0.5611  0.2616
13848TIP3    H162959   3.834   6.221   6.660 -0.3564  0.9837 -0.2958
13848TIP3    H262960   3.907   6.088   6.658 -0.8251  0.7037  0.6358
13849TIP3   OH262961   5.277   4.454   0.798  0.1174 -0.4003 -0.5698
13849TIP3    H162962   5.330   4.394   0.851 -0.1093 -0.5169 -0.4745
13849TIP3    H262963   5.211   4.398   0.757 -0.4376 -0.1378 -0.0477
13850TIP3   OH262964   5.266   5.097  12.786  0.0434  0.7457  0.0051
13850TIP3    H162965   5.235   5.129  12.701  0.3760  0.0134 -0.3988
13850TIP3    H262966   5.294   5.176  12.832  0.0747  1.1272 -0.6513
13851TIP3   OH262967   6.377   6.579   3.863  0.4225 -0.4656  0.8023
13851TIP3    H162968   6.361   6.509   3.801  1.2381 -0.6027  0.7389
13851TIP3    H262969   6.472   6.589   3.865  0.2992  1.2333  0.1432
13852TIP3   OH262970   5.103   2.201   2.941  0.1043 -0.5696 -0.5101
13852TIP3    H162971   5.036   2.165   2.883 -1.1125  0.5862  0.1182
13852TIP3    H262972   5.095   2.296   2.931  0.1641 -0.3463  1.1790
13853TIP3   OH262973   4.210   6.774  14.027 -0.3100  0.3020 -0.2577
13853TIP3    H162974   4.122   6.765  14.063 -0.0611 -0.4097  0.2016
13853TIP3    H262975   4.231   6.687  13.993  0.1567  0.5053 -0.5024
13854TIP3   OH262976   2.140   3.154   4.278  0.7301  0.2935 -0.4453
13854TIP3    H162977   2.118   3.077   4.225 -0.4901  0.2180  0.1183
13854TIP3    H262978   2.222   3.187   4.242  0.6242 -0.5563 -1.4859
13855TIP3   OH262979   2.703   4.725   1.249 -0.2383  0.5551 -0.0646
13855TIP3    H162980   2.662   4.811   1.261 -0.1761  0.5226  0.4013
13855TIP3    H262981   2.691   4.681   1.333 -3.1663 -1.1729 -1.2253
13856TIP3   OH262982   0.510   2.653  15.730  0.0161  0.1241  1.0177
13856TIP3    H162983   0.474   2.577  15.776 -0.9878 -0.6343 -0.9025
13856TIP3    H262984   0.588   2.677  15.781 -1.1324 -0.4934  3.1966
13857TIP3   OH262985   2.110   1.875   0.932  0.3509 -0.2435 -0.4841
13857TIP3    H162986   2.203   1.894   0.944  0.0309  1.0323  0.1991
13857TIP3    H262987   2.067   1.959   0.948 -1.0386 -1.1435  0.7042
13858TIP3   OH262988   1.517   3.119   1.411 -0.0266 -0.4707 -0.1177
13858TIP3    H162989   1.483   3.204   1.439 -0.3247 -0.6528  0.0886
13858TIP3    H262990   1.547   3.077   1.492 -1.9929 -1.4877  0.1518
13859TIP3   OH262991   3.075   3.422   2.541 -0.0167  0.2145  0.8761
13859TIP3    H162992   2.995   3.406   2.591 -0.2283 -0.2639  0.4053
13859TIP3    H262993   3.059   3.505   2.497 -1.4360 -1.1310 -1.3763
13860TIP3   OH262994   3.578   4.421   1.834 -0.4301 -0.3325 -0.1269
13860TIP3    H162995   3.662   4.441   1.792 -0.2016 -0.4221  0.2816
13860TIP3    H262996   3.550   4.340   1.792  0.2153 -0.8888  0.4838
13861TIP3   OH262997   5.924   3.359  11.955 -0.0714  0.0751 -0.0015
13861TIP3    H162998   5.917   3.358  11.859 -1.1492  0.8307  0.0567
13861TIP3    H262999   5.945   3.450  11.975 -0.7159  0.1057  0.5387
13862TIP3   OH263000   3.053   6.419   6.068 -0.3385  0.7894 -0.1436
13862TIP3    H163001   3.098   6.398   6.150 -0.3374 -0.4871 -0.4491
13862TIP3    H263002   2.960   6.403   6.087 -0.1247 -2.1581 -1.0950
13863TIP3   OH263003   6.375   6.445   2.457  0.4205  0.4615 -0.3698
13863TIP3    H163004   6.358   6.507   2.527 -0.1473  0.8879 -0.8784
13863TIP3    H263005   6.359   6.359   2.497 -0.0432  0.7092 -0.0237
13864TIP3   OH263006   4.102   6.480  13.251  0.0765  0.5361  0.0292
13864TIP3    H163007   4.089   6.494  13.157  0.4036  0.8752  0.0321
13864TIP3    H263008   4.062   6.395  13.268 -0.1722  0.5668 -0.3766
13865TIP3   OH263009   4.097   3.711  16.285 -0.3254 -0.1616  0.0342
13865TIP3    H163010   4.103   3.672  16.198  0.0897 -1.3886  0.5882
13865TIP3    H263011   4.009   3.687  16.316  0.3012 -1.6089  0.7835
13866TIP3   OH263012   0.859   1.447  15.266  0.0377 -0.5271  0.1143
13866TIP3    H163013   0.950   1.473  15.250 -0.4524  1.4435  0.3454
13866TIP3    H263014   0.840   1.383  15.197  0.8550  0.8811 -1.4773
13867TIP3   OH263015   4.549   5.498   3.271  0.0421  0.7517  0.3831
13867TIP3    H163016   4.552   5.447   3.352 -0.2375 -0.5368 -0.3824
13867TIP3    H263017   4.587   5.441   3.205 -0.5385  1.4274 -0.5704
13868TIP3   OH263018   4.814   1.798   4.355  0.0717  0.3516 -0.0195
13868TIP3    H163019   4.722   1.772   4.353  0.5323 -1.3532 -0.2401
13868TIP3    H263020   4.815   1.878   4.407 -1.5615  0.5093 -0.1982
13869TIP3   OH263021   0.715   0.433  17.146 -0.4409 -0.1655 -0.1407
13869TIP3    H163022   0.741   0.342  17.155 -0.8165 -0.2052  0.5372
13869TIP3    H263023   0.707   0.466  17.235  3.4760  1.6335 -0.2496
13870TIP3   OH263024   1.513   2.456   4.006  0.0233  0.1166 -0.0281
13870TIP3    H163025   1.446   2.473   3.940  0.3102  0.4165 -0.2435
13870TIP3    H263026   1.486   2.506   4.083 -0.3382 -0.2742  0.1020
13871TIP3   OH263027   1.840   4.102  14.515 -0.2242  0.0534 -0.4121
13871TIP3    H163028   1.853   4.153  14.435 -0.8031 -0.4848 -0.8543
13871TIP3    H263029   1.877   4.016  14.495  1.7645  0.5850  0.7100
13872TIP3   OH263030   5.915   6.735  16.612  0.0396 -0.1282 -0.5213
13872TIP3    H163031   5.921   6.759  16.705  1.8881  1.7731 -1.0597
13872TIP3    H263032   5.989   6.675  16.598 -1.5437 -2.2458 -0.3497
13873TIP3   OH263033   1.579   3.107  15.453 -0.0535 -0.1409 -0.2123
13873TIP3    H163034   1.503   3.104  15.396  0.1413  0.7272 -0.5309
13873TIP3    H263035   1.554   3.055  15.530 -1.5511  1.4272  0.3994
13874TIP3   OH263036   2.487   1.529  14.025  0.0781 -0.3340 -0.9518
13874TIP3    H163037   2.413   1.533  14.085  1.2442 -0.9744  0.6152
13874TIP3    H263038   2.454   1.482  13.948 -1.4428  0.4756 -0.8234
13875TIP3   OH263039   3.297   1.184   0.786 -0.0949  0.0058 -0.2218
13875TIP3    H163040   3.271   1.196   0.877  0.6718  1.8055 -0.1994
13875TIP3    H263041   3.214   1.171   0.739 -0.5736  0.1095  0.5826
13876TIP3   OH263042   1.151   0.121  15.471  0.3485 -0.4283 -0.5366
13876TIP3    H163043   1.181   0.117  15.562 -0.4240  0.8407 -0.1976
13876TIP3    H263044   1.186   0.204  15.438 -0.2569 -0.3810 -1.0679
13877TIP3   OH263045   5.162   3.811   4.032  0.6380 -0.1188 -0.5813
13877TIP3    H163046   5.221   3.756   4.084 -1.1368 -0.6640  0.9710
13877TIP3    H263047   5.119   3.750   3.973 -0.4848 -0.2570  0.3404
13878TIP3   OH263048   3.328   6.476  11.945  0.1741 -0.1890  0.2764
13878TIP3    H163049   3.282   6.527  12.012  0.9156 -0.5214  1.0610
13878TIP3    H263050   3.281   6.393  11.942 -0.1637  0.0104  0.0280
13879TIP3   OH263051   0.097   5.396  12.289 -0.0429 -0.7211 -0.0693
13879TIP3    H163052   0.125   5.381  12.379 -0.7767  0.1781  0.3308
13879TIP3    H263053   0.104   5.310  12.246  0.9090 -1.0250  0.6643
13880TIP3   OH263054   2.036   5.157  16.898 -0.3201  0.2103  0.1926
13880TIP3    H163055   2.100   5.191  16.835  0.8815 -0.7237  0.8391
13880TIP3    H263056   2.075   5.075  16.928 -2.3150 -0.9001 -0.0932
13881TIP3   OH263057   3.960   0.910  11.071  0.3535  0.1445  0.4284
13881TIP3    H163058   3.929   0.941  10.986  0.9971 -0.6532 -0.1141
13881TIP3    H263059   4.056   0.918  11.066  0.4161 -0.1788  0.9684
13882TIP3   OH263060   5.886   1.580   3.794  0.0991 -0.2117 -0.0444
13882TIP3    H163061   5.902   1.503   3.740 -0.7475 -1.0883  0.9240
13882TIP3    H263062   5.803   1.615   3.761 -1.0875 -1.4739  1.4282
13883TIP3   OH263063   1.726   1.648   4.507 -0.2446 -0.4131 -0.4051
13883TIP3    H163064   1.781   1.724   4.523 -0.5461 -0.1866 -0.4252
13883TIP3    H263065   1.783   1.573   4.521 -0.4629 -0.2458  1.7280
13884TIP3   OH263066   4.070   6.059  16.821 -0.0285  0.1254 -0.5064
13884TIP3    H163067   4.061   6.003  16.744 -0.1227  0.1552 -0.5170
13884TIP3    H263068   3.992   6.114  16.820  0.2473  0.5105 -0.6985
13885TIP3   OH263069   3.733   1.904   3.335  0.5588  0.5625  0.7946
13885TIP3    H163070   3.740   1.813   3.307 -1.6277  0.8431 -0.9498
13885TIP3    H263071   3.813   1.920   3.384  1.7769 -1.8124 -0.2439
13886TIP3   OH263072   2.922   6.400   2.577 -0.9225 -0.1803 -0.1114
13886TIP3    H163073   2.961   6.484   2.599  0.4009 -0.9170  0.5202
13886TIP3    H263074   2.828   6.413   2.586 -0.6972  1.0249  0.6983
13887TIP3   OH263075   3.823   5.013  16.064  0.2706  0.1912  0.4027
13887TIP3    H163076   3.919   5.011  16.053  0.0877 -0.7762 -1.5907
13887TIP3    H263077   3.800   4.924  16.090 -0.1309  0.2398  0.2246
13888TIP3   OH263078   5.050   4.472  12.946  0.0607 -0.3584 -0.0551
13888TIP3    H163079   5.134   4.486  12.989  0.5841  0.1497 -1.2045
13888TIP3    H263080   5.002   4.554  12.962 -0.3204 -0.7279  0.7799
13889TIP3   OH263081   0.862   1.483  16.434 -0.1404 -0.3643 -0.3672
13889TIP3    H163082   0.885   1.395  16.463 -0.5311 -0.5294 -0.5440
13889TIP3    H263083   0.766   1.483  16.430 -0.1673  0.2496  0.1816
13890TIP3   OH263084   2.534   3.759   3.361 -0.2600 -0.1839  0.0990
13890TIP3    H163085   2.534   3.855   3.364  0.7281 -0.0898 -1.6876
13890TIP3    H263086   2.624   3.734   3.382 -0.4000 -0.7133  0.0820
13891TIP3   OH263087   0.412   5.919   1.500 -0.1419 -0.0261  0.0992
13891TIP3    H163088   0.449   5.945   1.416  2.0555  0.3628  1.1297
13891TIP3    H263089   0.353   5.990   1.524  0.4181  0.6024 -0.3775
13892TIP3   OH263090   6.037   2.386   1.440  0.4576  0.2676 -0.1218
13892TIP3    H163091   6.005   2.368   1.529 -1.9794 -0.2245 -1.0064
13892TIP3    H263092   6.027   2.481   1.431  2.5340  0.6080  0.7271
13893TIP3   OH263093   4.261   6.736   2.938 -0.4259 -0.4007 -0.3191
13893TIP3    H163094   4.209   6.775   2.868  0.8438 -0.6003 -1.3948
13893TIP3    H263095   4.329   6.687   2.893  0.1916 -0.8417  1.0597
13894TIP3   OH263096   2.462   4.961   3.355  0.0423  0.7686  0.1269
13894TIP3    H163097   2.441   5.035   3.413 -1.2035  0.6670 -0.1606
13894TIP3    H263098   2.415   4.887   3.393  0.7534  0.2650  0.0411
13895TIP3   OH263099   4.990   3.327   3.862  0.2374 -0.4300 -0.0540
13895TIP3    H163100   5.013   3.251   3.810  1.6971  0.8658 -1.4050
13895TIP3    H263101   5.074   3.369   3.882 -0.5700  1.3977 -0.2758
13896TIP3   OH263102   0.782   6.744  16.056  0.1255 -0.2477  0.2790
13896TIP3    H163103   0.756   6.745  15.964 -0.3821 -0.2169  0.4187
13896TIP3    H263104   0.752   6.829  16.090  0.5166 -0.1640  0.4184
13897TIP3   OH263105   5.820   0.274   1.667  0.6127 -0.5477 -0.0966
13897TIP3    H163106   5.809   0.366   1.643 -0.1611 -0.4607  0.5343
13897TIP3    H263107   5.895   0.244   1.615 -0.2529 -0.0590 -1.7048
13898TIP3   OH263108   0.873   5.431  12.076 -0.2716 -0.0670  0.4681
13898TIP3    H163109   0.865   5.364  12.007  2.3746 -0.2032  0.2082
13898TIP3    H263110   0.863   5.514  12.029  1.4481 -0.1619 -0.1487
13899TIP3   OH263111   1.467   1.024  14.041  0.3163  0.2421 -0.1051
13899TIP3    H163112   1.468   0.929  14.026 -2.1378  0.5458 -3.1762
13899TIP3    H263113   1.525   1.059  13.973  1.4906  1.0162  1.2319
13900TIP3   OH263114   3.813   4.676   2.428 -0.4821 -0.0034 -0.3156
13900TIP3    H163115   3.793   4.603   2.370 -3.5056  0.4786 -0.0597
13900TIP3    H263116   3.796   4.755   2.376 -2.0889  0.4305  0.7603
13901TIP3   OH263117   0.017   1.681  16.569  0.4454 -0.4443 -0.1266
13901TIP3    H163118   0.049   1.728  16.647  1.2721 -1.1200 -0.0451
13901TIP3    H263119  -0.059   1.732  16.541 -0.8692 -1.0672  2.0520
13902TIP3   OH263120   2.436   4.513  11.300  0.4785  0.0096 -0.4954
13902TIP3    H163121   2.405   4.434  11.256  2.1209  0.5036 -2.6951
13902TIP3    H263122   2.406   4.585  11.245 -0.8086  0.9809  1.3638
13903TIP3   OH263123   4.200   5.393  12.008  0.4888  0.3590  0.6632
13903TIP3    H163124   4.129   5.402  11.944  0.2245 -2.7409  0.3547
13903TIP3    H263125   4.196   5.473  12.060 -1.4772  1.4752 -1.0530
13904TIP3   OH263126   1.572   5.760   0.868 -0.5020 -0.4300 -0.6312
13904TIP3    H163127   1.635   5.771   0.797 -0.7155 -0.3473 -0.8087
13904TIP3    H263128   1.545   5.848   0.891  1.8585 -0.2028  1.6573
13905TIP3   OH263129   5.262   3.999   4.434  0.2125  0.4075 -0.3811
13905TIP3    H163130   5.173   3.967   4.446  0.0051  0.5632 -1.4002
13905TIP3    H263131   5.299   3.943   4.366  0.7650  0.5820 -0.2297
13906TIP3   OH263132   4.558   5.866  15.104  0.2976  0.6550  0.6347
13906TIP3    H163133   4.626   5.805  15.074  0.7154  1.3629  0.1301
13906TIP3    H263134   4.560   5.858  15.199  1.4773  1.0715  0.6569
13907TIP3   OH263135   1.204   3.428   5.028 -0.3956  0.2155 -0.0199
13907TIP3    H163136   1.224   3.520   5.009  0.0536  0.4658  1.5578
13907TIP3    H263137   1.282   3.394   5.071 -0.1317 -1.2461 -1.5589
13908TIP3   OH263138   2.282   3.114  15.203 -0.0520 -1.0347 -0.2332
13908TIP3    H163139   2.283   3.122  15.107 -1.8642 -2.7709 -0.4477
13908TIP3    H263140   2.256   3.201  15.234  0.5532 -0.4491 -1.2961
13909TIP3   OH263141   1.174   6.172  16.700  0.2100  0.6626  0.7083
13909TIP3    H163142   1.083   6.190  16.726  0.7972  3.2358  1.1923
13909TIP3    H263143   1.183   6.214  16.615  0.9515  0.3558  0.6345
13910TIP3   OH263144   2.244   4.384   3.105  0.0685 -0.4109 -0.5450
13910TIP3    H163145   2.205   4.437   3.035  2.1178 -0.2466 -1.6536
13910TIP3    H263146   2.172   4.370   3.167 -1.5130  0.4811 -2.0622
13911TIP3   OH263147   3.111   4.221   1.267  0.1493 -0.1276  0.3753
13911TIP3    H163148   3.149   4.192   1.184  0.2601  0.2527  0.2925
13911TIP3    H263149   3.031   4.169   1.277  0.8957 -1.2458  0.7529
13912TIP3   OH263150   4.575   1.158  16.800 -0.6257 -0.3226 -0.1944
13912TIP3    H163151   4.641   1.106  16.755 -0.1056 -1.6625  1.9927
13912TIP3    H263152   4.503   1.166  16.737  1.6371  1.4617 -2.7628
13913TIP3   OH263153   3.254   0.683  12.506  0.1013 -0.1729 -0.0386
13913TIP3    H163154   3.310   0.654  12.434  0.2798  2.5706 -1.1017
13913TIP3    H263155   3.216   0.602  12.540  2.3528 -1.8522 -1.2133
13914TIP3   OH263156   1.586   0.354  11.967  0.0969 -0.0282  0.4709
13914TIP3    H163157   1.560   0.356  11.875  3.1028  0.1229 -0.4938
13914TIP3    H263158   1.545   0.431  12.006 -1.6957 -0.4132 -0.5760
13915TIP3   OH263159   3.237   2.326   1.430  0.3609  0.6036  0.2591
13915TIP3    H163160   3.193   2.367   1.356 -2.6596  0.1537  1.6403
13915TIP3    H263161   3.221   2.233   1.419  0.2557  0.4962  1.2580
13916TIP3   OH263162   0.529   5.440   1.026  0.5796  0.0903 -0.0261
13916TIP3    H163163   0.539   5.365   0.969 -0.2567 -0.2123  0.2160
13916TIP3    H263164   0.441   5.473   1.008  1.4721  1.9692 -1.2645
13917TIP3   OH263165   6.179   5.926  13.468 -0.1928 -0.4560 -0.1065
13917TIP3    H163166   6.265   5.969  13.474 -0.4859  0.1893 -0.3785
13917TIP3    H263167   6.121   5.985  13.516 -1.0727  0.7327 -2.4407
13918TIP3   OH263168   4.547   1.149   0.050  0.3410  0.0015 -0.1679
13918TIP3    H163169   4.506   1.075   0.095  2.0773 -1.6183 -1.0971
13918TIP3    H263170   4.566   1.116  -0.038 -0.0533  2.0252 -1.0601
13919TIP3   OH263171   3.550   1.705   0.071 -0.1986  0.2736  0.5311
13919TIP3    H163172   3.489   1.647   0.117 -1.3210 -0.6993 -2.0327
13919TIP3    H263173   3.635   1.663   0.081 -0.4288  0.0226  1.5626
13920TIP3   OH263174   1.154   0.557   1.339 -0.1733  0.3905  0.4560
13920TIP3    H163175   1.184   0.499   1.408  0.5582  2.4432  1.9543
13920TIP3    H263176   1.226   0.559   1.275 -0.1625 -0.2434  0.4477
13921TIP3   OH263177   4.546   6.452  14.483  0.0025 -0.1667  0.4602
13921TIP3    H163178   4.531   6.496  14.567 -0.1384 -0.7701  0.7519
13921TIP3    H263179   4.606   6.380  14.503  0.5159  0.0987 -0.0816
13922TIP3   OH263180   2.872   2.696   3.117 -0.1804 -0.1664  0.3061
13922TIP3    H163181   2.909   2.617   3.078 -1.8982 -0.6534 -0.4109
13922TIP3    H263182   2.787   2.707   3.075 -1.3907  0.2649  2.6551
13923TIP3   OH263183   0.879   1.797   2.041 -0.3270  0.1591  0.4310
13923TIP3    H163184   0.963   1.834   2.015 -0.7152  1.6489  1.2099
13923TIP3    H263185   0.816   1.867   2.024 -1.3563 -0.7795  0.2756
13924TIP3   OH263186   1.540   1.068   4.485 -0.0663  0.0536 -0.3163
13924TIP3    H163187   1.532   1.028   4.572 -2.1006  0.9393 -0.0541
13924TIP3    H263188   1.532   0.994   4.424 -1.6618 -0.2320  0.2049
13925TIP3   OH263189   6.524   0.735  11.493  0.4691 -0.3466 -0.3663
13925TIP3    H163190   6.449   0.726  11.552 -0.3767 -1.9054 -1.5756
13925TIP3    H263191   6.595   0.766  11.548 -0.6677 -0.3299  1.1488
13926TIP3   OH263192   0.709   3.637   1.880 -0.2959  0.2073  0.4529
13926TIP3    H163193   0.663   3.635   1.964 -0.9152 -0.5772  0.1129
13926TIP3    H263194   0.655   3.691   1.823 -0.5714 -0.3381  0.1863
13927TIP3   OH263195   1.439   5.927  10.962  0.4784  0.0301 -0.5519
13927TIP3    H163196   1.380   5.854  10.981 -1.0740  0.9514 -1.6456
13927TIP3    H263197   1.457   5.918  10.868  0.4256  0.9364 -0.6516
13928TIP3   OH263198   4.904   1.421   1.708 -0.0061 -0.0268  0.2939
13928TIP3    H163199   4.846   1.349   1.685  1.8010 -1.2434 -0.6944
13928TIP3    H263200   4.861   1.464   1.782 -2.6376 -0.2225 -1.0010
13929TIP3   OH263201   3.469   3.124  12.354 -0.2340  0.5953  0.3321
13929TIP3    H163202   3.514   3.100  12.435  0.3473 -3.8846 -1.0659
13929TIP3    H263203   3.376   3.122  12.376 -0.2444 -3.1799  0.5456
13930TIP3   OH263204   0.836   3.464  15.321 -0.2195 -0.0387  0.2541
13930TIP3    H163205   0.902   3.524  15.286  1.7198 -1.9507  0.4284
13930TIP3    H263206   0.886   3.393  15.360 -2.3827 -2.1281 -0.5149
13931TIP3   OH263207   1.199   1.031  14.019  0.2259 -0.4943 -0.2986
13931TIP3    H163208   1.293   1.040  14.029  0.3150  0.7124 -1.8182
13931TIP3    H263209   1.182   1.055  13.927 -1.5075 -1.0702 -0.1689
13932TIP3   OH263210   2.204   0.395   3.599 -0.1261  0.0134 -0.2830
13932TIP3    H163211   2.232   0.303   3.596  1.6529  0.4678  0.6925
13932TIP3    H263212   2.166   0.405   3.686  1.2734  0.5731  0.3005
13933TIP3   OH263213   0.834   0.299  11.205  0.4272 -0.1714 -0.1994
13933TIP3    H163214   0.858   0.378  11.253  0.5304 -0.2052 -0.1942
13933TIP3    H263215   0.753   0.269  11.246  0.1653  0.1595 -0.4679
13934TIP3   OH263216   0.506   3.391  11.743  0.1643  0.1633  0.2700
13934TIP3    H163217   0.523   3.477  11.705  0.4533  0.1401  0.3466
13934TIP3    H263218   0.587   3.342  11.730  0.6236  0.4723  1.7590
13935TIP3   OH263219   3.831   5.235   4.497  0.9658  0.0327  0.6686
13935TIP3    H163220   3.777   5.271   4.427  1.7694 -0.2493 -0.1150
13935TIP3    H263221   3.769   5.213   4.566 -0.1768 -1.9090 -0.8748
13936TIP3   OH263222   5.033   3.800   1.603 -0.1279 -0.1337 -0.3072
13936TIP3    H163223   5.074   3.783   1.688  0.0311  0.6816 -0.2157
13936TIP3    H263224   5.021   3.713   1.565  1.6813 -0.4122 -0.3373
13937TIP3   OH263225   2.958   5.023  12.696  0.5519  0.4408 -0.1954
13937TIP3    H163226   3.029   5.086  12.684  1.4811 -0.3837  0.7083
13937TIP3    H263227   2.952   5.012  12.791 -0.4939  0.1648 -0.2833
13938TIP3   OH263228   3.108   4.278   6.492  0.4285  0.4277  0.1004
13938TIP3    H163229   3.064   4.203   6.532  1.3104 -1.5211 -2.3663
13938TIP3    H263230   3.175   4.303   6.556  0.7405 -1.5239  0.6038
13939TIP3   OH263231   0.715   3.650  16.298  0.2420 -0.2995 -0.6296
13939TIP3    H163232   0.678   3.693  16.220  1.8717  0.8600 -0.8353
13939TIP3    H263233   0.641   3.637  16.356 -1.0669 -1.3978 -2.4561
13940TIP3   OH263234   1.606   0.955  13.230 -1.0069  0.6117  0.6086
13940TIP3    H163235   1.693   0.960  13.268 -0.9887 -0.6698  0.7869
13940TIP3    H263236   1.617   0.983  13.139 -0.3385  0.0913  0.5259
13941TIP3   OH263237   6.038   5.525  11.251  0.4468  0.1841 -0.4290
13941TIP3    H163238   5.992   5.453  11.207 -0.1943 -0.1084  0.6835
13941TIP3    H263239   6.130   5.509  11.232  0.2307 -0.2557 -1.1762
13942TIP3   OH263240   4.624   1.160  13.881 -0.3010  0.6996  0.0695
13942TIP3    H163241   4.586   1.085  13.927 -3.1996  2.2373  0.3794
13942TIP3    H263242   4.641   1.225  13.949  0.1643  1.1116 -0.4325
13943TIP3   OH263243   3.552   5.434  11.577 -0.2999  0.8492 -0.3106
13943TIP3    H163244   3.515   5.349  11.556  0.5938  0.1313  0.8613
13943TIP3    H263245   3.601   5.459  11.499  0.6215 -0.4075 -0.1661
13944TIP3   OH263246   4.335   4.065  14.212  0.5090  0.0649 -0.6278
13944TIP3    H163247   4.387   4.129  14.163 -2.0460  2.2019 -0.7666
13944TIP3    H263248   4.305   4.113  14.289 -0.0603 -1.5639  0.1942
13945TIP3   OH263249   4.128   2.187  11.612  0.2543  0.0139  0.2094
13945TIP3    H163250   4.069   2.243  11.561 -0.9236 -1.2880  0.0592
13945TIP3    H263251   4.077   2.107  11.627  2.3430 -1.6069 -0.8257
13946TIP3   OH263252   4.560   1.812  14.368  0.2034  0.2509  0.4377
13946TIP3    H163253   4.614   1.887  14.344 -0.2376  0.9003  1.4062
13946TIP3    H263254   4.601   1.737  14.325  1.9081  0.7141  1.1895
13947TIP3   OH263255   0.333   0.543  12.582 -0.5044 -0.0365  0.4304
13947TIP3    H163256   0.343   0.638  12.586 -1.2161  0.0637 -0.0335
13947TIP3    H263257   0.417   0.509  12.615 -0.0338  0.7479  0.0759
13948TIP3   OH263258   3.516   0.288  17.002  0.3029  0.0491  0.0000
13948TIP3    H163259   3.469   0.207  16.986  0.3620  0.2194 -1.0589
13948TIP3    H263260   3.482   0.318  17.087  0.4104 -1.1513  0.4868
13949TIP3   OH263261   5.502   4.797   3.606 -0.4546  0.6941 -0.5242
13949TIP3    H163262   5.419   4.752   3.620 -0.8189  1.2619 -0.8223
13949TIP3    H263263   5.536   4.812   3.694 -1.3532  1.7025 -0.3191
13950TIP3   OH263264   4.284   1.839   3.439  0.2864  0.2624  0.3542
13950TIP3    H163265   4.258   1.925   3.408  0.9367  0.1790 -0.4753
13950TIP3    H263266   4.209   1.807   3.489 -0.5231  0.7047 -0.5560
13951TIP3   OH263267   3.781   6.326  15.212 -0.0280  0.1899  0.3390
13951TIP3    H163268   3.805   6.237  15.189 -0.9325 -0.3154  1.2929
13951TIP3    H263269   3.787   6.374  15.130  1.9965 -0.3720  0.0891
13952TIP3   OH263270   0.353   5.752  15.056 -0.2547 -0.8424 -1.0517
13952TIP3    H163271   0.371   5.696  14.980  1.1043 -0.0632 -1.3400
13952TIP3    H263272   0.440   5.771  15.092 -0.7302  0.6204 -0.6309
13953TIP3   OH263273   2.180   2.653   2.440 -0.3275  0.1224 -0.5471
13953TIP3    H163274   2.116   2.716   2.408 -0.1775 -0.0953 -1.2919
13953TIP3    H263275   2.194   2.593   2.367 -1.0842 -1.2863  0.4172
13954TIP3   OH263276   3.822   2.410  15.842 -0.5495  0.7096  0.1581
13954TIP3    H163277   3.832   2.315  15.833  0.2430  0.8570 -0.7599
13954TIP3    H263278   3.739   2.430  15.799 -0.3918  0.4963 -0.2591
13955TIP3   OH263279   6.280   1.111  11.201 -0.4186 -0.2235  0.2629
13955TIP3    H163280   6.303   1.120  11.109 -1.7202  0.2129 -0.0326
13955TIP3    H263281   6.351   1.058  11.238  0.3356 -0.0491 -0.8858
13956TIP3   OH263282   2.652   0.296  16.584 -0.9991 -0.1480 -0.1038
13956TIP3    H163283   2.738   0.295  16.542 -0.5443  2.5341  0.5804
13956TIP3    H263284   2.654   0.220  16.643  0.4049 -0.8587 -0.9972
13957TIP3   OH263285   3.623   0.446  12.059  0.3293  0.3784  0.5215
13957TIP3    H163286   3.657   0.455  11.969 -0.7667 -1.3105 -0.1069
13957TIP3    H263287   3.569   0.524  12.071  0.5967  0.6970 -0.2335
13958TIP3   OH263288   5.965   6.299  12.649  0.5331  0.0133 -0.2630
13958TIP3    H163289   6.031   6.235  12.676 -1.3336 -1.7589  0.3735
13958TIP3    H263290   6.003   6.342  12.572  2.1498 -1.3798 -0.3009
13959TIP3   OH263291   5.015   5.114  10.726 -0.5073 -0.1720  0.3122
13959TIP3    H163292   5.056   5.193  10.691 -2.4606  0.8181  0.1165
13959TIP3    H263293   4.958   5.083  10.655  0.7248 -2.2068  0.1223
13960TIP3   OH263294   0.194   2.947  14.404 -0.0671 -0.1254 -0.0349
13960TIP3    H163295   0.261   2.985  14.348  2.3756 -0.2453  2.5820
13960TIP3    H263296   0.132   3.018  14.421  1.7708  1.3407  0.8699
13961TIP3   OH263297   3.945   6.694  10.680 -0.3009  0.4923  0.3176
13961TIP3    H163298   4.027   6.691  10.729 -0.2376 -0.0307  0.1948
13961TIP3    H263299   3.931   6.603  10.652 -0.4257  0.7501 -0.4822
13962TIP3   OH263300   2.238   0.583   1.282 -0.0906 -0.1102  0.0512
13962TIP3    H163301   2.329   0.594   1.310 -0.6076 -0.2125  1.9220
13962TIP3    H263302   2.188   0.639   1.342 -1.3833 -1.1887  0.0140
13963TIP3   OH263303   0.419   4.315   5.093  0.2911  0.2239 -0.7431
13963TIP3    H163304   0.344   4.272   5.051 -1.3557  0.4447  1.7808
13963TIP3    H263305   0.493   4.259   5.070 -1.0117 -1.3656 -1.3679
13964TIP3   OH263306   0.895   6.219  11.299  0.0634  0.6075  0.3169
13964TIP3    H163307   0.804   6.193  11.285  0.6848 -1.0228 -1.1145
13964TIP3    H263308   0.928   6.238  11.211  1.8153 -1.5622  0.4063
13965TIP3   OH263309   0.456   0.330   4.774  0.0553  0.3243 -0.4081
13965TIP3    H163310   0.430   0.406   4.722  0.7530  1.3842  0.7502
13965TIP3    H263311   0.436   0.354   4.864  1.5322 -0.3097  0.1283
13966TIP3   OH263312   0.182   0.295   2.109  0.2017  0.2919 -0.2600
13966TIP3    H163313   0.184   0.388   2.132 -0.1185  0.6603 -1.6459
13966TIP3    H263314   0.155   0.251   2.190 -2.0706  1.6338 -0.1999
13967TIP3   OH263315   0.947   3.762  10.587 -0.2657 -0.1701 -0.1337
13967TIP3    H163316   0.888   3.712  10.645  0.6964  0.3681  1.3751
13967TIP3    H263317   1.032   3.759  10.632  0.2992  1.0382 -1.0781
13968TIP3   OH263318   4.680   1.627   3.162  0.0273 -0.1762 -0.2872
13968TIP3    H163319   4.747   1.655   3.099  0.8311 -0.4480  0.4202
13968TIP3    H263320   4.599   1.665   3.129  0.3870 -0.4614 -1.5874
13969TIP3   OH263321   3.752   3.344   2.959  0.5315 -0.0159 -0.4753
13969TIP3    H163322   3.667   3.364   2.919  0.7473  0.6263 -0.6214
13969TIP3    H263323   3.772   3.420   3.013  0.1897 -0.9168  0.9792
13970TIP3   OH263324   6.316   6.656   2.969  0.2547  0.2208  0.2396
13970TIP3    H163325   6.389   6.613   3.013  1.0340  2.0413  0.8037
13970TIP3    H263326   6.348   6.672   2.880  0.1177 -0.0085  0.1493
13971TIP3   OH263327   5.290   3.372   4.628  0.3892  0.1584  0.4336
13971TIP3    H163328   5.265   3.347   4.717 -0.3024 -1.3821 -0.1532
13971TIP3    H263329   5.386   3.367   4.627  0.5761  2.4924  1.6975
13972TIP3   OH263330   1.745   4.892  12.274  0.0083  0.7184  0.0714
13972TIP3    H163331   1.711   4.824  12.217 -3.1627  1.0441  1.3885
13972TIP3    H263332   1.798   4.844  12.338 -0.0587 -0.1755 -0.5204
13973TIP3   OH263333   1.632   2.159  15.868  0.0371  0.1960  0.6877
13973TIP3    H163334   1.726   2.169  15.852 -0.0998 -1.0992 -1.2233
13973TIP3    H263335   1.627   2.094  15.939  0.5655  0.4314  0.9489
13974TIP3   OH263336   5.972   0.324   2.805 -0.0435 -1.1062 -0.5539
13974TIP3    H163337   6.059   0.284   2.800  0.2209 -1.0916  2.3334
13974TIP3    H263338   5.941   0.302   2.893 -0.8099  3.0960  0.4234
13975TIP3   OH263339   5.081   1.243   1.979  1.1114 -0.7250  0.4282
13975TIP3    H163340   5.162   1.196   1.959  1.1344 -1.3077  1.8102
13975TIP3    H263341   5.107   1.310   2.042  0.8470  0.3400 -0.5637
13976TIP3   OH263342   2.868   1.530   3.879 -0.2228 -0.3038  0.2649
13976TIP3    H163343   2.875   1.446   3.924  0.0309  0.0690  0.9426
13976TIP3    H263344   2.941   1.581   3.912 -0.2749  0.1253 -0.2720
13977TIP3   OH263345   5.628   0.823  15.134 -0.1843 -0.3871 -0.7909
13977TIP3    H163346   5.712   0.865  15.117 -0.0699 -0.7413 -1.1110
13977TIP3    H263347   5.562   0.888  15.108 -0.0356  0.5113  0.9169
13978TIP3   OH263348   1.234   6.143  12.679 -0.2015 -0.2524 -0.4175
13978TIP3    H163349   1.252   6.050  12.663 -0.2977 -0.4608  0.5951
13978TIP3    H263350   1.195   6.144  12.766  0.0213  0.7681 -0.3265
13979TIP3   OH263351   0.228   4.339  13.625 -0.6511  0.1644 -0.6477
13979TIP3    H163352   0.279   4.410  13.664  0.0713  0.4655 -2.0696
13979TIP3    H263353   0.156   4.384  13.580 -1.3119 -0.1553  0.0716
13980TIP3   OH263354   6.242   1.515  14.305 -0.9573  0.0193 -1.0288
13980TIP3    H163355   6.321   1.559  14.273  0.8612 -2.6558 -0.5220
13980TIP3    H263356   6.243   1.530  14.399  0.3433 -1.9391 -0.6726
13981TIP3   OH263357   0.465   2.473  12.798  0.1374 -0.3108 -0.0164
13981TIP3    H163358   0.473   2.440  12.709 -1.4654 -1.2866  0.1546
13981TIP3    H263359   0.450   2.395  12.851  1.2004  0.2424  1.1442
13982TIP3   OH263360   0.322   5.993  13.891  0.1425  0.0781  0.0597
13982TIP3    H163361   0.408   5.955  13.907 -1.4863 -3.1851  2.2166
13982TIP3    H263362   0.314   5.995  13.796  1.0424 -3.6988 -0.2345
13983TIP3   OH263363   5.674   5.657   4.325 -0.1255 -0.3448  0.1607
13983TIP3    H163364   5.588   5.617   4.342 -0.0393 -0.4724  0.2975
13983TIP3    H263365   5.702   5.690   4.410  0.3237 -1.0207  0.2810
13984TIP3   OH263366   1.326   3.621  15.635 -0.3440  0.3261 -0.6514
13984TIP3    H163367   1.413   3.597  15.669 -0.1239  0.4737 -1.1053
13984TIP3    H263368   1.344   3.690  15.571 -0.9699  1.8085  0.7151
13985TIP3   OH263369   5.713   0.084  12.773  0.3026 -0.5453  0.8232
13985TIP3    H163370   5.645   0.132  12.821  0.7400  0.5196  0.4245
13985TIP3    H263371   5.700   0.110  12.682 -0.1286 -2.0622  0.4246
13986TIP3   OH263372   5.499   1.004  13.711 -0.5233 -0.2985  0.1526
13986TIP3    H163373   5.566   0.954  13.757 -0.7342  2.7534  4.4043
13986TIP3    H263374   5.429   0.941  13.693 -0.0788 -2.0288  3.5947
13987TIP3   OH263375   6.361   5.752  13.761 -0.1709  0.2853 -0.1693
13987TIP3    H163376   6.337   5.684  13.824 -2.8249  0.2439 -1.1322
13987TIP3    H263377   6.425   5.805  13.808  0.0595 -1.3638  1.5232
13988TIP3   OH263378   5.626   4.605   3.970  0.2791 -0.8444 -0.5039
13988TIP3    H163379   5.685   4.681   3.976  0.5580 -1.0633 -0.4274
13988TIP3    H263380   5.573   4.611   4.049 -0.2530 -0.2791 -0.8945
13989TIP3   OH263381   2.185   2.004   2.779  0.3677  0.0918 -0.0518
13989TIP3    H163382   2.197   1.983   2.872  0.8383 -1.7026 -0.4814
13989TIP3    H263383   2.114   1.946   2.751  0.6032  0.2259 -0.9331
13990TIP3   OH263384   3.052   4.314   3.089 -0.0900  0.1586  0.6256
13990TIP3    H163385   2.983   4.380   3.078  0.6690  0.8482 -0.1902
13990TIP3    H263386   3.019   4.238   3.042  0.6535  1.2551 -1.8884
13991TIP3   OH263387   1.689   0.007   2.202 -0.0566  0.1164 -0.1088
13991TIP3    H163388   1.784   0.012   2.217 -0.0968  1.4055 -0.1778
13991TIP3    H263389   1.652   0.007   2.291 -0.0626  1.9365 -0.0789
13992TIP3   OH263390   1.347   2.256   2.976 -0.1118  0.0179  0.2490
13992TIP3    H163391   1.433   2.292   2.953 -0.3085  0.0923 -0.3704
13992TIP3    H263392   1.365   2.165   2.999  0.1842  0.1290  0.4619
13993TIP3   OH263393   0.276   0.214  14.460  0.3795  0.0772  0.0312
13993TIP3    H163394   0.360   0.189  14.498 -0.2097 -0.1395  1.2347
13993TIP3    H263395   0.223   0.240  14.534 -0.7568 -0.1879 -0.6652
13994TIP3   OH263396   0.047   4.879   0.023 -0.3903 -0.1945 -0.2479
13994TIP3    H163397   0.033   4.851  -0.067 -1.6889 -0.7303  0.0947
13994TIP3    H263398  -0.024   4.942   0.040  0.3539  0.5663  0.1348
13995TIP3   OH263399   4.982   1.932   0.912 -0.7523 -0.2092 -0.1582
13995TIP3    H163400   5.048   1.914   0.845 -1.5974  1.0922 -1.4062
13995TIP3    H263401   4.931   2.005   0.876  0.3994  2.4190  3.0554
13996TIP3   OH263402   0.098   4.371  14.303  0.0744  0.3278 -0.3393
13996TIP3    H163403   0.186   4.334  14.306  0.0089  0.0742 -1.0938
13996TIP3    H263404   0.043   4.305  14.345  0.1882  0.3107 -0.2167
13997TIP3   OH263405   2.681   5.991   3.609 -0.1168 -0.1797  0.4488
13997TIP3    H163406   2.719   6.076   3.634  3.4601 -1.5256  0.1774
13997TIP3    H263407   2.674   5.943   3.692  0.7573 -0.6522  0.2532
13998TIP3   OH263408   0.488   2.381  16.999 -0.1872  0.0540  0.2480
13998TIP3    H163409   0.499   2.335  16.916 -2.3124  0.5730 -0.3642
13998TIP3    H263410   0.502   2.313  17.066  0.1555 -0.6733 -0.5428
13999TIP3   OH263411   6.374   1.560  12.842  0.7095  0.1423  0.5015
13999TIP3    H163412   6.449   1.558  12.902  2.1148 -0.2822 -1.1854
13999TIP3    H263413   6.344   1.470  12.837  0.3759  0.2356  0.8318
14000TIP3   OH263414   1.946   1.710  15.607 -0.2273 -0.1628  0.3383
14000TIP3    H163415   1.854   1.706  15.634 -0.4042  1.4108  0.0689
14000TIP3    H263416   1.977   1.794  15.641  1.2247 -0.8211  0.7293
14001TIP3   OH263417   6.340   1.466  11.072 -0.1099  0.4818 -0.2766
14001TIP3    H163418   6.414   1.476  11.012 -0.6522 -0.2448 -1.0797
14001TIP3    H263419   6.266   1.505  11.025 -0.3126  0.9337  0.3980
14002TIP3   OH263420   1.445   6.419   0.051 -0.2004 -0.3190  0.5367
14002TIP3    H163421   1.389   6.344   0.070  1.6138 -2.1823 -0.9035
14002TIP3    H263422   1.524   6.380   0.012  1.9009  2.1460  1.9597
14003TIP3   OH263423   2.386   5.973   3.821 -0.4787  0.0625 -0.1241
14003TIP3    H163424   2.299   5.947   3.791 -0.9510  2.7257 -1.3560
14003TIP3    H263425   2.372   6.055   3.867  1.3552  0.4857 -0.2300
14004TIP3   OH263426   1.548   1.250   6.053 -0.8849 -0.1061 -0.0878
14004TIP3    H163427   1.489   1.326   6.053 -1.1865 -0.3190  1.3654
14004TIP3    H263428   1.490   1.175   6.040 -1.4541 -0.6034  4.0342
14005TIP3   OH263429   5.153   4.387   5.721  0.4343 -0.6177 -0.1107
14005TIP3    H163430   5.063   4.418   5.714 -0.0357 -1.8022  0.3469
14005TIP3    H263431   5.167   4.335   5.642  1.4504  1.2365 -1.2243
14006TIP3   OH263432   2.867   1.096   1.954  0.5349 -0.3953 -0.2824
14006TIP3    H163433   2.835   1.155   2.023 -1.5643 -1.4186 -0.3044
14006TIP3    H263434   2.954   1.070   1.983  0.7940  1.3280  0.5970
14007TIP3   OH263435   4.596   3.638  12.829  0.4498 -0.2852 -0.1399
14007TIP3    H163436   4.591   3.664  12.737 -0.6178  2.3422  0.5872
14007TIP3    H263437   4.629   3.716  12.875 -1.0774 -0.7997  1.9758
14008TIP3   OH263438   3.904   5.820  15.165  0.1095 -0.3460  0.4022
14008TIP3    H163439   3.920   5.907  15.129 -1.0229 -0.5679 -0.7085
14008TIP3    H263440   3.921   5.760  15.092 -1.5042 -0.8631  0.4168
14009TIP3   OH263441   6.268   0.693  17.160 -0.4546 -0.1011 -0.6887
14009TIP3    H163442   6.188   0.708  17.211 -0.2919 -0.5229 -0.2880
14009TIP3    H263443   6.270   0.598  17.147  1.7453 -0.6321  2.3705
14010TIP3   OH263444   4.093   4.156   1.947  0.4956  0.2049  0.4101
14010TIP3    H163445   4.061   4.168   2.037  0.3618 -0.4972  0.4653
14010TIP3    H263446   4.058   4.231   1.899  0.9642  0.8386  1.0454
14011TIP3   OH263447   1.718   4.451   4.195 -0.1779  0.1956 -0.0683
14011TIP3    H163448   1.658   4.516   4.231 -1.7705 -1.1093 -0.1950
14011TIP3    H263449   1.749   4.402   4.272 -1.4643 -0.8567 -0.1665
14012TIP3   OH263450   2.955   1.034   4.251 -0.4153 -0.2059 -0.3924
14012TIP3    H163451   2.972   0.947   4.289  0.8054  0.8124  1.5492
14012TIP3    H263452   2.922   1.086   4.324  0.5903  1.4515 -1.0747
14013TIP3   OH263453   1.417   1.036   3.196 -0.6978  0.4046 -0.2928
14013TIP3    H163454   1.486   1.043   3.262 -0.3219  1.6627 -0.7858
14013TIP3    H263455   1.350   1.098   3.225 -1.3031 -0.2751 -0.2085
14014TIP3   OH263456   3.044   1.920   4.934  0.1539  0.4756  0.2899
14014TIP3    H163457   3.052   2.010   4.904  0.3520 -0.4894 -2.8631
14014TIP3    H263458   3.133   1.885   4.930  0.2760  0.3707  2.5717
14015TIP3   OH263459   2.384   5.765   3.241 -0.0065  0.5035  0.0681
14015TIP3    H163460   2.354   5.852   3.266 -0.9089  0.0781  0.5192
14015TIP3    H263461   2.448   5.741   3.308  0.2900  0.8386 -0.0936
14016TIP3   OH263462   1.006   1.665  14.265 -0.2678 -0.0593  0.1486
14016TIP3    H163463   1.074   1.640  14.327 -1.0952  1.0695  1.5720
14016TIP3    H263464   0.983   1.755  14.290 -2.5229 -0.5241 -0.0626
14017TIP3   OH263465   2.019   6.059   1.292 -1.0943  0.0030  0.6669
14017TIP3    H163466   1.954   6.002   1.251 -0.0261 -1.7444  1.3009
14017TIP3    H263467   2.000   6.053   1.386 -0.5545  0.1541  0.7901
14018TIP3   OH263468   4.413   5.354   4.300 -0.0716  0.3932 -0.6983
14018TIP3    H163469   4.381   5.389   4.383  2.0477  0.4042  0.1887
14018TIP3    H263470   4.375   5.412   4.234 -1.2489  0.8165  0.3084
14019TIP3   OH263471   0.853   0.607  16.521 -0.0325 -0.2206  0.0492
14019TIP3    H163472   0.791   0.540  16.494  0.0320  0.2710 -1.4311
14019TIP3    H263473   0.938   0.574  16.491 -0.1334  0.9773 -1.7180
14020TIP3   OH263474   5.246   1.665  11.897  0.3965 -0.6937 -0.0637
14020TIP3    H163475   5.166   1.633  11.938  2.0662 -1.7122  2.7239
14020TIP3    H263476   5.272   1.739  11.952  1.1097 -0.0458 -1.2436
14021TIP3   OH263477   0.591   5.928   5.302  0.7357 -0.3969 -0.3856
14021TIP3    H163478   0.527   5.900   5.237 -0.3203 -0.3194  0.5948
14021TIP3    H263479   0.611   6.018   5.279  0.4713 -0.4130 -0.6790
14022TIP3   OH263480   2.077   4.386   5.397  0.2138 -0.9650 -0.6349
14022TIP3    H163481   2.115   4.364   5.482 -1.4770  0.9942  0.7280
14022TIP3    H263482   2.033   4.305   5.369  0.2241 -1.4581  0.7022
14023TIP3   OH263483   2.634   4.003   3.027  0.2764 -0.5269  0.1425
14023TIP3    H163484   2.601   4.087   2.996  0.2389 -0.6566 -0.1738
14023TIP3    H263485   2.569   3.939   2.996  0.9360 -0.8150 -0.6933
14024TIP3   OH263486   6.331   2.828  13.082  0.1129 -0.3072  0.3414
14024TIP3    H163487   6.375   2.776  13.014 -0.6638  0.9523 -1.1868
14024TIP3    H263488   6.238   2.814  13.065 -0.1576  2.3200 -0.7941
14025TIP3   OH263489   3.518   5.754  11.888 -0.5202 -0.0427 -0.4195
14025TIP3    H163490   3.499   5.729  11.978  2.6974 -1.3596  0.0420
14025TIP3    H263491   3.537   5.848  11.892 -0.1055 -0.1511  0.3821
14026TIP3   OH263492   2.676   5.706  16.801  0.5716  0.1105  0.1965
14026TIP3    H163493   2.634   5.674  16.880  0.9728 -0.1498  0.3011
14026TIP3    H263494   2.618   5.677  16.730  1.0961 -1.1267  0.2591
14027TIP3   OH263495   5.691   5.221  16.281  0.2083 -0.0479  0.1984
14027TIP3    H163496   5.769   5.193  16.233  0.9476  0.9624  0.7727
14027TIP3    H263497   5.714   5.210  16.373 -0.2147  0.5292  0.3776
14028TIP3   OH263498   4.591   3.770  13.526  0.2154 -0.2827  0.3584
14028TIP3    H163499   4.539   3.768  13.607 -0.8395  1.5446 -0.2232
14028TIP3    H263500   4.548   3.706  13.469  1.0550 -1.6908  1.2508
14029TIP3   OH263501   2.478   1.006  10.464 -0.4542  0.8830  0.1856
14029TIP3    H163502   2.390   1.035  10.485  0.0697  2.2531  0.6085
14029TIP3    H263503   2.534   1.080  10.488  0.9187 -0.3599  0.9941
14030TIP3   OH263504   3.916   3.629  15.477 -0.0650 -0.3535 -0.1695
14030TIP3    H163505   3.958   3.631  15.563  0.5222 -0.3811 -0.4494
14030TIP3    H263506   3.886   3.538  15.468  2.7253 -1.2713 -1.3099
14031TIP3   OH263507   4.531   3.625   0.240 -0.4541  0.0545 -0.0660
14031TIP3    H163508   4.492   3.666   0.163 -0.4517  1.5039  0.6838
14031TIP3    H263509   4.605   3.574   0.205 -1.1829 -0.2885 -1.1433
14032TIP3   OH263510   4.278   2.012  17.209  0.5044 -0.2365 -0.3693
14032TIP3    H163511   4.338   1.978  17.143  0.7152 -0.7373  0.0667
14032TIP3    H263512   4.334   2.060  17.270  0.2348  0.7275 -0.8634
14033TIP3   OH263513   1.218   3.161  14.367  1.0146 -0.2613 -0.9173
14033TIP3    H163514   1.141   3.135  14.417  2.1126  0.2574  1.1422
14033TIP3    H263515   1.195   3.247  14.331  0.2635 -0.5733 -1.2125
14034TIP3   OH263516   6.369   4.635  16.766 -0.3685  0.0805  0.4514
14034TIP3    H163517   6.291   4.584  16.745  0.3363 -0.8925  0.1222
14034TIP3    H263518   6.343   4.690  16.840 -1.4976  0.1258  0.0404
14035TIP3   OH263519   4.688   1.588   0.913 -1.1953 -0.2292  0.2097
14035TIP3    H163520   4.677   1.657   0.847 -1.2678 -0.5860 -0.1603
14035TIP3    H263521   4.739   1.629   0.982  0.7171 -0.4172 -1.0041
14036TIP3   OH263522   0.314   6.260   3.239  0.0819 -0.5473 -0.2189
14036TIP3    H163523   0.358   6.338   3.208 -1.1806  0.4221  0.3416
14036TIP3    H263524   0.375   6.188   3.220  1.1350  0.5237 -0.9911
14037TIP3   OH263525   6.743   4.652   2.424  0.0343  0.8387  0.0583
14037TIP3    H163526   6.831   4.680   2.448  0.5823 -0.7461  0.0216
14037TIP3    H263527   6.732   4.567   2.467 -1.6957  1.2386  0.5136
14038TIP3   OH263528   2.503   5.539   3.888 -0.1908 -0.1089 -0.3879
14038TIP3    H163529   2.440   5.576   3.950 -0.8488 -0.1256 -1.0255
14038TIP3    H263530   2.472   5.569   3.802 -1.1656 -2.6443 -1.0191
14039TIP3   OH263531   4.721   5.228  14.009  0.3951 -0.6111  0.2282
14039TIP3    H163532   4.765   5.308  14.038 -0.4166 -0.3320  0.7256
14039TIP3    H263533   4.676   5.254  13.928 -1.1499 -0.1245  1.2168
14040TIP3   OH263534   5.065   4.986  16.940  0.5974  0.6524  0.2828
14040TIP3    H163535   4.985   5.025  16.903 -0.5636 -0.3924  1.5815
14040TIP3    H263536   5.052   4.990  17.035  2.5891  1.4055  0.5779
14041TIP3   OH263537   1.356   5.144   3.887 -0.3400  0.2479  0.8828
14041TIP3    H163538   1.386   5.229   3.857 -2.8898  1.4733  1.5064
14041TIP3    H263539   1.369   5.086   3.811 -0.2729  1.6340 -0.2053
14042TIP3   OH263540   0.912   2.126  13.076  0.4127  0.1632  0.8961
14042TIP3    H163541   0.902   2.072  12.998 -0.3418 -1.7621  2.2587
14042TIP3    H263542   0.890   2.215  13.047 -1.8670 -0.8157 -0.6231
14043TIP3   OH263543   1.510   1.427  14.785  0.7089 -0.0658  0.3790
14043TIP3    H163544   1.600   1.398  14.773  0.9671  0.7274  0.3368
14043TIP3    H263545   1.458   1.348  14.776  1.3471 -0.4251 -0.3118
14044TIP3   OH263546   4.756   5.790   3.680 -0.0922  0.2517  0.2967
14044TIP3    H163547   4.687   5.825   3.737 -0.3806 -1.2033  0.8751
14044TIP3    H263548   4.739   5.831   3.595 -1.2292  0.4877  0.6159
14045TIP3   OH263549   1.336   0.107  11.442  0.0450  0.4388 -0.2887
14045TIP3    H163550   1.397   0.152  11.384  0.9070 -1.2016 -0.7161
14045TIP3    H263551   1.364   0.016  11.441 -2.7018 -0.4926 -0.8573
14046TIP3   OH263552   3.890   0.906  11.419  0.0681 -0.1973  0.2434
14046TIP3    H163553   3.924   0.984  11.375 -1.2241  0.9170  1.1477
14046TIP3    H263554   3.824   0.871  11.360 -1.9638  1.5343  1.3373
14047TIP3   OH263555   6.585   1.859  16.482  0.2250  1.0088  0.5975
14047TIP3    H163556   6.519   1.928  16.487 -0.6690  0.1787  0.6775
14047TIP3    H263557   6.545   1.785  16.527  1.0982  0.3901  0.3784
14048TIP3   OH263558   1.925   5.097   0.389  0.6800  0.3877  0.3607
14048TIP3    H163559   1.953   5.030   0.328 -0.6594  1.3378 -1.3754
14048TIP3    H263560   1.917   5.051   0.473 -0.4241 -1.6860 -0.8152
14049TIP3   OH263561   4.445   3.201   0.201 -0.4358  0.3587 -0.6236
14049TIP3    H163562   4.361   3.162   0.228 -1.0692  3.0635  1.7661
14049TIP3    H263563   4.427   3.237   0.114 -0.6840 -1.9007 -1.5905
14050TIP3   OH263564   4.615   4.209   1.157  0.3097  0.5571 -0.1692
14050TIP3    H163565   4.530   4.215   1.112 -0.9759 -0.8248  1.8703
14050TIP3    H263566   4.614   4.281   1.219  0.8401  0.7944 -0.4340
14051TIP3   OH263567   3.456   4.017  16.208  0.0659  0.3018 -0.5450
14051TIP3    H163568   3.512   4.070  16.152  1.1601  0.2632  0.4794
14051TIP3    H263569   3.513   3.948  16.241 -1.5075 -2.1244 -2.5422
14052TIP3   OH263570   2.062   4.932  13.427 -0.3916 -0.1130 -0.2020
14052TIP3    H163571   1.979   4.980  13.426 -0.7517 -0.7353 -0.6251
14052TIP3    H263572   2.054   4.868  13.356  0.9786  0.6966 -1.1443
14053TIP3   OH263573   2.518   1.425   1.459 -0.6242  0.2500 -0.2338
14053TIP3    H163574   2.482   1.364   1.394 -0.3438 -0.6543  0.4484
14053TIP3    H263575   2.608   1.396   1.471 -0.9575 -0.2254  1.2901
14054TIP3   OH263576   3.903   5.716   2.713  0.1515  0.9092 -0.0392
14054TIP3    H163577   3.944   5.697   2.797 -2.7065 -4.3018  0.6406
14054TIP3    H263578   3.827   5.770   2.735  0.4666  1.1618  0.4322
14055TIP3   OH263579   2.182   4.074   3.166  0.8752  0.3199 -0.1668
14055TIP3    H163580   2.219   4.025   3.240 -1.1449 -1.0675  0.0058
14055TIP3    H263581   2.165   4.161   3.201 -0.1505 -0.3437  1.0922
14056TIP3   OH263582   4.341   6.677  16.722 -0.2727 -0.2874  0.2809
14056TIP3    H163583   4.337   6.632  16.637 -0.3668  0.3223 -0.0459
14056TIP3    H263584   4.435   6.683  16.741 -0.2794 -1.2002  0.6494
14057TIP3   OH263585   3.449   4.656   4.003  0.3703  0.0536  0.2347
14057TIP3    H163586   3.418   4.723   3.942 -0.2585  0.1773  0.6797
14057TIP3    H263587   3.501   4.705   4.068 -0.7859  0.2545  1.0417
14058TIP3   OH263588   6.309   3.695   2.835 -0.4917  0.9060  0.6541
14058TIP3    H163589   6.218   3.671   2.848 -0.3168 -1.2015 -1.3507
14058TIP3    H263590   6.352   3.670   2.917 -0.9944 -2.6190  0.0206
14059TIP3   OH263591   3.956   2.080  14.715 -0.0605 -0.7572 -0.0109
14059TIP3    H163592   3.887   2.101  14.652 -0.4096 -3.6573 -0.7396
14059TIP3    H263593   3.920   2.107  14.800 -1.1810 -0.2556 -0.6219
14060TIP3   OH263594   6.565   3.210  15.811  0.4156  0.0073 -0.4772
14060TIP3    H163595   6.581   3.233  15.903  2.7910 -1.9154 -0.2960
14060TIP3    H263596   6.472   3.191  15.806  0.2259  0.2112  1.5290
14061TIP3   OH263597   2.502   4.862  16.564  0.0972 -0.6073  0.0065
14061TIP3    H163598   2.528   4.938  16.512  0.1767 -1.2317 -0.8763
14061TIP3    H263599   2.419   4.887  16.603  0.0186 -0.1441 -0.4497
14062TIP3   OH263600   6.743   3.689   3.560  0.0899  1.0213 -0.5849
14062TIP3    H163601   6.732   3.734   3.643  1.2712  0.3799 -0.0520
14062TIP3    H263602   6.749   3.596   3.583 -2.3015  0.5186 -1.6543
14063TIP3   OH263603   4.759   6.562  15.137  0.2376  0.3215  0.3686
14063TIP3    H163604   4.694   6.492  15.143  0.2133  0.4138  1.2291
14063TIP3    H263605   4.843   6.517  15.133  0.2012  0.2401  0.5541
14064TIP3   OH263606   3.983   2.038  11.816  0.3096  0.0726 -0.1247
14064TIP3    H163607   3.938   1.955  11.802 -0.2810  0.3261  0.2153
14064TIP3    H263608   4.052   2.019  11.879 -0.5696  0.0775  0.8573
14065TIP3   OH263609   0.568   5.871   5.823 -0.4383  0.1882  0.1155
14065TIP3    H163610   0.560   5.875   5.728  2.6155  1.9385 -0.2034
14065TIP3    H263611   0.493   5.819   5.852  0.3185 -3.3898 -3.4718
14066TIP3   OH263612   4.388   3.150   0.635 -0.5057 -0.2313 -0.2757
14066TIP3    H163613   4.316   3.125   0.692 -0.5303 -1.1636 -0.6855
14066TIP3    H263614   4.355   3.136   0.546 -0.5860  1.5315 -0.5546
14067TIP3   OH263615   4.892   3.685  14.803 -0.3213  0.0219 -0.1028
14067TIP3    H163616   4.976   3.725  14.781  0.0023 -0.6714 -0.1537
14067TIP3    H263617   4.853   3.744  14.867  1.3237 -0.8871  1.8532
14068TIP3   OH263618   1.583   5.703   3.171  0.3215 -0.2937  0.0673
14068TIP3    H163619   1.567   5.642   3.099  1.9458  0.7272 -1.2325
14068TIP3    H263620   1.624   5.649   3.239  0.0708 -0.9982 -0.3239
14069TIP3   OH263621   2.238   1.644  14.310 -0.4263 -0.4758 -0.2221
14069TIP3    H163622   2.300   1.604  14.371  1.5270  0.6303 -1.3790
14069TIP3    H263623   2.164   1.583  14.308 -0.2748 -0.8886  2.6772
14070TIP3   OH263624   6.391   0.723   1.304 -0.8213  0.4770 -0.6570
14070TIP3    H163625   6.332   0.711   1.229  1.0083 -1.7322 -1.8776
14070TIP3    H263626   6.333   0.734   1.379 -2.7351  0.8459 -2.1120
14071TIP3   OH263627   1.785   4.987   2.626 -0.8163  0.2497  0.4102
14071TIP3    H163628   1.848   4.915   2.632  0.3157  0.9543 -1.9988
14071TIP3    H263629   1.755   5.000   2.716  2.0382 -0.5194  1.5615
14072TIP3   OH263630   2.734   0.858  11.176  0.9487 -0.0741  0.1020
14072TIP3    H163631   2.761   0.921  11.109 -2.4712  0.3879 -1.0373
14072TIP3    H263632   2.669   0.905  11.228 -0.5715 -2.1419  0.1952
14073TIP3   OH263633   4.234   3.187  15.535  0.4965 -0.0222 -0.0581
14073TIP3    H163634   4.197   3.165  15.620  0.1313 -0.5086 -0.3329
14073TIP3    H263635   4.328   3.186  15.548  0.4678 -1.0214  0.1200
14074TIP3   OH263636   4.011   0.776   6.298  0.3508 -0.4572 -0.0041
14074TIP3    H163637   3.989   0.860   6.338  0.5557 -0.6916  0.6237
14074TIP3    H263638   3.928   0.741   6.268  0.1148 -0.4942  0.6694
14075TIP3   OH263639   3.002   0.831   4.856  0.0895  0.0875 -0.1711
14075TIP3    H163640   3.069   0.833   4.924 -1.0079 -0.0693  0.9436
14075TIP3    H263641   2.963   0.918   4.859 -0.9717 -0.3997  0.4502
14076TIP3   OH263642   1.127   6.712   1.159  0.4596 -0.2687 -0.3439
14076TIP3    H163643   1.174   6.654   1.219  2.7199 -0.0466 -1.8103
14076TIP3    H263644   1.154   6.684   1.072  0.3377  1.9250 -1.1387
14077TIP3   OH263645   2.810   6.275  12.622  0.4033 -0.2426  0.0870
14077TIP3    H163646   2.818   6.191  12.576 -0.8685  0.2625 -1.1315
14077TIP3    H263647   2.716   6.284  12.639  0.6037  0.6492  0.7748
14078TIP3   OH263648   6.315   0.161  14.046  0.4046  0.1325 -0.4804
14078TIP3    H163649   6.324   0.160  14.141  0.6485 -0.8550 -0.5000
14078TIP3    H263650   6.260   0.237  14.028  0.5279  0.4531  0.4301
14079TIP3   OH263651   5.733   1.315   0.391 -0.3257  0.2579 -0.2858
14079TIP3    H163652   5.821   1.349   0.411 -0.4751 -0.0123  0.8885
14079TIP3    H263653   5.749   1.229   0.352 -0.0766 -1.0399  2.4163
14080TIP3   OH263654   5.637   5.474   1.417  0.5539 -0.0135  0.1878
14080TIP3    H163655   5.557   5.525   1.405 -0.3113 -1.1070  1.1221
14080TIP3    H263656   5.689   5.492   1.338 -0.2170  1.3734 -0.0432
14081TIP3   OH263657   4.069   5.108   3.074  0.2240  0.0163  0.2236
14081TIP3    H163658   4.127   5.162   3.020 -0.0027 -0.1143 -0.1464
14081TIP3    H263659   4.073   5.148   3.161  0.9963 -0.0810  0.2413
14082TIP3   OH263660   2.393   4.896  14.231 -0.2825 -0.6479  0.0165
14082TIP3    H163661   2.345   4.840  14.170 -2.1379  0.2589  0.5629
14082TIP3    H263662   2.419   4.838  14.302  0.6750 -1.4268 -0.9321
14083TIP3   OH263663   2.215   2.623  16.283 -0.6179  0.0774  0.0093
14083TIP3    H163664   2.177   2.690  16.340  0.2181  0.7490 -0.1954
14083TIP3    H263665   2.291   2.591  16.333 -0.8200 -0.4840 -0.0396
14084TIP3   OH263666   0.040   5.264  13.198 -0.0164 -0.5829  0.1686
14084TIP3    H163667  -0.021   5.325  13.238  0.8891  0.1903  0.4046
14084TIP3    H263668   0.124   5.282  13.240  1.0093  0.3068 -2.0787
14085TIP3   OH263669   5.438   0.377   4.221  0.0207 -0.2298 -0.1270
14085TIP3    H163670   5.392   0.297   4.192  0.1052  0.2303 -1.6330
14085TIP3    H263671   5.393   0.448   4.175 -0.5625  0.7257  1.7944
14086TIP3   OH263672   6.056   5.317  11.828 -0.6580  0.2362 -0.1511
14086TIP3    H163673   6.079   5.289  11.917 -0.1581 -0.3171 -0.4532
14086TIP3    H263674   6.118   5.387  11.809 -2.3401  2.1125  0.8668
14087TIP3   OH263675   4.425   1.171  14.758  0.1435 -0.4855  0.1143
14087TIP3    H163676   4.490   1.133  14.699 -0.0619 -1.6827  0.6369
14087TIP3    H263677   4.473   1.195  14.836  0.7920  2.8375 -1.1173
14088TIP3   OH263678   0.838   4.009   0.135  0.1011 -0.2345 -0.0405
14088TIP3    H163679   0.871   3.990   0.047  0.4685  0.9457 -0.1754
14088TIP3    H263680   0.876   3.940   0.189  0.3130 -0.6625 -0.7125
14089TIP3   OH263681   0.500   3.320   3.042  0.1820 -0.3894  0.1366
14089TIP3    H163682   0.539   3.312   2.955 -0.3076  0.1092 -0.1373
14089TIP3    H263683   0.486   3.414   3.053  0.5024 -0.4171  0.8795
14090TIP3   OH263684   1.413   4.456  12.791 -0.0245  0.1305 -0.2457
14090TIP3    H163685   1.479   4.457  12.721  2.3267 -0.0118  1.8347
14090TIP3    H263686   1.394   4.549  12.807  1.7019  0.3150  0.8945
14091TIP3   OH263687   5.331   0.883   0.848  0.3197 -0.0501 -0.5398
14091TIP3    H163688   5.415   0.842   0.871  0.2000  0.1479  0.2518
14091TIP3    H263689   5.342   0.975   0.871  0.0239  0.0606 -0.8271
14092TIP3   OH263690   0.094   2.045  15.363  0.1337  0.0365  0.3670
14092TIP3    H163691   0.094   2.119  15.423 -0.5340  1.0018 -0.7912
14092TIP3    H263692   0.173   2.057  15.310  0.5404 -0.6282  0.8019
14093TIP3   OH263693   5.453   6.015  13.560 -0.2703 -0.0858  0.3185
14093TIP3    H163694   5.478   5.940  13.613  2.0611 -0.1239 -0.7002
14093TIP3    H263695   5.478   6.091  13.614 -0.4184 -0.0653  0.3604
14094TIP3   OH263696   3.335   6.439  12.906 -0.3501 -0.3198 -0.0061
14094TIP3    H163697   3.372   6.367  12.956  0.9292  0.2319 -0.1118
14094TIP3    H263698   3.354   6.416  12.814  0.3709  0.2854 -0.0220
14095TIP3   OH263699   1.634   2.607  13.184  0.1968  0.4316 -0.2472
14095TIP3    H163700   1.559   2.587  13.128  0.1838  2.1519 -0.9279
14095TIP3    H263701   1.597   2.617  13.272 -0.1338 -0.1533 -0.3142
14096TIP3   OH263702   0.957   0.300  16.931 -0.2647  0.6109  0.4047
14096TIP3    H163703   0.898   0.296  17.007  1.3607 -2.0592  1.6734
14096TIP3    H263704   0.911   0.251  16.863  1.0156 -3.1274  1.9662
14097TIP3   OH263705   3.208   5.709  14.964  0.3328 -0.7454  0.7601
14097TIP3    H163706   3.221   5.655  15.042 -1.3476 -0.1463  1.5056
14097TIP3    H263707   3.217   5.799  14.996 -2.0469 -0.4286  0.6650
14098TIP3   OH263708   5.265   2.508   4.469 -0.4354 -0.1489 -0.2962
14098TIP3    H163709   5.286   2.588   4.518  0.8363 -0.3732 -0.4340
14098TIP3    H263710   5.276   2.437   4.532 -1.5603 -0.2291 -0.1747
14099TIP3   OH263711   3.643   2.969  16.862  0.2740  0.1489  0.3218
14099TIP3    H163712   3.632   3.064  16.872 -1.5335  0.0901 -0.5872
14099TIP3    H263713   3.733   2.952  16.888 -0.1628  1.7201  3.2853
14100TIP3   OH263714   5.695   1.092  14.346  0.1527  0.2901  0.1899
14100TIP3    H163715   5.689   1.100  14.251 -1.1712  2.1518  0.3544
14100TIP3    H263716   5.691   0.998  14.363 -0.2051 -0.0486 -1.5587
14101TIP3   OH263717   1.253   2.028   1.510 -0.4143 -0.2452  0.4566
14101TIP3    H163718   1.164   2.044   1.479 -1.2043 -0.0578  2.6525
14101TIP3    H263719   1.273   1.939   1.481 -0.9425  0.0078 -0.7932
14102TIP3   OH263720   4.757   5.380   6.519  0.4208 -0.4375  0.1678
14102TIP3    H163721   4.722   5.291   6.528  1.4854 -0.8422  0.4273
14102TIP3    H263722   4.841   5.369   6.474  0.4525  0.4650 -0.0176
14103TIP3   OH263723   4.280   3.681  14.643 -0.1964 -0.3709 -0.2983
14103TIP3    H163724   4.367   3.642  14.653 -0.0876 -0.6131 -1.9043
14103TIP3    H263725   4.228   3.613  14.600 -0.5185  0.5793 -1.4609
14104TIP3   OH263726   1.761   2.642  11.241 -0.8994 -0.0374  0.4802
14104TIP3    H163727   1.743   2.707  11.173 -0.5377 -0.1782  0.2448
14104TIP3    H263728   1.692   2.576  11.230  0.3598 -1.1647 -1.1604
14105TIP3   OH263729   2.972   4.627   1.404  0.4939  0.6178 -0.6561
14105TIP3    H163730   3.043   4.602   1.345  0.9735 -0.8254  0.4632
14105TIP3    H263731   2.979   4.722   1.412  0.9007  0.7657 -2.2727
14106TIP3   OH263732   3.377   3.035  15.660 -0.5480 -0.1118  0.4722
14106TIP3    H163733   3.423   3.084  15.728 -0.5699  0.7444 -0.1172
14106TIP3    H263734   3.291   3.077  15.653 -0.0872  0.6751 -0.9799
14107TIP3   OH263735   2.156   0.206  15.144 -0.0114  0.3022 -0.7513
14107TIP3    H163736   2.212   0.284  15.153 -0.3953  0.4928  0.0376
14107TIP3    H263737   2.138   0.179  15.234  1.1247 -1.4513 -1.0094
14108TIP3   OH263738   5.796   2.253  16.942  0.4262 -0.2062 -0.6851
14108TIP3    H163739   5.791   2.158  16.944  0.7048 -0.2114  0.6479
14108TIP3    H263740   5.878   2.274  16.986 -1.2197  0.7156  2.1754
14109TIP3   OH263741   1.728   6.677   4.722 -0.7737 -0.6508  0.2201
14109TIP3    H163742   1.719   6.706   4.812 -1.3413  0.1051 -0.0697
14109TIP3    H263743   1.722   6.581   4.726 -0.0882 -0.6652  1.0514
14110TIP3   OH263744   4.312   3.301  11.457 -0.4981  0.0335  0.3032
14110TIP3    H163745   4.257   3.380  11.457 -0.5136  0.1036 -2.1282
14110TIP3    H263746   4.258   3.235  11.500 -2.4565  0.1772 -1.7314
14111TIP3   OH263747   4.923   5.989  14.088 -0.0934  0.4027 -0.4728
14111TIP3    H163748   4.842   6.040  14.085 -0.5734 -0.3394 -0.4070
14111TIP3    H263749   4.942   5.970  13.996  0.0627  0.6615 -0.4946
14112TIP3   OH263750   0.378   6.647  14.504  0.2464 -0.0928  0.5336
14112TIP3    H163751   0.296   6.688  14.531 -0.7268 -1.4664 -0.1478
14112TIP3    H263752   0.355   6.598  14.424  2.2711  1.3528 -1.0572
14113TIP3   OH263753   4.191   2.890   3.152 -0.3621 -0.2483  0.1597
14113TIP3    H163754   4.144   2.925   3.076 -0.9018 -0.1994  0.5056
14113TIP3    H263755   4.224   2.805   3.123  0.9810  0.5346 -0.6973
14114TIP3   OH263756   4.946   6.241  13.530 -0.1883 -0.2646 -0.5804
14114TIP3    H163757   5.033   6.252  13.567  0.5623 -0.0852 -2.3337
14114TIP3    H263758   4.889   6.229  13.607  1.8173 -4.0749  0.5726
14115TIP3   OH263759   0.433   6.724   5.124  0.0597 -0.2085 -0.5455
14115TIP3    H163760   0.486   6.707   5.046 -0.9847 -1.6872 -0.9735
14115TIP3    H263761   0.454   6.814   5.148  1.3689 -0.1520 -1.7719
14116TIP3   OH263762   5.648   0.543  12.880 -0.0033 -0.0810 -0.1173
14116TIP3    H163763   5.699   0.471  12.917 -1.2003 -0.0592  1.6873
14116TIP3    H263764   5.648   0.610  12.949 -2.1911  0.0437 -0.1812
14117TIP3   OH263765   4.906   4.021  11.945  0.1130  0.3049 -0.1823
14117TIP3    H163766   4.901   4.074  11.865  1.9271  0.0693 -0.5029
14117TIP3    H263767   4.982   3.964  11.931  0.5321  0.3240  1.7539
14118TIP3   OH263768   2.941   6.459  15.929 -0.0727  0.4180 -0.2895
14118TIP3    H163769   2.934   6.465  16.025  1.3595 -0.0909 -0.1356
14118TIP3    H263770   2.942   6.550  15.900 -1.0374  0.5719  0.1288
14119TIP3   OH263771   0.276   3.897   4.808  0.3673 -0.2642 -0.1013
14119TIP3    H163772   0.263   3.946   4.726  0.3419  0.6166  0.4202
14119TIP3    H263773   0.190   3.898   4.850  0.5464 -0.0958  0.2659
14120TIP3   OH263774   2.873   4.139   0.947  0.5972 -0.2383 -0.0047
14120TIP3    H163775   2.788   4.170   0.975  1.2595 -0.8257  2.9762
14120TIP3    H263776   2.873   4.045   0.968  1.5075 -0.5413 -1.2352
14121TIP3   OH263777   5.319   2.050   2.928  0.2940 -0.0772 -0.1034
14121TIP3    H163778   5.236   2.097   2.929 -0.2179 -0.8983 -0.9859
14121TIP3    H263779   5.302   1.970   2.979 -0.0660 -1.1343 -1.7762
14122TIP3   OH263780   2.836   1.215   5.273  0.1065 -0.3998 -0.4511
14122TIP3    H163781   2.767   1.248   5.215  0.0181 -1.8626 -1.2029
14122TIP3    H263782   2.915   1.259   5.243 -0.5855  2.1193  1.0868
14123TIP3   OH263783   2.613   0.765   4.550 -0.0337 -0.0267 -0.0898
14123TIP3    H163784   2.705   0.788   4.542  0.4216 -1.8591 -0.6354
14123TIP3    H263785   2.565   0.842   4.520  1.3185  0.8432 -0.0630
14124TIP3   OH263786   1.950   3.988  16.878 -0.4696 -0.3301 -0.5082
14124TIP3    H163787   2.027   3.932  16.887  1.5661  2.1816 -1.1763
14124TIP3    H263788   1.887   3.951  16.940  0.8232 -3.1185 -0.6794
14125TIP3   OH263789   0.553   1.744   4.378  0.4492  0.4511  0.5752
14125TIP3    H163790   0.646   1.763   4.364  0.5410 -0.4707 -0.1070
14125TIP3    H263791   0.551   1.686   4.453  0.5099 -0.2397  0.0573
14126TIP3   OH263792   1.930   0.409   4.062  0.1868  0.1885 -0.5120
14126TIP3    H163793   1.941   0.445   4.150 -1.0256 -0.5622 -0.0196
14126TIP3    H263794   1.973   0.323   4.065  0.7674  0.4628 -0.8750
14127TIP3   OH263795   1.289   3.142  11.923 -0.2897  0.1373 -0.1719
14127TIP3    H163796   1.362   3.148  11.985 -1.3133 -2.1165  1.3573
14127TIP3    H263797   1.305   3.061  11.874 -2.0740 -0.7757  0.6744
14128TIP3   OH263798   1.965   5.032   4.777 -0.1433 -0.7057  0.0983
14128TIP3    H163799   2.042   4.984   4.747  1.1471  0.9761  0.5639
14128TIP3    H263800   1.890   4.985   4.740  1.0406 -2.9677  0.4744
14129TIP3   OH263801   5.210   4.354  15.499  0.0352  0.9014 -0.7684
14129TIP3    H163802   5.244   4.332  15.586 -0.2005 -0.0951 -0.9148
14129TIP3    H263803   5.261   4.430  15.472 -0.2271  1.5278  0.4429
14130TIP3   OH263804   4.573   5.855  11.361 -0.1886 -0.3004  0.0113
14130TIP3    H163805   4.523   5.930  11.391 -0.4482 -0.6965  0.5961
14130TIP3    H263806   4.650   5.893  11.319  0.1431  0.2894  1.1036
14131TIP3   OH263807   6.283   1.769  13.841 -0.1045  0.2177  0.0495
14131TIP3    H163808   6.273   1.846  13.898 -0.2441  0.4596 -0.3022
14131TIP3    H263809   6.196   1.730  13.838  0.0010 -0.0531  0.3584
14132TIP3   OH263810   2.382   2.280  13.250  0.3655  0.0179  0.6472
14132TIP3    H163811   2.292   2.250  13.259  0.6410 -1.3165 -0.5978
14132TIP3    H263812   2.384   2.366  13.292 -1.1227 -0.5600  1.9735
14133TIP3   OH263813   2.630   4.585   4.389 -0.0544 -0.0817 -0.0669
14133TIP3    H163814   2.541   4.618   4.398  0.2350  0.3184  1.6271
14133TIP3    H263815   2.666   4.632   4.314 -0.8387  0.7462  0.0635
14134TIP3   OH263816   1.387   1.387  14.292  0.8649 -0.1582  0.1960
14134TIP3    H163817   1.309   1.333  14.284 -0.5025  1.4762  1.5634
14134TIP3    H263818   1.433   1.351  14.368 -0.2372  0.7472  1.3380
14135TIP3   OH263819   4.109   4.188  11.277 -0.2967 -0.4580  0.1442
14135TIP3    H163820   4.084   4.142  11.197  0.8964 -0.2273 -0.3788
14135TIP3    H263821   4.071   4.275  11.268 -0.3243 -0.4946 -0.0856
14136TIP3   OH263822   5.681   0.389   2.520  0.4933  0.8284 -0.0893
14136TIP3    H163823   5.757   0.392   2.462 -1.6292 -0.1483 -3.1194
14136TIP3    H263824   5.684   0.301   2.558  0.7815  0.7322 -0.3261
14137TIP3   OH263825   2.268   6.378   4.146 -0.2812  0.0345 -0.1883
14137TIP3    H163826   2.310   6.300   4.109  2.9712  1.6407 -0.2451
14137TIP3    H263827   2.302   6.451   4.093 -2.9906  1.5771  0.0252
14138TIP3   OH263828   6.253   6.127   5.882 -0.1204  0.1076  0.1559
14138TIP3    H163829   6.319   6.067   5.917 -0.1740  0.7437  1.4304
14138TIP3    H263830   6.178   6.118   5.941  0.1723  1.9780  0.8809
14139TIP3   OH263831   3.495   3.518   3.689 -0.2164 -0.3045 -0.2919
14139TIP3    H163832   3.556   3.445   3.687 -0.7425 -0.8364  1.2438
14139TIP3    H263833   3.497   3.549   3.780 -0.9822  0.7420 -0.6048
14140TIP3   OH263834   3.224   3.551   1.671 -0.3506  0.2985  0.5171
14140TIP3    H163835   3.133   3.571   1.648  0.0540  0.6963 -0.7804
14140TIP3    H263836   3.226   3.455   1.679 -0.5513  0.1431 -1.0081
14141TIP3   OH263837   2.567   0.153   4.657 -0.1054  0.7468  0.3690
14141TIP3    H163838   2.549   0.212   4.585 -0.6068 -0.3545 -0.4386
14141TIP3    H263839   2.601   0.209   4.727  2.2176  1.6011 -1.3429
14142TIP3   OH263840   6.074   6.047   2.141 -0.1974  0.3288 -0.1851
14142TIP3    H163841   6.116   6.117   2.190 -0.3623 -1.2157  2.3515
14142TIP3    H263842   5.986   6.040   2.177  0.1594 -1.8259  0.4597
14143TIP3   OH263843   2.482   1.927  13.061 -0.0249 -0.4711  0.3444
14143TIP3    H163844   2.440   1.843  13.043 -0.2558 -0.1526 -0.7184
14143TIP3    H263845   2.472   1.940  13.155  1.0032 -2.1540  0.7302
14144TIP3   OH263846   1.160   2.184  16.426  0.1989 -0.1248  0.4177
14144TIP3    H163847   1.215   2.120  16.381 -0.4594 -0.6620  0.3585
14144TIP3    H263848   1.181   2.268  16.384  0.6800 -0.3857  0.1355
14145TIP3   OH263849   5.999   1.937   0.799 -0.0759 -0.0266 -0.0600
14145TIP3    H163850   5.953   1.877   0.740 -1.0581 -0.7965  1.4460
14145TIP3    H263851   6.091   1.927   0.775 -0.4216 -0.5643 -1.2408
14146TIP3   OH263852   4.280   2.544   2.589  0.1869  0.4655 -0.2029
14146TIP3    H163853   4.242   2.616   2.638  2.5390  1.8545 -0.2499
14146TIP3    H263854   4.358   2.582   2.547 -0.2306 -1.3173 -2.8439
14147TIP3   OH263855   1.707   6.330  11.883 -0.5061  0.3060  0.0284
14147TIP3    H163856   1.681   6.418  11.911 -1.8088  0.0359 -0.2535
14147TIP3    H263857   1.645   6.272  11.928  0.7687 -0.5347  0.7610
14148TIP3   OH263858   1.643   5.460  15.466 -0.4563 -0.2797  0.0054
14148TIP3    H163859   1.738   5.460  15.472 -0.3380  1.6339 -1.0895
14148TIP3    H263860   1.620   5.369  15.444  0.9303 -1.1663  1.9134
14149TIP3   OH263861   1.016   6.248   0.803 -0.4754  0.1734 -0.3650
14149TIP3    H163862   0.928   6.216   0.822 -0.8740  0.3177 -1.8476
14149TIP3    H263863   1.067   6.170   0.785 -0.3820  0.1103  0.1687
14150TIP3   OH263864   1.932   4.783   3.457  0.2361 -0.1849  0.1812
14150TIP3    H163865   1.947   4.875   3.479 -0.9332  0.2046 -0.5495
14150TIP3    H263866   1.978   4.734   3.525  1.7185  0.9231  0.0265
14151TIP3   OH263867   3.950   6.753  11.764  0.1963  0.2810 -0.0093
14151TIP3    H163868   3.990   6.673  11.798  0.3034  0.1842 -0.3527
14151TIP3    H263869   3.886   6.778  11.830 -1.0326 -1.0067 -0.6363
14152TIP3   OH263870   6.273   1.641  14.949  0.3691  0.6777  0.1151
14152TIP3    H163871   6.209   1.709  14.969  0.0575  0.9894 -1.7571
14152TIP3    H263872   6.357   1.688  14.943  0.1762  0.9038 -1.0362
14153TIP3   OH263873   1.238   2.794   5.358  0.4258 -0.3497 -0.2361
14153TIP3    H163874   1.251   2.887   5.342 -0.2667 -0.2656 -0.3201
14153TIP3    H263875   1.143   2.781   5.353  0.2640 -0.6205  2.1361
14154TIP3   OH263876   0.738   4.544  15.119  0.1869  0.3679  0.2842
14154TIP3    H163877   0.833   4.550  15.127  0.2666  2.2715 -1.3071
14154TIP3    H263878   0.715   4.609  15.052 -2.4656  1.6827  2.2510
14155TIP3   OH263879   3.774   0.802  14.868 -0.3245  0.4789 -0.0739
14155TIP3    H163880   3.773   0.876  14.807 -0.7378  0.4457 -0.1067
14155TIP3    H263881   3.865   0.773  14.869  0.0657  1.6387  0.7124
14156TIP3   OH263882   5.530   2.194  16.540 -0.1958  0.2568 -0.6392
14156TIP3    H163883   5.495   2.125  16.483 -0.4051 -0.6865  0.5988
14156TIP3    H263884   5.525   2.158  16.628  0.7845  1.4185 -0.0748
14157TIP3   OH263885   1.022   4.235   5.118  0.0874  0.4781  0.2042
14157TIP3    H163886   1.031   4.285   5.037  1.3244  0.4192  0.2893
14157TIP3    H263887   0.965   4.161   5.093  1.3842 -0.1850 -0.9424
14158TIP3   OH263888   2.818   0.387  10.648  0.0030 -0.2610  0.3280
14158TIP3    H163889   2.847   0.396  10.557 -0.3216 -0.1233  0.2373
14158TIP3    H263890   2.754   0.316  10.646  2.3793 -2.5694  1.0119
14159TIP3   OH263891   2.937   0.641  14.117 -0.0232 -0.3611  0.1533
14159TIP3    H163892   2.905   0.551  14.124  0.6182 -0.4806  1.8342
14159TIP3    H263893   2.883   0.691  14.178  0.4146  0.1740  0.1079
14160TIP3   OH263894   3.294   2.275  15.599  0.4407 -0.6855  0.8183
14160TIP3    H163895   3.369   2.248  15.545  1.3736  1.7806  0.7733
14160TIP3    H263896   3.316   2.245  15.687  0.7719 -1.2693  0.5425
14161TIP3   OH263897   3.811   1.578   0.093 -0.0119 -0.0435 -0.3960
14161TIP3    H163898   3.807   1.522   0.171  1.0844  0.3715 -0.0245
14161TIP3    H263899   3.901   1.569   0.062  0.1663  1.4312 -0.3784
14162TIP3   OH263900   6.213   2.348  13.012 -0.1813  0.6760  0.1441
14162TIP3    H163901   6.211   2.281  13.080 -0.8487  0.8302  0.2773
14162TIP3    H263902   6.241   2.301  12.933 -1.6911 -0.0046 -0.0220
14163TIP3   OH263903   4.576   3.407   5.641 -0.4732  0.0310  0.0855
14163TIP3    H163904   4.500   3.463   5.658  0.5692  1.1494  1.2678
14163TIP3    H263905   4.586   3.410   5.545 -2.0303 -0.3419 -0.1197
14164TIP3   OH263906   5.378   4.863  12.619  0.0628 -0.4003  0.1047
14164TIP3    H163907   5.347   4.914  12.693  0.4096  0.9183 -0.6319
14164TIP3    H263908   5.422   4.926  12.562  2.4367 -1.8441  0.1815
14165TIP3   OH263909   1.746   0.372  11.393 -0.1403  0.0685  0.1756
14165TIP3    H163910   1.752   0.289  11.346 -0.9544  0.2185 -0.2085
14165TIP3    H263911   1.811   0.364  11.463  0.5175 -0.4797 -0.4727
14166TIP3   OH263912   5.350   2.318   2.219  0.5316 -0.0240 -0.1616
14166TIP3    H163913   5.430   2.358   2.253  0.1051  1.1833 -0.4988
14166TIP3    H263914   5.341   2.355   2.131 -1.7253  1.9410  0.7614
14167TIP3   OH263915   0.340   6.483  14.770  0.1516  0.5718 -0.7393
14167TIP3    H163916   0.371   6.525  14.689  0.6361 -1.0765 -1.4426
14167TIP3    H263917   0.382   6.534  14.840  2.7372 -0.1596 -1.6219
14168TIP3   OH263918   4.188   1.276  14.699  0.1865 -0.2069 -0.1128
14168TIP3    H163919   4.276   1.244  14.718  0.0775 -0.8188 -0.6278
14168TIP3    H263920   4.193   1.312  14.611  0.6565  2.5393  0.9105
14169TIP3   OH263921   2.792   0.278   5.160  0.1510 -0.6848 -0.6143
14169TIP3    H163922   2.715   0.325   5.193  0.5994 -0.4616  0.1480
14169TIP3    H263923   2.768   0.186   5.165 -0.2052 -0.6002 -0.7408
14170TIP3   OH263924   1.669   1.123   2.443 -0.7169 -0.5555  0.1177
14170TIP3    H163925   1.645   1.079   2.525  1.4262 -1.4434  0.3189
14170TIP3    H263926   1.696   1.210   2.470  1.9642 -1.4853  0.7084
14171TIP3   OH263927   0.007   5.117   3.156 -0.8036 -0.3435 -0.1777
14171TIP3    H163928   0.048   5.168   3.086  0.4550  1.2282  1.6045
14171TIP3    H263929   0.080   5.071   3.199 -1.7083 -2.3146 -0.6346
14172TIP3   OH263930   1.610   2.748   0.899 -0.1312  0.1284  0.1391
14172TIP3    H163931   1.616   2.843   0.907 -2.2095  0.2784  0.5224
14172TIP3    H263932   1.656   2.714   0.977  0.6466  0.7868 -0.0173
14173TIP3   OH263933   1.041   1.268   0.109  0.2182  0.2906 -0.2012
14173TIP3    H163934   1.107   1.213   0.068  0.3476  1.0447 -1.0317
14173TIP3    H263935   0.964   1.211   0.117  0.1275  0.1556 -1.6848
14174TIP3   OH263936   0.771   4.305   0.565 -0.1099  0.2345  0.1563
14174TIP3    H163937   0.846   4.244   0.568  1.1772  1.5501 -2.0736
14174TIP3    H263938   0.811   4.390   0.545 -2.1823  1.0584 -0.6741
14175TIP3   OH263939   0.562   6.673  14.914  0.7650 -0.0920 -0.1921
14175TIP3    H163940   0.577   6.765  14.890  1.6561  0.4234  2.0318
14175TIP3    H263941   0.642   6.628  14.886  1.6688  0.4424  1.4227
14176TIP3   OH263942   2.697   5.499   4.344  0.2247  0.8961  0.2965
14176TIP3    H163943   2.700   5.569   4.279 -0.4009  2.8858  2.3085
14176TIP3    H263944   2.787   5.492   4.376  0.7016 -0.5985 -1.1761
14177TIP3   OH263945   2.766   4.493  14.726 -0.0558  0.0315  0.0204
14177TIP3    H163946   2.771   4.420  14.663  1.4995  0.6014 -0.5526
14177TIP3    H263947   2.788   4.570  14.674  0.3736  0.6267  1.0787
14178TIP3   OH263948   0.736   6.031  16.731  0.4046  0.7166 -0.2687
14178TIP3    H163949   0.826   6.053  16.754 -0.0090  2.0334  0.2434
14178TIP3    H263950   0.683   6.096  16.777 -0.9378 -1.0795  0.8539
14179TIP3   OH263951   5.602   1.703  12.930 -0.6073 -0.1748  0.3730
14179TIP3    H163952   5.591   1.754  12.849 -2.2833  0.6591  1.0746
14179TIP3    H263953   5.553   1.623  12.914 -0.8975 -0.0311  0.5340
14180TIP3   OH263954   2.310   4.334  11.132  0.3218  0.2344 -0.0307
14180TIP3    H163955   2.330   4.268  11.066  3.3629  1.1449 -0.1738
14180TIP3    H263956   2.232   4.378  11.100  1.5320  0.4652 -2.9401
14181TIP3   OH263957   5.077   6.742   1.606 -0.1624 -0.1238  0.1443
14181TIP3    H163958   5.159   6.789   1.592 -0.1795  0.0016  0.4553
14181TIP3    H263959   5.047   6.720   1.518 -0.0928  0.3340  0.0047
14182TIP3   OH263960   0.018   5.033  13.849  0.2491 -0.1256  0.3405
14182TIP3    H163961   0.031   5.013  13.942 -4.0123 -2.1741  0.7551
14182TIP3    H263962   0.002   5.128  13.847  1.4179  0.1242  1.4748
14183TIP3   OH263963   2.146   3.745   2.356 -0.2895  0.0213 -0.8719
14183TIP3    H163964   2.186   3.809   2.415  1.9776 -1.1385 -1.0557
14183TIP3    H263965   2.113   3.798   2.283  1.2854  1.0467 -0.8922
14184TIP3   OH263966   4.947   3.645   5.097 -0.0194 -0.4926  0.9828
14184TIP3    H163967   4.862   3.604   5.078 -2.5816  3.8528  1.6242
14184TIP3    H263968   4.969   3.693   5.017  0.7533  0.0690  1.5167
14185TIP3   OH263969   0.770   2.569   2.417  0.2801 -0.4253 -0.2181
14185TIP3    H163970   0.850   2.611   2.449 -0.8370  0.2117  1.9550
14185TIP3    H263971   0.797   2.481   2.393  1.4768 -0.5783  1.4743
14186TIP3   OH263972   1.276   5.544   3.731  0.7289  0.4354  0.2190
14186TIP3    H163973   1.342   5.595   3.778 -0.9116  1.1554  1.8817
14186TIP3    H263974   1.204   5.605   3.716  0.1628 -0.4819 -0.9592
14187TIP3   OH263975   0.022   6.450  16.204  0.9263  0.4531 -0.3252
14187TIP3    H163976   0.060   6.378  16.253 -1.7782  0.2578  1.7491
14187TIP3    H263977   0.049   6.529  16.251  0.4681  0.4593 -0.0659
14188TIP3   OH263978   0.007   0.870  13.419  0.2444  0.4073 -0.0883
14188TIP3    H163979   0.023   0.964  13.414 -0.8178  0.6313  0.4004
14188TIP3    H263980   0.085   0.830  13.381  0.2091  1.5125 -1.3837
14189TIP3   OH263981   2.314   0.096   4.220 -0.0348  0.1282 -0.5109
14189TIP3    H163982   2.271   0.109   4.136 -0.5381 -0.5720 -0.3647
14189TIP3    H263983   2.271   0.019   4.258  3.2735 -2.5199 -1.6456
14190TIP3   OH263984   1.239   5.228   2.456 -0.2771  0.1819  0.0377
14190TIP3    H163985   1.149   5.257   2.465 -0.4474 -0.3028 -0.0369
14190TIP3    H263986   1.234   5.151   2.399  0.3380  0.9217 -1.0603
14191TIP3   OH263987   1.882   6.501  11.453  0.2203  0.0580 -0.1988
14191TIP3    H163988   1.818   6.562  11.487  1.0901  0.4664  0.7713
14191TIP3    H263989   1.848   6.474  11.368 -0.7140  1.0395 -0.1476
14192TIP3   OH263990   6.769   1.674  17.119 -0.3752  0.6339  0.4471
14192TIP3    H163991   6.787   1.588  17.080 -0.9738  1.1352 -1.0175
14192TIP3    H263992   6.828   1.679  17.194  0.1286 -0.7948  0.1874
14193TIP3   OH263993   1.317   2.562   3.834 -0.0565  0.1025  0.1976
14193TIP3    H163994   1.293   2.494   3.771  0.5287  0.2168 -0.1509
14193TIP3    H263995   1.263   2.637   3.809  1.5418  0.7975 -1.4243
14194TIP3   OH263996   4.186   2.328   4.785 -0.3686  0.0691  0.2455
14194TIP3    H163997   4.251   2.261   4.763  0.0218 -0.0806  1.7339
14194TIP3    H263998   4.207   2.353   4.876 -2.3541  0.0583  0.7457
14195TIP3   OH263999   3.822   5.067  12.414 -0.0304  0.2406 -0.2186
14195TIP3    H164000   3.800   4.980  12.379 -1.1284  0.7363 -0.8326
14195TIP3    H264001   3.868   5.049  12.496  1.3487 -0.9409 -1.2006
14196TIP3   OH264002   4.361   1.167  14.273 -0.3256 -0.1608  0.0339
14196TIP3    H164003   4.433   1.224  14.247 -0.5464 -0.4606 -1.3590
14196TIP3    H264004   4.403   1.087  14.305 -0.0246  0.5572  1.4529
14197TIP3   OH264005   0.113   5.115   1.728  0.1445 -0.5032  0.5099
14197TIP3    H164006   0.163   5.194   1.747 -0.2582  0.2599 -1.3936
14197TIP3    H264007   0.164   5.069   1.661 -1.1033 -0.2585 -0.6655
14198TIP3   OH264008   5.485   0.150   1.292 -0.5525  0.8985 -0.0174
14198TIP3    H164009   5.395   0.129   1.315 -0.1447  0.8591  1.6705
14198TIP3    H264010   5.517   0.201   1.367  1.3583 -0.5826  0.2272
14199TIP3   OH264011   0.500   3.985  16.104 -0.1716 -0.6605 -0.1019
14199TIP3    H164012   0.464   4.003  16.017 -0.0102  0.8810  0.1199
14199TIP3    H264013   0.424   3.988  16.162  0.0467  1.0123  0.1498
14200TIP3   OH264014   0.649   2.636  13.443 -0.2903 -0.4004 -0.2378
14200TIP3    H164015   0.736   2.631  13.481 -0.3896 -0.9360 -0.0764
14200TIP3    H264016   0.616   2.546  13.445 -1.4515  0.0265  1.1543
14201TIP3   OH264017   2.823   3.610   4.809  0.1320 -0.3282  0.5063
14201TIP3    H164018   2.782   3.615   4.723  0.6937  1.7751  0.3113
14201TIP3    H264019   2.849   3.518   4.818 -2.2427 -1.1660 -0.4350
14202TIP3   OH264020   3.329   0.123   4.369 -0.0734 -0.7473  0.5394
14202TIP3    H164021   3.269   0.142   4.440  0.3551 -0.1289  0.7432
14202TIP3    H264022   3.416   0.132   4.407  0.2006  1.1782 -0.4235
14203TIP3   OH264023   5.224   5.210  12.214 -0.5630 -0.0359 -0.3529
14203TIP3    H164024   5.303   5.260  12.236  0.0639 -0.5505 -1.3260
14203TIP3    H264025   5.161   5.275  12.184 -1.2314  0.6203  2.2325
14204TIP3   OH264026   5.389   4.835   5.391 -0.1106 -0.5452 -0.1850
14204TIP3    H164027   5.380   4.763   5.454  0.7284 -1.2567 -0.8501
14204TIP3    H264028   5.299   4.854   5.364 -0.8895  1.8339  3.3993
14205TIP3   OH264029   3.658   6.416   4.227 -0.0432 -0.4620  0.1010
14205TIP3    H164030   3.617   6.499   4.250 -0.7391 -0.7590 -0.0536
14205TIP3    H264031   3.750   6.427   4.250  0.1842  0.8879 -1.2946
14206TIP3   OH264032   4.232   5.897   0.071 -0.2625 -0.1922 -0.0081
14206TIP3    H164033   4.327   5.911   0.067 -0.4375  0.7930 -1.9797
14206TIP3    H264034   4.219   5.843   0.149  2.0275 -1.2653 -0.2821
14207TIP3   OH264035   0.160   4.298  15.270 -0.4670 -0.0606 -0.0560
14207TIP3    H164036   0.166   4.209  15.304 -0.0307 -1.5438 -3.5441
14207TIP3    H264037   0.066   4.313  15.260 -0.5592  0.0588  0.9843
14208TIP3   OH264038   1.341   3.107   3.736  0.4282 -0.9702 -0.1936
14208TIP3    H164039   1.421   3.055   3.729  0.4978 -0.6544 -2.3343
14208TIP3    H264040   1.340   3.161   3.657 -1.4666 -0.3165  0.2167
14209TIP3   OH264041   6.064   2.596  17.203 -0.1648  0.2804 -0.2271
14209TIP3    H164042   6.069   2.523  17.141 -0.8951  1.1105 -1.3210
14209TIP3    H264043   6.139   2.651  17.182  0.3118 -0.0810  0.5087
14210TIP3   OH264044   1.760   3.212   1.118  1.0774 -0.0015 -0.1349
14210TIP3    H164045   1.835   3.240   1.065  1.0816 -0.7521 -0.5262
14210TIP3    H264046   1.723   3.138   1.071  0.1173  0.3248  0.0925
14211TIP3   OH264047   3.400   1.217  15.263  0.1714  0.0576 -0.2815
14211TIP3    H164048   3.390   1.296  15.210 -1.2918 -1.0868 -1.8394
14211TIP3    H264049   3.317   1.171  15.254  0.8581 -1.5205  0.8284
14212TIP3   OH264050   6.628   3.206   5.547 -0.2643  0.8803 -0.7034
14212TIP3    H164051   6.535   3.220   5.529 -0.4385  0.7585  0.0853
14212TIP3    H264052   6.647   3.119   5.512 -0.8111  0.2726  0.4530
14213TIP3   OH264053   6.157   1.528   1.027 -0.0239  0.0396 -0.1881
14213TIP3    H164054   6.198   1.481   1.099 -0.2873  0.7323  0.4310
14213TIP3    H264055   6.230   1.568   0.980  0.1379 -0.2596 -0.1921
14214TIP3   OH264056   4.386   0.498   4.132 -0.3926 -0.0405  0.3795
14214TIP3    H164057   4.381   0.403   4.125  0.6341 -0.1634  1.1485
14214TIP3    H264058   4.428   0.525   4.050  3.2254 -0.6741  1.8269
14215TIP3   OH264059   6.662   6.561   4.073 -0.0559  0.2419  0.5399
14215TIP3    H164060   6.730   6.495   4.092 -0.2257  0.3588  1.6368
14215TIP3    H264061   6.705   6.645   4.090 -0.0022  0.4015 -0.3341
14216TIP3   OH264062   0.905   6.428   5.311  0.0614  0.2023  0.2659
14216TIP3    H164063   0.918   6.446   5.404 -1.8061 -1.2107  0.8649
14216TIP3    H264064   0.901   6.332   5.305 -2.8917  0.3040 -0.7527
14217TIP3   OH264065   3.788   3.360   4.615  0.0723 -0.2191  0.3883
14217TIP3    H164066   3.793   3.280   4.563  0.8154 -1.0069  1.6364
14217TIP3    H264067   3.845   3.423   4.570 -0.9512 -0.1874 -0.9042
14218TIP3   OH264068   2.292   3.924  13.223 -0.0606  0.0566 -0.3647
14218TIP3    H164069   2.269   3.842  13.181  3.8197 -0.8849 -1.0883
14218TIP3    H264070   2.296   3.988  13.152 -1.3216  0.4690 -0.0837
14219TIP3   OH264071   4.163   2.208  13.272 -0.3568  0.0254 -0.0538
14219TIP3    H164072   4.223   2.221  13.198 -0.7040 -1.1932 -0.5641
14219TIP3    H264073   4.076   2.215  13.234 -0.5576 -1.9641 -0.0667
14220TIP3   OH264074   6.406   1.575   6.251  0.2095 -0.1932 -0.4085
14220TIP3    H164075   6.425   1.669   6.256 -1.2063  0.0665  0.3443
14220TIP3    H264076   6.312   1.568   6.266  0.6640 -1.9383  2.2956
14221TIP3   OH264077   6.725   4.899   0.882 -0.1769 -0.0924 -0.1424
14221TIP3    H164078   6.742   4.810   0.853  0.4254 -0.7640  2.1111
14221TIP3    H264079   6.704   4.891   0.975 -0.4456  2.0883  0.0409
14222TIP3   OH264080   1.569   0.946   2.662  0.3076  0.3100 -0.4390
14222TIP3    H164081   1.512   1.002   2.714 -0.9291 -1.1592 -0.1587
14222TIP3    H264082   1.569   0.862   2.708  0.9721 -0.3594 -1.6205
14223TIP3   OH264083   3.957   5.049   0.189 -0.9702  0.0393 -0.0342
14223TIP3    H164084   3.878   5.004   0.220 -0.5743 -1.4617 -1.1321
14223TIP3    H264085   4.030   4.997   0.224 -0.5033 -0.5487 -1.8061
14224TIP3   OH264086   3.813   6.331  13.183 -0.1144 -0.0286 -0.2842
14224TIP3    H164087   3.756   6.306  13.256  0.9707 -1.3190  0.1758
14224TIP3    H264088   3.847   6.248  13.150 -0.3675  0.5573 -2.1084
14225TIP3   OH264089   5.884   3.520   0.504 -0.2957 -0.0882 -0.3617
14225TIP3    H164090   5.958   3.468   0.535  1.0501  2.3733  0.8289
14225TIP3    H264091   5.817   3.455   0.481  0.8536 -2.3071  2.0244
14226TIP3   OH264092   5.782   0.394  16.089  0.2566  0.0491  0.2397
14226TIP3    H164093   5.692   0.367  16.072 -0.2116  1.3787  0.4986
14226TIP3    H264094   5.821   0.321  16.137 -0.9528 -0.1676  0.9187
14227TIP3   OH264095   5.412   0.143  11.829 -0.0241  0.5034  0.3155
14227TIP3    H164096   5.347   0.136  11.759  1.6610  1.4866 -1.4511
14227TIP3    H264097   5.364   0.179  11.903 -1.5694  0.8756 -0.8169
14228TIP3   OH264098   2.442   0.260   2.533 -0.8984 -0.1251 -0.6456
14228TIP3    H164099   2.449   0.164   2.535  1.6894 -0.0117 -0.9429
14228TIP3    H264100   2.424   0.284   2.624  1.7856 -0.7926  0.1622
14229TIP3   OH264101   4.383   1.946   5.647  0.4131 -0.1644  0.2778
14229TIP3    H164102   4.400   2.037   5.624 -2.2084 -0.4014 -3.3819
14229TIP3    H264103   4.309   1.950   5.708  1.5561  0.1246  1.7118
14230TIP3   OH264104   2.287   1.540   5.639 -0.0576 -0.1719 -0.2359
14230TIP3    H164105   2.382   1.540   5.625  0.0563  1.0725  0.4375
14230TIP3    H264106   2.264   1.632   5.651 -1.4919 -0.3762 -1.2063
14231TIP3   OH264107   3.396   6.038  12.819  0.9251 -0.3223  0.4577
14231TIP3    H164108   3.357   6.085  12.893  1.1440  0.2115  0.2293
14231TIP3    H264109   3.364   6.084  12.742 -0.6223 -1.8379  0.1239
14232TIP3   OH264110   4.059   0.640  16.053 -0.5957 -0.1694 -0.6426
14232TIP3    H164111   4.056   0.568  16.116  2.6624  2.0107  2.4772
14232TIP3    H264112   4.091   0.600  15.972  3.2166 -2.1599  1.5444
14233TIP3   OH264113   5.592   6.581  14.304 -0.3821 -0.1561  0.3410
14233TIP3    H164114   5.602   6.607  14.212  0.1753 -0.3502  0.3408
14233TIP3    H264115   5.596   6.664  14.352  2.3852 -0.2210  0.4200
14234TIP3   OH264116   2.873   0.972  13.998 -0.2964  0.3249 -0.5049
14234TIP3    H164117   2.883   0.970  14.093 -1.1778 -0.3960 -0.4116
14234TIP3    H264118   2.899   1.061  13.973 -1.5934  1.0498  0.5992
14235TIP3   OH264119   3.239   0.781  13.163 -0.2210 -0.0649  0.0331
14235TIP3    H164120   3.246   0.816  13.251  2.7032 -1.6356  0.5723
14235TIP3    H264121   3.146   0.784  13.142 -0.8030  1.7576  2.5409
14236TIP3   OH264122   1.385   5.812  15.215 -0.0969  0.2475 -0.8529
14236TIP3    H164123   1.415   5.903  15.211 -1.0137  0.5411 -1.1977
14236TIP3    H264124   1.445   5.771  15.277  0.8823  0.8653 -1.3568
14237TIP3   OH264125   0.241   1.410   6.101 -0.5276 -0.5667  0.3370
14237TIP3    H164126   0.324   1.406   6.150 -1.0977 -0.3203  1.3549
14237TIP3    H264127   0.255   1.352   6.026  0.5969 -0.4609  0.4437
14238TIP3   OH264128   5.245   2.649  16.364 -0.5078  0.3221 -0.2712
14238TIP3    H164129   5.235   2.588  16.437 -0.0593  1.3958  0.7178
14238TIP3    H264130   5.158   2.686  16.351 -0.3715  0.9588  0.5015
14239TIP3   OH264131   6.762   5.539  10.384 -0.3242 -0.6784  0.7151
14239TIP3    H164132   6.719   5.608  10.333 -3.4192 -1.5005  1.9850
14239TIP3    H264133   6.715   5.459  10.361  1.6197 -1.9810  1.0415
14240TIP3   OH264134   3.447   3.723  16.063  0.0965 -0.0897 -0.5282
14240TIP3    H164135   3.429   3.816  16.050  2.5859  1.0372  2.6304
14240TIP3    H264136   3.532   3.709  16.021  0.8741 -0.2525  1.0309
14241TIP3   OH264137   5.771   5.741   0.200  0.8433 -0.3318  0.5571
14241TIP3    H164138   5.722   5.822   0.183  0.4213 -0.7462 -0.2659
14241TIP3    H264139   5.860   5.761   0.171  0.3446 -0.7179 -1.4085
14242TIP3   OH264140   3.958   5.936  11.309  0.4221 -0.6756  0.1018
14242TIP3    H164141   4.052   5.916  11.318  0.2215 -0.8779  2.0690
14242TIP3    H264142   3.915   5.878  11.371 -0.9262  0.2648  0.0894
14243TIP3   OH264143   2.273   4.917  16.703  0.1499  0.0413  0.0430
14243TIP3    H164144   2.228   4.958  16.777  0.9955  3.8726 -1.3023
14243TIP3    H264145   2.214   4.931  16.628  0.5597 -1.1200 -0.5123
14244TIP3   OH264146   1.862   1.476   0.641  0.3418  0.1632 -0.4693
14244TIP3    H164147   1.786   1.531   0.657  0.1933 -0.5937  1.6919
14244TIP3    H264148   1.937   1.530   0.665  0.1945 -0.4844  1.6876
14245TIP3   OH264149   5.086   3.590   3.536 -0.2813  0.0934  0.3004
14245TIP3    H164150   5.117   3.681   3.535 -0.2903  0.1231  1.2261
14245TIP3    H264151   5.062   3.571   3.445 -2.4110  1.7601  0.4353
14246TIP3   OH264152   3.467   0.735   1.254 -0.0479  0.3390 -0.1003
14246TIP3    H164153   3.549   0.765   1.293 -0.3078 -2.3438  2.9241
14246TIP3    H264154   3.491   0.713   1.164  2.8155 -1.0343  0.8492
14247TIP3   OH264155   3.588   3.312   2.382 -0.3594 -0.3358  0.1178
14247TIP3    H164156   3.572   3.343   2.472  1.7370  1.8137 -0.1622
14247TIP3    H264157   3.656   3.370   2.348 -2.4081  0.2230 -3.5792
14248TIP3   OH264158   0.624   0.932   3.577  0.1549  0.1330 -0.1526
14248TIP3    H164159   0.566   0.906   3.505  0.7802 -1.3866 -0.1341
14248TIP3    H264160   0.597   1.022   3.597 -1.7272 -0.2830 -0.5967
14249TIP3   OH264161   1.368   4.348   2.885 -0.4453  0.1881 -0.5532
14249TIP3    H164162   1.359   4.435   2.845 -1.3717 -0.8209 -2.6910
14249TIP3    H264163   1.290   4.340   2.940  0.3875  1.2481  0.8407
14250TIP3   OH264164   2.927   1.147  15.441 -0.8480 -0.6881 -0.2817
14250TIP3    H164165   2.903   1.174  15.530  0.1632 -0.2545 -0.1299
14250TIP3    H264166   2.962   1.059  15.452 -0.1910 -0.4207 -0.1507
14251TIP3   OH264167   5.497   3.851  13.889 -0.3964 -0.2953  0.7570
14251TIP3    H164168   5.477   3.881  13.978 -2.8655  0.4741  0.0203
14251TIP3    H264169   5.549   3.772  13.902  0.7696  0.7216  2.8433
14252TIP3   OH264170   4.213   2.257  11.857  0.2123  0.3219 -0.5902
14252TIP3    H164171   4.194   2.234  11.767 -0.4954 -2.9498  0.2645
14252TIP3    H264172   4.239   2.174  11.898  1.3516  1.8392  2.0128
14253TIP3   OH264173   1.648   2.671  12.355  0.0097 -0.2784  1.4382
14253TIP3    H164174   1.674   2.736  12.420  2.8095 -0.9311  1.1243
14253TIP3    H264175   1.651   2.588  12.402  1.0154 -0.6360  0.7940
14254TIP3   OH264176   5.508   1.719   1.659 -0.0156  0.1599 -0.7200
14254TIP3    H164177   5.558   1.739   1.738 -1.0652 -1.3648  0.3775
14254TIP3    H264178   5.574   1.688   1.597  0.7201  0.5762 -0.1672
14255TIP3   OH264179   2.331   1.572   1.578  0.2503 -0.2368  0.8055
14255TIP3    H164180   2.272   1.559   1.504  1.0079  0.9075 -0.0491
14255TIP3    H264181   2.411   1.525   1.554  0.2219 -0.5234  1.2632
14256TIP3   OH264182   4.140   6.580  15.763 -0.0752 -0.0965 -0.0591
14256TIP3    H164183   4.142   6.676  15.762 -0.7093 -0.0833 -0.3585
14256TIP3    H264184   4.201   6.556  15.832 -0.0656  0.5278  0.1576
14257TIP3   OH264185   1.118   2.440   4.433  0.4664 -0.0722 -0.1133
14257TIP3    H164186   1.058   2.384   4.385  0.8638 -2.6390  2.1564
14257TIP3    H264187   1.070   2.465   4.513  1.1361  0.9057  0.0093
14258TIP3   OH264188   0.104   1.287   3.828 -0.1083  0.0990  0.6845
14258TIP3    H164189   0.041   1.254   3.891 -0.4392 -1.6800 -0.5050
14258TIP3    H264190   0.052   1.312   3.752  0.5230 -0.9032 -0.1135
14259TIP3   OH264191   4.997   1.824   1.720  0.3174  0.0579  0.2942
14259TIP3    H164192   4.910   1.846   1.753  0.6208  0.7413  0.6790
14259TIP3    H264193   5.020   1.897   1.662 -0.1949 -1.1213 -1.4496
14260TIP3   OH264194   5.757   6.706   3.265  0.1239 -0.0225 -0.0284
14260TIP3    H164195   5.713   6.648   3.203  0.0463  0.5656 -0.5302
14260TIP3    H264196   5.719   6.685   3.350 -1.6940  0.9961 -0.5442
14261TIP3   OH264197   2.011   5.058   3.472 -1.0236 -0.1835 -0.3421
14261TIP3    H164198   2.032   5.134   3.417 -1.3935  1.1168  1.2210
14261TIP3    H264199   1.944   5.091   3.532 -0.7049 -1.5745  0.8092
14262TIP3   OH264200   5.244   6.137  11.734 -0.3378  0.3437 -0.1960
14262TIP3    H164201   5.275   6.225  11.712 -0.1409  0.0123 -1.3521
14262TIP3    H264202   5.185   6.150  11.808  1.7093  1.1154  1.3841
14263TIP3   OH264203   2.972   1.525   1.170 -0.2709 -0.1198 -0.4854
14263TIP3    H164204   2.880   1.503   1.186 -0.0555  0.3908  1.6920
14263TIP3    H264205   2.968   1.601   1.112 -1.1575 -1.0952 -1.7647
14264TIP3   OH264206   3.642   2.896  15.525 -0.0581  0.6184 -0.5231
14264TIP3    H164207   3.570   2.924  15.580 -0.4751  0.5741 -1.0394
14264TIP3    H264208   3.689   2.831  15.577 -0.1338  0.9684 -0.0204
14265TIP3   OH264209   6.204   6.272   0.024  0.0811  0.0348  0.1407
14265TIP3    H164210   6.238   6.273  -0.065  0.2407 -0.2277  0.1990
14265TIP3    H264211   6.209   6.363   0.053 -1.1663  0.3520 -0.5691
14266TIP3   OH264212   1.859   6.285   1.694 -0.2328  0.3857 -0.5303
14266TIP3    H164213   1.937   6.328   1.658 -0.1699  0.5065 -0.2518
14266TIP3    H264214   1.877   6.278   1.788 -1.1657  1.7072 -0.2222
14267TIP3   OH264215   3.590   2.176   4.533  0.3231 -0.1912 -0.1760
14267TIP3    H164216   3.596   2.214   4.620 -0.4005 -1.0902  0.2724
14267TIP3    H264217   3.680   2.179   4.500  1.1841 -2.3212  1.6870
14268TIP3   OH264218   5.296   2.849  10.666 -0.5167 -0.2127 -0.2246
14268TIP3    H164219   5.333   2.910  10.603 -0.0075  0.6650  0.8888
14268TIP3    H264220   5.337   2.873  10.750  1.7959 -3.6982 -0.1071
14269TIP3   OH264221   3.188   0.274   5.381 -0.2530  0.0527  0.0849
14269TIP3    H164222   3.121   0.343   5.378 -1.7537 -1.3494  0.0057
14269TIP3    H264223   3.176   0.232   5.466 -1.1942 -1.7991 -0.8940
14270TIP3   OH264224   2.829   6.495   3.459  0.7915 -0.4618  0.1266
14270TIP3    H164225   2.894   6.429   3.482  0.7504  0.0667  1.9332
14270TIP3    H264226   2.815   6.484   3.365  0.9328 -2.8608  0.3300
14271TIP3   OH264227   6.416   2.157   4.212 -0.4665  0.6613  0.0850
14271TIP3    H164228   6.492   2.103   4.230 -2.2088 -1.4724  1.5520
14271TIP3    H264229   6.342   2.097   4.215 -2.4049  2.9088  0.4113
14272TIP3   OH264230   3.929   6.223  13.562 -0.3885 -0.3025 -0.0595
14272TIP3    H164231   3.967   6.218  13.474 -0.5080 -1.7669 -0.0407
14272TIP3    H264232   4.003   6.239  13.620 -0.3201  0.7658 -0.4102
14273TIP3   OH264233   1.320   4.225  14.034  0.3677 -0.2101 -1.3331
14273TIP3    H164234   1.410   4.256  14.040  0.0757  0.6591 -1.1791
14273TIP3    H264235   1.299   4.192  14.121 -0.2124  1.8325 -0.6256
14274TIP3   OH264236   2.821   4.660   0.500  0.0664 -0.3446 -0.4476
14274TIP3    H164237   2.828   4.720   0.426  0.2481 -0.1210 -0.2502
14274TIP3    H264238   2.797   4.576   0.460  1.0362 -0.4420 -0.8646
14275TIP3   OH264239   6.183   4.938  13.399 -0.5174  0.0345 -0.0315
14275TIP3    H164240   6.133   4.999  13.453  1.2930  0.8021  0.8787
14275TIP3    H264241   6.147   4.948  13.311 -1.7682  0.7291  0.5310
14276TIP3   OH264242   0.658   0.536   0.760  0.1427  0.0737 -0.6612
14276TIP3    H164243   0.592   0.512   0.694 -0.1761  1.2438 -0.7961
14276TIP3    H264244   0.606   0.558   0.838  0.4540 -0.2478 -0.3638
14277TIP3   OH264245   0.461   5.029   0.201 -0.1941 -0.1608  0.0945
14277TIP3    H164246   0.452   5.004   0.293  3.0193 -0.1897  0.5179
14277TIP3    H264247   0.468   4.945   0.154 -0.7639 -0.1332 -0.0454
14278TIP3   OH264248   5.575   6.464   5.774  0.6583 -0.2240 -0.6147
14278TIP3    H164249   5.638   6.463   5.846 -0.4315  1.0314  0.3974
14278TIP3    H264250   5.581   6.552   5.737  0.1629 -0.3918 -1.1075
14279TIP3   OH264251   5.183   4.235   5.950  0.0823  0.1887  0.3978
14279TIP3    H164252   5.162   4.257   5.860  0.0188 -1.7121 -0.0938
14279TIP3    H264253   5.098   4.226   5.993  0.0338 -0.9500  0.0956
14280TIP3   OH264254   5.295   1.520   0.432 -0.3761  0.0258 -0.0028
14280TIP3    H164255   5.272   1.467   0.507  1.5706 -0.3201  0.4082
14280TIP3    H264256   5.258   1.606   0.451 -0.5443 -0.2586  0.9970
14281TIP3   OH264257   1.460   0.491  15.215 -0.0061  0.4118 -0.5718
14281TIP3    H164258   1.539   0.478  15.266  0.5295  1.5216 -1.0837
14281TIP3    H264259   1.442   0.405  15.175  1.6159  0.4304 -1.4002
14282TIP3   OH264260   6.008   2.795  16.215 -0.2925 -0.1202  0.5083
14282TIP3    H164261   5.956   2.849  16.275  1.4335  1.2411  0.8575
14282TIP3    H264262   6.051   2.731  16.272 -2.3344 -1.9874  0.0956
14283TIP3   OH264263   0.682   4.956  15.401  0.1079 -0.3652 -0.4646
14283TIP3    H164264   0.626   4.923  15.331 -0.2765 -0.1128 -0.2828
14283TIP3    H264265   0.665   4.898  15.475 -0.0775 -0.1576 -0.3435
14284TIP3   OH264266   2.815   5.423  11.840  0.3699 -0.6034  0.3304
14284TIP3    H164267   2.796   5.434  11.933 -0.4230  1.4388 -0.0221
14284TIP3    H264268   2.894   5.369  11.838 -0.8030 -2.5346  2.0788
14285TIP3   OH264269   0.958   5.260   1.626 -0.1121 -0.0928  0.1512
14285TIP3    H164270   1.025   5.294   1.567  1.1718 -1.1087  0.9732
14285TIP3    H264271   1.003   5.193   1.677 -1.8823 -1.1533  0.4052
14286TIP3   OH264272   4.748   6.279  12.373  0.0087  0.6671  0.1459
14286TIP3    H164273   4.686   6.251  12.306  0.0866 -0.2441  0.4408
14286TIP3    H264274   4.702   6.346  12.423 -0.8041 -0.1275  0.4784
14287TIP3   OH264275   0.440   4.548  13.114  0.2590 -0.4482  0.3333
14287TIP3    H164276   0.505   4.515  13.052  0.3045  1.8438 -0.9666
14287TIP3    H264277   0.410   4.631  13.076 -0.3914  0.6341  2.9277
14288TIP3   OH264278   1.176   6.070   4.899  0.0861 -0.2362  0.3118
14288TIP3    H164279   1.198   6.115   4.981  0.2014 -1.7799  1.1640
14288TIP3    H264280   1.095   6.112   4.870 -0.1689  0.0950  1.4287
14289TIP3   OH264281   1.435   5.343   2.078  0.3820  0.2514  0.0942
14289TIP3    H164282   1.509   5.402   2.065  0.6032  0.3206  1.4924
14289TIP3    H264283   1.454   5.267   2.023  0.8456  0.8192 -0.5423
14290TIP3   OH264284   6.102   3.639  12.630  0.4843 -1.0719 -0.7818
14290TIP3    H164285   6.041   3.677  12.566  0.8731 -0.8184 -1.0103
14290TIP3    H264286   6.050   3.629  12.710  0.7958  1.7181 -0.1133
14291TIP3   OH264287   6.754   6.375  10.583  0.0786 -0.4614 -0.8474
14291TIP3    H164288   6.730   6.375  10.490 -1.8809 -1.0587 -0.3865
14291TIP3    H264289   6.700   6.306  10.622  0.9650 -0.3165  0.7320
14292TIP3   OH264290   1.888   2.472   0.809 -0.4084 -0.5355  0.0540
14292TIP3    H164291   1.957   2.506   0.752 -0.0964  2.6316  2.0765
14292TIP3    H264292   1.807   2.504   0.769 -0.3776 -0.4322  0.0744
14293TIP3   OH264293   5.019   0.946   5.156  0.0524  0.3281  0.0300
14293TIP3    H164294   4.947   0.926   5.215  0.3731  0.5554  0.5003
14293TIP3    H264295   5.052   1.031   5.186  0.5553  0.1987 -0.1420
14294TIP3   OH264296   3.986   0.572   2.372 -0.8108 -0.5680  0.2321
14294TIP3    H164297   3.900   0.609   2.393 -1.1812 -1.2150 -0.1417
14294TIP3    H264298   4.045   0.610   2.438 -1.0076  1.3691 -0.6315
14295TIP3   OH264299   0.912   3.772  13.606 -0.3445  0.0450  0.3992
14295TIP3    H164300   0.902   3.817  13.522 -0.5893 -0.1318  0.3302
14295TIP3    H264301   0.890   3.681  13.586  1.4109 -0.3779  0.2415
14296TIP3   OH264302   5.577   1.654  15.801 -0.2607 -0.7651 -0.4758
14296TIP3    H164303   5.497   1.672  15.752  0.1143 -1.2564 -1.2844
14296TIP3    H264304   5.552   1.665  15.892 -1.0039  0.0439 -0.7672
14297TIP3   OH264305   0.059   1.514  12.728 -0.3753 -0.8123  0.4186
14297TIP3    H164306   0.053   1.457  12.651  0.7275 -2.3141  1.3779
14297TIP3    H264307   0.130   1.575  12.707 -1.6255  0.3358 -0.6559
14298TIP3   OH264308   5.599   1.320  15.980 -0.0341  0.0256 -0.4930
14298TIP3    H164309   5.667   1.382  16.008  0.6838 -0.9681  0.0253
14298TIP3    H264310   5.543   1.311  16.058  0.5873 -0.9160 -0.1383
14299TIP3   OH264311   6.432   3.349  11.084  0.2318 -1.1439  0.0034
14299TIP3    H164312   6.501   3.415  11.086 -0.1381 -0.7852  0.8944
14299TIP3    H264313   6.478   3.267  11.064  0.9262 -0.9110  0.6190
14300TIP3   OH264314   3.154   4.848   1.440  0.1898 -0.5403 -0.6172
14300TIP3    H164315   3.106   4.886   1.514 -1.2535 -0.2389 -1.6513
14300TIP3    H264316   3.193   4.924   1.396  0.3563 -0.6308 -0.6254
14301TIP3   OH264317   3.042   2.043  14.104 -0.2605  0.3020  0.1359
14301TIP3    H164318   3.064   2.001  14.021 -1.5636  0.4388 -0.3016
14301TIP3    H264319   2.982   1.981  14.147 -0.1117  0.5250  0.6768
14302TIP3   OH264320   6.189   2.278  15.697  0.3485 -0.3928  0.1769
14302TIP3    H164321   6.225   2.214  15.757  0.5031  0.9734  1.6116
14302TIP3    H264322   6.103   2.244  15.673  0.1334 -0.7995  1.4804
14303TIP3   OH264323   3.039   4.102  12.901  0.0305 -0.2403  0.2885
14303TIP3    H164324   3.039   4.008  12.882 -2.1371 -0.2792  0.1746
14303TIP3    H264325   2.993   4.109  12.985 -1.2403  0.8159 -0.4713
14304TIP3   OH264326   2.657   3.006  16.927  0.5606 -0.0661  0.6606
14304TIP3    H164327   2.699   2.922  16.943 -0.7377 -0.8602  0.0786
14304TIP3    H264328   2.593   3.015  16.997 -0.1039 -0.1229  0.0705
14305TIP3   OH264329   1.388   4.413  11.319 -0.3406 -0.3168 -0.4428
14305TIP3    H164330   1.303   4.446  11.347  0.1988  1.0065 -0.2899
14305TIP3    H264331   1.424   4.371  11.397 -0.6863 -0.5283 -0.3970
14306TIP3   OH264332   6.537   5.993  12.172  0.2125 -0.0839 -0.6954
14306TIP3    H164333   6.575   6.060  12.115  0.4067 -0.7520 -1.3576
14306TIP3    H264334   6.612   5.947  12.210  0.1004  0.6342  0.4721
14307TIP3   OH264335   0.864   3.196   1.298  0.4053  0.8182  0.4524
14307TIP3    H164336   0.897   3.270   1.246  1.5485 -0.1672 -0.2619
14307TIP3    H264337   0.773   3.186   1.269  0.6664  1.0436 -0.4851
14308TIP3   OH264338   1.100   4.047   3.695 -0.5738 -0.0792 -0.1590
14308TIP3    H164339   1.008   4.072   3.696 -0.9600 -0.5546 -4.4991
14308TIP3    H264340   1.145   4.118   3.740 -2.7578  1.9150 -0.9408
14309TIP3   OH264341   4.719   6.676   0.297 -0.1697 -0.1304 -0.1256
14309TIP3    H164342   4.781   6.673   0.370  0.3362 -1.6712 -0.5847
14309TIP3    H264343   4.636   6.700   0.338 -0.6045 -3.7785  1.5580
14310TIP3   OH264344   2.271   1.071  13.321 -0.1146  0.0147  0.3208
14310TIP3    H164345   2.178   1.076  13.345 -0.7930 -0.9847 -1.8993
14310TIP3    H264346   2.284   1.141  13.257  0.1532 -1.0347 -0.8175
14311TIP3   OH264347   6.678   0.209  15.204  0.5502  0.6215 -0.4785
14311TIP3    H164348   6.607   0.147  15.219  0.0908  0.6631 -2.2626
14311TIP3    H264349   6.640   0.295  15.220  1.1703  0.5110  1.9370
14312TIP3   OH264350   5.597   2.172  12.722 -0.0497  0.9335  0.3091
14312TIP3    H164351   5.532   2.192  12.655  0.1359 -1.3099 -0.6083
14312TIP3    H264352   5.551   2.119  12.786  0.5915  0.1836  0.1710
14313TIP3   OH264353   4.270   1.741   2.708  0.6852  0.0123  0.4393
14313TIP3    H164354   4.358   1.733   2.671  0.7538  2.4295 -0.1486
14313TIP3    H264355   4.263   1.669   2.769  3.2327 -0.0551  0.7809
14314TIP3   OH264356   3.952   6.758  12.803  0.0907  0.0945  0.2643
14314TIP3    H164357   3.955   6.697  12.729  0.8600 -0.7844  0.9863
14314TIP3    H264358   3.944   6.844  12.763  0.6050 -0.3509 -0.8531
14315TIP3   OH264359   5.537   3.593   6.058  0.5907 -0.2639  0.3767
14315TIP3    H164360   5.494   3.674   6.087 -0.4607 -0.6104 -0.1423
14315TIP3    H264361   5.494   3.524   6.107 -1.5973 -0.9185 -2.1801
14316TIP3   OH264362   1.370   2.304  16.903 -0.4030 -0.3639 -0.3172
14316TIP3    H164363   1.377   2.390  16.863 -0.4638 -0.1354  0.1567
14316TIP3    H264364   1.460   2.280  16.925 -0.4308 -0.2332 -0.0586
14317TIP3   OH264365   5.669   6.246   4.033  0.1683  0.2334  0.4782
14317TIP3    H164366   5.621   6.165   4.046  0.8023 -0.3995 -0.8885
14317TIP3    H264367   5.730   6.250   4.107  0.0119 -0.4560  0.6509
14318TIP3   OH264368   5.162   2.408   4.683 -1.1955  0.3654  0.0073
14318TIP3    H164369   5.100   2.459   4.736  0.2036  0.8160  1.2957
14318TIP3    H264370   5.233   2.386   4.744 -0.1653 -0.2692 -1.3635
14319TIP3   OH264371   4.861   3.137  12.728  0.1353  0.1013  0.4240
14319TIP3    H164372   4.784   3.192  12.709 -0.6035 -0.7654  0.8578
14319TIP3    H264373   4.935   3.190  12.699 -0.6955  0.4579 -1.1654
14320TIP3   OH264374   6.568   4.986  16.055 -0.4484 -0.2491 -0.4741
14320TIP3    H164375   6.653   4.996  16.098  0.4008 -1.6428 -1.7354
14320TIP3    H264376   6.527   5.072  16.063  0.1026 -0.1527  2.1340
14321TIP3   OH264377   5.179   5.017  12.463  0.3263 -0.1307  0.0894
14321TIP3    H164378   5.230   4.958  12.518  1.2349 -0.3197 -0.9195
14321TIP3    H264379   5.244   5.077  12.426 -0.3848  0.5474 -0.0958
14322TIP3   OH264380   0.037   0.064   5.391 -0.2460  0.5765  0.1198
14322TIP3    H164381   0.101  -0.003   5.365 -1.4728 -1.1836  1.3861
14322TIP3    H264382  -0.021   0.073   5.316  0.0911  0.4218 -0.1608
14323TIP3   OH264383   1.360   5.597   4.907 -0.2450  0.5678  0.0857
14323TIP3    H164384   1.409   5.533   4.960 -0.1603 -1.7107 -2.5290
14323TIP3    H264385   1.427   5.650   4.865 -0.2743  1.4475  1.1083
14324TIP3   OH264386   0.193   2.576  16.810 -0.3909  0.0156 -0.0099
14324TIP3    H164387   0.273   2.559  16.761 -0.9947  1.5699 -1.6262
14324TIP3    H264388   0.220   2.632  16.883  0.0808  0.0035 -0.1764
14325TIP3   OH264389   5.651   0.685  11.195  0.2969 -0.2381  0.4531
14325TIP3    H164390   5.601   0.754  11.150 -0.5504 -1.3573 -0.3971
14325TIP3    H264391   5.726   0.730  11.232  1.9248  0.6186 -3.3651
14326TIP3   OH264392   3.765   2.976  10.842  0.4112 -0.3529  0.1504
14326TIP3    H164393   3.858   2.990  10.820  0.0759  0.0753 -1.0642
14326TIP3    H264394   3.761   2.885  10.870  1.2157 -0.3549  0.2865
14327TIP3   OH264395   2.575   5.092   6.308  0.4795 -0.2765 -0.5309
14327TIP3    H164396   2.640   5.143   6.260  0.9146 -1.7993 -1.6617
14327TIP3    H264397   2.552   5.146   6.383  1.5809  1.1523 -1.1763
14328TIP3   OH264398   6.085   1.089   3.305 -0.0406  0.0800  0.3657
14328TIP3    H164399   6.039   1.167   3.275 -0.3360 -0.2606 -0.0779
14328TIP3    H264400   6.177   1.113   3.305 -0.1563  0.5237  0.5158
14329TIP3   OH264401   4.579   3.336   2.159  0.9293 -0.4754  0.0805
14329TIP3    H164402   4.554   3.244   2.148 -1.2578 -0.0411  0.9555
14329TIP3    H264403   4.562   3.376   2.074 -3.2587  0.1401  1.0181
14330TIP3   OH264404   0.114   2.068  17.003  0.0292  0.2768  0.0946
14330TIP3    H164405   0.091   2.037  17.091 -1.3367 -0.1038 -0.3847
14330TIP3    H264406   0.210   2.063  17.001  0.0667 -0.0605  1.4291
14331TIP3   OH264407   3.816   0.478   4.739 -0.1033 -0.7705  0.3344
14331TIP3    H164408   3.756   0.537   4.694  0.2183  0.8574  1.9164
14331TIP3    H264409   3.904   0.510   4.716  0.0680 -0.0468  1.8310
14332TIP3   OH264410   0.889   5.928   6.584 -0.0707  0.4940  0.4541
14332TIP3    H164411   0.804   5.957   6.550 -0.3998 -0.5389  0.3471
14332TIP3    H264412   0.886   5.833   6.576  1.2330  0.4599  0.1515
14333TIP3   OH264413   0.724   5.758  16.447  0.1561 -0.6320  0.4581
14333TIP3    H164414   0.737   5.723  16.359 -1.1806 -0.8293  0.3135
14333TIP3    H264415   0.706   5.851  16.433 -3.8048 -1.2719  0.0742
14334TIP3   OH264416   1.761   5.673   4.475  0.3898  0.0775  0.1081
14334TIP3    H164417   1.807   5.595   4.444 -0.0357 -0.4273  0.7250
14334TIP3    H264418   1.718   5.708   4.397  1.0425  0.0312 -0.2877
14335TIP3   OH264419   0.533   6.770  13.096  0.2748 -0.2387  0.3917
14335TIP3    H164420   0.609   6.814  13.133  0.1717 -0.3854  0.7831
14335TIP3    H264421   0.570   6.696  13.047  0.3384 -0.7982  1.2718
14336TIP3   OH264422   1.723   3.527   0.673 -0.0747  0.5650  0.3202
14336TIP3    H164423   1.811   3.532   0.635  0.3443 -0.8182  1.0465
14336TIP3    H264424   1.714   3.608   0.724  1.5485 -0.1121  1.7810
14337TIP3   OH264425   0.033   0.526  14.230  0.3432  0.3493  0.1949
14337TIP3    H164426  -0.022   0.594  14.191  0.2602  0.1680 -0.0062
14337TIP3    H264427  -0.002   0.444  14.195 -0.7302  0.0542  1.8330
14338TIP3   OH264428   5.777   2.031  13.873  0.4200 -0.1122  0.1458
14338TIP3    H164429   5.720   2.037  13.796 -1.4443  0.5304  1.4942
14338TIP3    H264430   5.782   1.937  13.891 -1.0007 -0.1453  0.5143
14339TIP3   OH264431   5.190   3.997  15.113  0.3118  0.3508 -0.1624
14339TIP3    H164432   5.285   3.991  15.105  0.2395 -0.2324 -0.6231
14339TIP3    H264433   5.163   3.912  15.148 -0.1333  0.1467 -0.9783
14340TIP3   OH264434   3.801   6.472  13.573 -0.0093 -0.4309 -0.1776
14340TIP3    H164435   3.729   6.425  13.532 -1.1860 -1.2102  2.5327
14340TIP3    H264436   3.863   6.404  13.599  0.2112 -0.0769  0.2376
14341TIP3   OH264437   4.926   5.542  11.919  0.3033  0.4648 -0.0733
14341TIP3    H164438   4.873   5.599  11.975 -2.8146 -3.1064  1.0527
14341TIP3    H264439   4.904   5.570  11.830 -3.0324 -0.2486  0.3715
14342TIP3   OH264440   5.990   6.098   5.978  1.1905  1.0005 -0.2864
14342TIP3    H164441   5.924   6.113   6.046  1.7787 -1.9787  1.1207
14342TIP3    H264442   5.939   6.088   5.897  0.1705  1.3496  0.2920
14343TIP3   OH264443   0.965   2.782   5.400 -0.1888  0.0726 -0.1681
14343TIP3    H164444   0.907   2.809   5.471 -1.5978 -1.2030 -0.7733
14343TIP3    H264445   0.938   2.836   5.326  1.4050  1.5367  0.2461
14344TIP3   OH264446   5.034   1.529  15.310 -0.3638  0.3889  0.1093
14344TIP3    H164447   5.019   1.505  15.218  1.3247  2.2205 -0.6985
14344TIP3    H264448   5.128   1.524  15.321 -0.5579  0.0204  1.8431
14345TIP3   OH264449   5.851   1.885   2.874 -0.1132  0.3760  0.0539
14345TIP3    H164450   5.807   1.811   2.917 -0.6960  1.1092  0.7567
14345TIP3    H264451   5.806   1.894   2.790  0.5504 -0.6141 -0.4223
14346TIP3   OH264452   0.195   3.028  14.988 -0.2028  0.1087 -0.1827
14346TIP3    H164453   0.273   3.014  15.041  0.3898  0.1543 -1.0225
14346TIP3    H264454   0.139   3.084  15.042  0.5754  0.5207  0.2137
14347TIP3   OH264455   0.732   6.155   5.465 -0.2283  0.1629  0.2098
14347TIP3    H164456   0.680   6.220   5.512  0.6386  0.1758  1.1970
14347TIP3    H264457   0.763   6.095   5.533  1.1880  0.2622 -0.3082
14348TIP3   OH264458   1.201   4.826  13.531  0.1717  0.3851 -0.2636
14348TIP3    H164459   1.180   4.759  13.465  0.6405  0.3990 -0.4288
14348TIP3    H264460   1.117   4.847  13.571  0.2721 -1.9044  1.3251
14349TIP3   OH264461   2.575   0.130  16.950  0.4930 -0.1056  0.3145
14349TIP3    H164462   2.607   0.066  17.014  1.9722  1.9918  1.8272
14349TIP3    H264463   2.616   0.104  16.867  1.0617 -1.1092  0.8925
14350TIP3   OH264464   0.965   3.295   2.418 -0.1250 -0.0240  0.2747
14350TIP3    H164465   1.037   3.233   2.421 -0.7087 -0.6791  1.3130
14350TIP3    H264466   0.912   3.274   2.495 -0.2876  1.8248  0.7142
14351TIP3   OH264467   2.331   0.245   5.795 -0.1242 -0.2067 -0.3113
14351TIP3    H164468   2.307   0.264   5.885  1.3493 -0.0265  0.0649
14351TIP3    H264469   2.392   0.172   5.801  0.0485 -0.1476 -1.1650
14352TIP3   OH264470   1.912   1.490  11.879 -0.1465 -0.0925  0.3883
14352TIP3    H164471   1.889   1.428  11.810 -1.9567 -0.0673  0.9216
14352TIP3    H264472   2.003   1.470  11.899 -0.1125 -1.2873 -0.7701
14353TIP3   OH264473   5.096   2.560   5.875  0.3787  0.0422 -0.2303
14353TIP3    H164474   5.074   2.572   5.967 -0.5811 -0.6431 -0.3536
14353TIP3    H264475   5.136   2.473   5.871  0.4229  0.0715 -0.4512
14354TIP3   OH264476   1.165   5.976   2.108 -0.0339 -0.6372 -0.2471
14354TIP3    H164477   1.224   6.051   2.101  0.3481 -0.7968  1.0271
14354TIP3    H264478   1.094   6.006   2.165 -0.3720 -0.9430 -0.5021
14355TIP3   OH264479   2.807   6.660   3.693 -0.0051 -0.1789  0.4643
14355TIP3    H164480   2.876   6.724   3.676 -0.6843  0.9720  1.8320
14355TIP3    H264481   2.797   6.613   3.610  1.1534  0.8578 -0.2979
14356TIP3   OH264482   3.148   4.100  14.549 -0.1119  0.4343  0.6388
14356TIP3    H164483   3.193   4.142  14.476 -0.9796 -1.0313 -0.8016
14356TIP3    H264484   3.162   4.007  14.536 -0.8156  0.1060  2.0034
14357TIP3   OH264485   2.877   2.875  14.694 -0.2464 -0.2748 -0.1097
14357TIP3    H164486   2.961   2.842  14.725 -0.9699  1.1419  3.8962
14357TIP3    H264487   2.814   2.808  14.720 -0.7039  0.1122 -0.2055
14358TIP3   OH264488   2.215   3.821   4.499  1.0247 -0.7902 -0.0740
14358TIP3    H164489   2.247   3.907   4.470  1.4125 -0.6729  0.6701
14358TIP3    H264490   2.135   3.841   4.547  0.3177 -0.9954 -1.1337
14359TIP3   OH264491   4.967   4.798  11.348 -0.0451 -0.2126  0.0343
14359TIP3    H164492   5.051   4.798  11.303 -0.1831  2.4428 -0.3456
14359TIP3    H264493   4.986   4.831  11.435 -1.0622  3.9069 -1.1149
14360TIP3   OH264494   4.705   3.382   3.103 -0.0441 -0.2359  0.1584
14360TIP3    H164495   4.648   3.335   3.165  0.1806 -0.9291 -0.1474
14360TIP3    H264496   4.788   3.393   3.151  0.2114 -0.9924 -0.1000
14361TIP3   OH264497   3.293   0.369   4.936  0.5043  0.2815  0.3982
14361TIP3    H164498   3.386   0.372   4.915  0.7937 -0.0479  1.5477
14361TIP3    H264499   3.272   0.276   4.942 -0.3221  0.3101 -1.5241
14362TIP3   OH264500   6.056   5.018   5.059  0.5134 -0.3135 -0.3919
14362TIP3    H164501   6.037   4.931   5.024  1.2566 -0.5426 -0.2576
14362TIP3    H264502   6.152   5.019   5.067  0.5903  0.8735 -1.3141
14363TIP3   OH264503   1.643   5.924   4.371  0.3746 -0.6418  0.0131
14363TIP3    H164504   1.621   6.016   4.361  1.9384  0.0752  2.2728
14363TIP3    H264505   1.711   5.908   4.305  0.3647 -0.0825 -0.1371
14364TIP3   OH264506   3.616   1.927  15.322  0.4798 -0.0905 -0.0320
14364TIP3    H164507   3.532   1.958  15.355  0.1192 -1.6293  0.5984
14364TIP3    H264508   3.664   1.902  15.401  1.2263  0.0370 -0.4412
14365TIP3   OH264509   3.423   0.320  14.612 -0.1280  0.6617  0.4418
14365TIP3    H164510   3.368   0.337  14.688  1.4384  0.3341  1.7205
14365TIP3    H264511   3.400   0.389  14.549 -1.8799  0.5826  0.9468
14366TIP3   OH264512   4.874   4.573   2.301 -0.6983  0.0342  0.0312
14366TIP3    H164513   4.786   4.538   2.314 -0.8638 -1.1067 -3.2805
14366TIP3    H264514   4.932   4.498   2.313 -0.2435  0.5104  0.9424
14367TIP3   OH264515   0.213   1.887  13.872  0.1957  0.3342  0.4170
14367TIP3    H164516   0.272   1.963  13.870  0.4010  0.1824  0.6802
14367TIP3    H264517   0.200   1.868  13.965 -0.1350  0.2615  0.3580
14368TIP3   OH264518   6.753   6.219   6.001 -0.2461 -0.3429  0.3303
14368TIP3    H164519   6.790   6.289   6.054 -1.7435 -0.2684  1.3440
14368TIP3    H264520   6.683   6.261   5.951 -1.5560 -1.1752  1.3868
14369TIP3   OH264521   3.945   5.466  11.386  0.4413  0.6538 -0.4517
14369TIP3    H164522   3.938   5.371  11.391 -0.1245  0.7530  2.6182
14369TIP3    H264523   3.905   5.489  11.302 -3.1993 -1.5920  0.4311
14370TIP3   OH264524   4.947   4.808   6.519 -0.4727  0.0741  0.4907
14370TIP3    H164525   4.880   4.851   6.466  1.2794  0.7507 -1.2908
14370TIP3    H264526   4.992   4.879   6.564 -0.5101 -0.3181  1.1627
14371TIP3   OH264527   3.861   3.658  13.494 -0.4390  0.1265  0.0968
14371TIP3    H164528   3.818   3.591  13.547 -1.6385  0.0280 -0.9797
14371TIP3    H264529   3.937   3.613  13.456  2.2427  0.9075  3.9010
14372TIP3   OH264530   5.976   4.189  15.690  0.3959 -0.2190  0.7973
14372TIP3    H164531   5.933   4.275  15.687  0.3207 -0.2576 -2.2331
14372TIP3    H264532   6.068   4.207  15.673  0.0232 -0.7974 -2.5213
14373TIP3   OH264533   0.098   0.092  12.898  0.0129 -0.0301 -0.1296
14373TIP3    H164534   0.175   0.142  12.873  1.4083 -1.1900  1.5471
14373TIP3    H264535   0.093   0.101  12.993 -1.5500 -0.5242 -0.1229
14374TIP3   OH264536   5.888   1.591  15.421 -0.0065  0.0526  0.0189
14374TIP3    H164537   5.961   1.653  15.416 -0.2077  0.1805 -2.8184
14374TIP3    H264538   5.924   1.515  15.466  1.6964  0.3394 -0.8044
14375TIP3   OH264539   3.845   3.239   5.363  0.3087 -0.5698  0.1824
14375TIP3    H164540   3.840   3.211   5.271  0.0186 -0.9594  0.3173
14375TIP3    H264541   3.770   3.198   5.405  1.1311 -1.3921  0.8651
14376TIP3   OH264542   4.338   6.674   2.316 -0.5995  0.2046  0.0072
14376TIP3    H164543   4.365   6.762   2.344 -0.4155  0.3492 -0.6017
14376TIP3    H264544   4.243   6.674   2.323 -0.6035  0.4729 -0.0431
14377TIP3   OH264545   1.003   4.343   4.875  0.8810 -0.9264 -0.4793
14377TIP3    H164546   1.001   4.438   4.862  2.1510 -0.7989  0.1324
14377TIP3    H264547   0.972   4.307   4.792 -1.5989  0.0340 -0.0651
14378TIP3   OH264548   3.795   0.321  11.361  0.1676 -0.2897  0.0200
14378TIP3    H164549   3.827   0.405  11.396 -0.2638 -0.6060  1.2164
14378TIP3    H264550   3.710   0.308  11.403 -0.6874 -0.3887 -1.6646
14379TIP3   OH264551   3.017   3.371   1.457 -0.0300 -0.9873 -0.2329
14379TIP3    H164552   2.930   3.350   1.424 -0.0429 -1.0418 -0.1654
14379TIP3    H264553   3.025   3.319   1.537  0.3145 -1.5019 -0.5872
14380TIP3   OH264554   3.112   6.151  13.013  0.4067  0.2021 -0.0456
14380TIP3    H164555   3.196   6.184  13.043  0.0516  2.0058 -0.8789
14380TIP3    H264556   3.055   6.229  13.010  0.3779  0.3625 -5.2615
14381TIP3   OH264557   3.821   4.500   1.526  0.0400 -0.0589  0.3137
14381TIP3    H164558   3.801   4.418   1.571 -1.4781 -0.1572 -0.4600
14381TIP3    H264559   3.865   4.474   1.446  0.9073 -0.0064  0.7611
14382TIP3   OH264560   1.302   3.014   5.698  0.3633 -0.7064 -0.2789
14382TIP3    H164561   1.256   2.931   5.700 -0.0191 -0.5255  2.5236
14382TIP3    H264562   1.392   2.993   5.724  0.4136 -0.3134 -0.1276
14383TIP3   OH264563   1.135   4.412   3.561 -0.5172  0.3043  0.1586
14383TIP3    H164564   1.064   4.348   3.568 -0.3165  0.2510  3.0856
14383TIP3    H264565   1.118   4.474   3.632  2.9220 -0.3704  1.7983
14384TIP3   OH264566   6.250   3.738   2.381  0.4411  0.0324 -0.1161
14384TIP3    H164567   6.229   3.647   2.361 -0.5702 -0.4767  2.7275
14384TIP3    H264568   6.177   3.789   2.347 -0.3624 -0.5718  0.6645
14385TIP3   OH264569   2.812   4.877  11.385 -0.3978 -0.0983 -0.5336
14385TIP3    H164570   2.760   4.954  11.360 -0.4437 -0.3472 -1.2489
14385TIP3    H264571   2.903   4.906  11.377 -0.4139  0.4229  0.9954
14386TIP3   OH264572   5.535   3.469  13.009 -0.1754  0.2797 -0.0192
14386TIP3    H164573   5.477   3.447  13.082  0.1269  1.0672  0.4681
14386TIP3    H264574   5.561   3.384  12.973 -2.7319 -0.1250 -1.1733
14387TIP3   OH264575   1.375   1.734  13.954 -0.0638  0.0069 -0.0587
14387TIP3    H164576   1.365   1.703  14.044  0.4273  1.6649  0.5977
14387TIP3    H264577   1.289   1.767  13.930  0.5251  2.5434  1.0168
14388TIP3   OH264578   4.998   2.118  14.211  0.2365 -0.0717  0.3156
14388TIP3    H164579   4.966   2.070  14.135 -0.8356 -0.4690  0.9868
14388TIP3    H264580   5.092   2.127  14.197  0.0492 -0.1030 -1.0656
14389TIP3   OH264581   0.279   4.803   2.216 -0.2691  0.3451 -0.0793
14389TIP3    H164582   0.221   4.744   2.167  0.5559  0.0025 -0.6765
14389TIP3    H264583   0.366   4.765   2.205  0.3815  1.9956 -0.9897
14390TIP3   OH264584   1.582   6.315  16.185  0.2701  0.2286 -0.5246
14390TIP3    H164585   1.488   6.315  16.201  0.0500 -0.5288 -1.6680
14390TIP3    H264586   1.619   6.367  16.256 -0.9050 -0.3458  0.5434
14391TIP3   OH264587   5.847   3.889   3.676 -0.1855 -0.0528  0.4305
14391TIP3    H164588   5.897   3.949   3.621 -0.4082  0.2442  0.5508
14391TIP3    H264589   5.827   3.815   3.620 -1.1478  0.6264 -0.1376
14392TIP3   OH264590   0.537   3.889   1.786 -0.4843 -0.1801  0.1148
14392TIP3    H164591   0.497   3.933   1.711 -0.7637  0.2858  0.5236
14392TIP3    H264592   0.509   3.942   1.862  0.8916  0.1475  0.4167
14393TIP3   OH264593   5.967   1.638  11.812  0.7913  0.0389 -0.3494
14393TIP3    H164594   5.997   1.728  11.819  0.5698  0.1643 -0.9437
14393TIP3    H264595   5.882   1.644  11.769  0.3857 -0.3915  0.3731
14394TIP3   OH264596   1.004   5.963  12.079 -0.0902  0.3601 -0.1722
14394TIP3    H164597   0.936   5.955  12.012  0.2980 -0.7419 -0.4578
14394TIP3    H264598   1.083   5.983  12.030 -0.1355  1.2785  0.1249
14395TIP3   OH264599   3.833   4.745  16.145  0.2023  0.1372  0.0604
14395TIP3    H164600   3.878   4.793  16.215  2.9201 -1.2540 -0.5961
14395TIP3    H264601   3.769   4.691  16.191  1.2277  0.0232  1.4339
14396TIP3   OH264602   4.653   4.168   6.166  0.1586 -0.1334  0.1205
14396TIP3    H164603   4.695   4.104   6.224 -1.2446 -0.6690  0.5897
14396TIP3    H264604   4.583   4.119   6.122 -0.3445  0.8552 -0.2204
14397TIP3   OH264605   2.765   1.268   3.036  0.4515  0.0174  0.1195
14397TIP3    H164606   2.737   1.178   3.023  0.4715 -0.2336  1.5871
14397TIP3    H264607   2.848   1.261   3.083  1.2662  0.8009 -1.1329
14398TIP3   OH264608   1.223   5.239  15.273  0.0372  0.4627  0.8203
14398TIP3    H164609   1.278   5.205  15.343  1.6168  2.7377  0.7901
14398TIP3    H264610   1.157   5.293  15.318  1.2121  2.1417  0.6415
14399TIP3   OH264611   6.043   5.730  13.808 -0.2055 -0.2247 -0.1566
14399TIP3    H164612   6.087   5.801  13.761 -0.6097 -0.4293 -0.8565
14399TIP3    H264613   6.076   5.736  13.898  1.1069 -0.2613 -0.6210
14400TIP3   OH264614   4.280   4.649  15.119 -1.2098 -0.5318  0.8611
14400TIP3    H164615   4.320   4.736  15.128  0.1074 -0.8312 -1.2903
14400TIP3    H264616   4.344   4.598  15.069 -3.3469 -1.7030 -0.9046
14401TIP3   OH264617   4.880   6.443  13.910  0.7933  0.0876 -0.0751
14401TIP3    H164618   4.863   6.474  13.822  0.8245  0.0496 -0.0942
14401TIP3    H264619   4.812   6.484  13.964  1.4174  0.9770  0.0678
14402TIP3   OH264620   5.379   6.412  14.937 -0.0828 -0.4609 -0.0580
14402TIP3    H164621   5.427   6.343  14.982 -0.3101 -1.0030 -0.6399
14402TIP3    H264622   5.417   6.416  14.849  0.6341  0.8673  0.2856
14403TIP3   OH264623   5.859   4.719   2.295 -0.1202 -0.2033 -0.1517
14403TIP3    H164624   5.789   4.705   2.359 -0.4100 -2.1824 -0.8185
14403TIP3    H264625   5.848   4.809   2.265 -0.6837  0.3988  1.7192
14404TIP3   OH264626   0.880   0.952  11.941 -0.4303 -0.0095 -0.2232
14404TIP3    H164627   0.845   1.031  11.902  3.6941  1.8325 -0.6951
14404TIP3    H264628   0.844   0.950  12.030 -0.5767  2.4961 -0.1735
14405TIP3   OH264629   4.786   0.703  15.514 -0.6078  0.6834 -0.5255
14405TIP3    H164630   4.725   0.649  15.463 -2.4230  2.4509 -0.3382
14405TIP3    H264631   4.793   0.785  15.464  0.2182  1.1813  0.3710
14406TIP3   OH264632   5.570   2.782   3.627  0.3406  0.5552  0.2754
14406TIP3    H164633   5.649   2.761   3.576  1.4962 -3.4633  3.2175
14406TIP3    H264634   5.603   2.827   3.705 -0.5700  0.7041  0.5777
14407TIP3   OH264635   6.448   0.314   0.212 -0.4717 -0.2651 -0.5186
14407TIP3    H164636   6.358   0.341   0.233 -1.4417 -4.0416  1.1380
14407TIP3    H264637   6.440   0.265   0.130  0.1979 -0.1389 -0.6642
14408TIP3   OH264638   6.058   1.258  17.247  0.9116  0.3453 -0.4300
14408TIP3    H164639   6.071   1.202  17.170 -1.4218 -0.2104 -0.4966
14408TIP3    H264640   5.998   1.327  17.216  0.0031  0.1561  0.8463
14409TIP3   OH264641   5.954   5.538  17.237 -0.1005 -0.1251 -0.1638
14409TIP3    H164642   5.902   5.492  17.303 -0.3857  0.3081 -0.0796
14409TIP3    H264643   5.993   5.611  17.285 -0.5068  0.3340 -0.5246
14410TIP3   OH264644   3.500   1.805  16.741 -0.2863  0.3327  0.2355
14410TIP3    H164645   3.528   1.744  16.809  1.3589 -0.7811 -1.3535
14410TIP3    H264646   3.408   1.782  16.725 -0.2113 -0.5175  0.9321
14411TIP3   OH264647   2.489   2.571   3.631 -0.2738  0.5363  0.1959
14411TIP3    H164648   2.534   2.655   3.638 -1.4967  1.1517  0.9065
14411TIP3    H264649   2.555   2.506   3.658  0.4265  1.3341  0.4480
14412TIP3   OH264650   5.764   1.621   5.015  0.0659 -0.3944 -0.2662
14412TIP3    H164651   5.731   1.702   5.055 -3.1555 -2.5866  2.0080
14412TIP3    H264652   5.842   1.599   5.066 -0.2255  0.2476  0.4776
14413TIP3   OH264653   2.637   2.796   0.315  0.3459 -0.1094  0.1238
14413TIP3    H164654   2.728   2.821   0.304  0.4066  0.5691  1.8218
14413TIP3    H264655   2.637   2.700   0.315  0.5946 -0.2099 -2.9237
14414TIP3   OH264656   6.308   2.522   1.323 -0.3284  0.2540  0.5699
14414TIP3    H164657   6.272   2.484   1.243  1.4432 -1.3633  0.4739
14414TIP3    H264658   6.286   2.615   1.318  0.7078  0.4382 -2.3861
14415TIP3   OH264659   1.152   4.845   3.043 -0.2308 -0.3417 -0.7294
14415TIP3    H164660   1.234   4.862   3.090 -0.4260 -1.0032 -0.1374
14415TIP3    H264661   1.098   4.921   3.064 -0.6344 -1.0292  0.8638
14416TIP3   OH264662   6.017   1.192   0.329  0.6177  0.0753  0.1541
14416TIP3    H164663   5.999   1.189   0.423 -0.1445  1.9871  0.1293
14416TIP3    H264664   6.112   1.189   0.323  0.7878 -5.4556  0.5812
14417TIP3   OH264665   2.023   5.284   2.148 -0.1910  0.5070  0.2625
14417TIP3    H164666   1.963   5.305   2.220  1.9572  0.8533  2.0567
14417TIP3    H264667   2.095   5.236   2.190  0.9331  0.3248 -1.7440
14418TIP3   OH264668   5.314   3.790   1.249  0.5376  0.2907  0.3140
14418TIP3    H164669   5.285   3.814   1.337  3.1126  0.1594  1.2785
14418TIP3    H264670   5.239   3.810   1.193 -1.0406  0.7667  2.4592
14419TIP3   OH264671   2.205   6.326  14.171  0.2048 -0.1747  0.0473
14419TIP3    H164672   2.232   6.254  14.227 -0.3960 -0.3945  0.0587
14419TIP3    H264673   2.139   6.373  14.222 -0.8396 -0.7675 -0.7235
14420TIP3   OH264674   6.035   3.485   0.872 -0.0961  0.5441 -0.3180
14420TIP3    H164675   6.057   3.569   0.832  0.6496 -0.4880 -2.1755
14420TIP3    H264676   6.107   3.427   0.848 -0.1992 -0.4675  1.5916
14421TIP3   OH264677   4.728   6.583  15.652 -0.2056 -1.0789 -0.0226
14421TIP3    H164678   4.765   6.571  15.565  0.1159 -2.4810  0.2804
14421TIP3    H264679   4.801   6.563  15.711  0.0030  1.2018  0.6121
14422TIP3   OH264680   4.116   1.416   4.031 -0.4522 -0.0339  0.5455
14422TIP3    H164681   4.122   1.354   3.959  1.8270  0.2395  0.4278
14422TIP3    H264682   4.028   1.403   4.067 -1.7594 -0.0046 -2.3899
14423TIP3   OH264683   2.990   0.760  11.239 -0.4899 -0.4711 -0.0453
14423TIP3    H164684   3.011   0.835  11.294 -0.0830  0.2849 -1.2032
14423TIP3    H264685   2.897   0.767  11.221 -0.4745 -0.3133 -0.0595
14424TIP3   OH264686   4.557   4.735   0.348  0.2777 -0.1932  0.3405
14424TIP3    H164687   4.483   4.684   0.317  0.3157 -0.8535  1.2974
14424TIP3    H264688   4.558   4.722   0.443  1.1675  0.4109  0.4324
14425TIP3   OH264689   2.878   1.303   4.656 -0.6384 -0.2762  0.8347
14425TIP3    H164690   2.878   1.370   4.587  0.8457  1.0113  2.0152
14425TIP3    H264691   2.785   1.283   4.669 -1.1862  2.0083  0.8338
14426TIP3   OH264692   0.648   6.394  15.572 -0.4828 -0.4624 -0.2523
14426TIP3    H164693   0.627   6.485  15.594 -1.9743 -0.7160 -0.4906
14426TIP3    H264694   0.640   6.389  15.477  1.3476 -0.4539 -0.4359
14427TIP3   OH264695   0.060   1.367   5.024 -0.2787  0.1667  0.2302
14427TIP3    H164696   0.144   1.409   5.003  0.9040 -3.5945 -4.1339
14427TIP3    H264697  -0.005   1.418   4.975  0.3211 -0.0023 -0.7654
14428TIP3   OH264698   6.164   0.479  11.386 -0.4050  0.7985  0.2373
14428TIP3    H164699   6.205   0.556  11.347  1.1891  0.4544  1.1308
14428TIP3    H264700   6.142   0.506  11.475 -1.7404  0.8309 -0.0862
14429TIP3   OH264701   3.031   2.568  16.816  0.4088  0.5091  0.3237
14429TIP3    H164702   2.979   2.594  16.892 -1.2863  0.7970 -0.8722
14429TIP3    H264703   3.012   2.474  16.806 -0.3188  0.7270 -0.4207
14430TIP3   OH264704   2.361   0.087   3.709  0.2087  0.3708  0.5643
14430TIP3    H164705   2.439   0.038   3.737  0.1362  0.2336  0.5290
14430TIP3    H264706   2.316   0.027   3.649  0.1738  0.5227  0.4390
14431TIP3   OH264707   1.098   6.607  10.984  0.2563  0.5433 -0.0899
14431TIP3    H164708   1.118   6.603  10.890  0.6392 -2.3887  0.0380
14431TIP3    H264709   1.172   6.655  11.022 -0.6084  3.1010 -1.3533
14432TIP3   OH264710   5.501   0.322  12.424  0.2838 -0.0750  0.6690
14432TIP3    H164711   5.451   0.394  12.463  1.6065  0.7401  0.9133
14432TIP3    H264712   5.506   0.343  12.331 -0.1546 -0.3746  0.5715
14433TIP3   OH264713   3.187   5.139  16.296 -0.2067 -0.7141 -0.1398
14433TIP3    H164714   3.280   5.157  16.302  0.0406 -1.7706 -0.6288
14433TIP3    H264715   3.149   5.183  16.372  0.8145 -1.0820  0.6038
14434TIP3   OH264716   2.196   5.623  13.866  0.4777  0.2673  0.5800
14434TIP3    H164717   2.233   5.668  13.943 -1.0403  0.6810  1.1086
14434TIP3    H264718   2.119   5.675  13.844 -0.9783 -1.6941  0.8024
14435TIP3   OH264719   5.224   0.947   4.452 -0.7376 -0.3066 -0.1744
14435TIP3    H164720   5.235   0.859   4.488  0.1057 -0.8814 -1.7179
14435TIP3    H264721   5.189   0.933   4.364 -1.0625  0.9334 -0.2679
14436TIP3   OH264722   2.519   0.602  12.060  0.4904  0.5184 -0.5298
14436TIP3    H164723   2.599   0.599  12.112  0.1736 -0.1356 -0.0551
14436TIP3    H264724   2.511   0.514  12.022 -0.2515  0.4178 -0.1657
14437TIP3   OH264725   4.649   2.472  11.732  0.6915 -0.0899 -0.4310
14437TIP3    H164726   4.598   2.483  11.652 -1.3493 -1.2762  0.6165
14437TIP3    H264727   4.660   2.561  11.767 -0.4093  0.2151 -0.8476
14438TIP3   OH264728   0.103   1.517  12.094 -0.1725 -0.4897 -0.4620
14438TIP3    H164729   0.151   1.452  12.145  0.4188  0.3969  0.1307
14438TIP3    H264730   0.128   1.601  12.132  0.4682  0.2202 -2.3517
14439TIP3   OH264731   6.568   1.663   5.513  0.7158 -0.6941 -0.1783
14439TIP3    H164732   6.644   1.644   5.568 -0.5124  0.3582  2.0436
14439TIP3    H264733   6.551   1.581   5.466  3.2429 -0.9100 -0.8297
14440TIP3   OH264734   1.881   4.764  16.568  0.1971  0.4257 -0.4187
14440TIP3    H164735   1.958   4.721  16.605  0.7823 -0.1450 -2.2382
14440TIP3    H264736   1.864   4.718  16.486 -0.6203  2.1215 -1.2522
14441TIP3   OH264737   1.914   0.999   0.326  0.1698 -0.2241 -0.3561
14441TIP3    H164738   1.886   0.966   0.411  1.0213  0.5620  0.2586
14441TIP3    H264739   1.890   0.931   0.264 -2.3006  0.0472  0.2158
14442TIP3   OH264740   2.746   5.265  13.071 -0.2569  0.2465 -0.0654
14442TIP3    H164741   2.808   5.263  13.144  0.3624 -0.2100 -0.6012
14442TIP3    H264742   2.790   5.219  13.000 -1.9968 -1.9849  0.1686
14443TIP3   OH264743   5.112   5.758   6.089  0.6481  0.0683  0.3779
14443TIP3    H164744   5.061   5.680   6.110 -1.6660  1.3217 -0.2324
14443TIP3    H264745   5.117   5.807   6.170 -0.3480  0.5773  0.1502
14444TIP3   OH264746   6.768   0.108  14.804  0.1387 -0.1190 -0.0869
14444TIP3    H164747   6.832   0.071  14.864 -1.0505 -0.3242  1.0965
14444TIP3    H264748   6.800   0.197  14.787  0.3728  0.0362  1.0654
14445TIP3   OH264749   2.211   2.112   0.123  0.7036  0.2271 -0.1456
14445TIP3    H164750   2.260   2.103   0.041 -0.4897  1.2731 -1.0149
14445TIP3    H264751   2.171   2.026   0.138  2.0418 -0.3720  0.1019
14446TIP3   OH264752   6.588   1.946   4.226  0.4383  0.3916  0.1200
14446TIP3    H164753   6.642   1.910   4.297 -0.3364 -0.7679  0.1384
14446TIP3    H264754   6.647   1.948   4.150  0.8293  0.1996  0.4123
14447TIP3   OH264755   1.899   4.595  15.747 -0.1293  0.6382 -0.0355
14447TIP3    H164756   1.912   4.672  15.691 -2.8295  1.1736 -0.0490
14447TIP3    H264757   1.900   4.521  15.686  1.0199  0.7664 -0.2057
14448TIP3   OH264758   4.068   6.619   3.760  0.3596 -0.1733  0.2187
14448TIP3    H164759   4.023   6.632   3.844  1.2158 -0.9938  0.8250
14448TIP3    H264760   4.116   6.701   3.746 -0.4258  0.2756  0.1210
14449TIP3   OH264761   4.214   3.466  15.398  0.2034  0.3421 -0.5199
14449TIP3    H164762   4.193   3.513  15.318 -1.7190 -0.8019 -0.7462
14449TIP3    H264763   4.129   3.443  15.436  0.9316  2.4243  2.8513
14450TIP3   OH264764   6.012   6.100   4.670 -0.1575  0.2442  0.2581
14450TIP3    H164765   5.948   6.055   4.614 -0.6592  0.1274  0.9124
14450TIP3    H264766   5.963   6.121   4.750  0.8475 -0.6174  1.1391
14451TIP3   OH264767   0.557   3.459   2.597 -0.6820 -0.1132 -0.2924
14451TIP3    H164768   0.538   3.400   2.524  0.4332 -0.5801 -0.2170
14451TIP3    H264769   0.485   3.523   2.595 -1.4717 -0.9937 -0.8688
14452TIP3   OH264770   4.458   0.945  15.199  0.2544  1.1030 -0.3372
14452TIP3    H164771   4.440   0.902  15.283 -0.2957 -1.1289 -1.5437
14452TIP3    H264772   4.536   0.999  15.217  0.8248 -0.1820  1.3444
14453TIP3   OH264773   0.951   2.401  13.521 -0.6875 -0.0651  0.8409
14453TIP3    H164774   0.889   2.330  13.536 -1.2739 -0.2241 -1.7779
14453TIP3    H264775   0.897   2.476  13.496  0.0618  0.3586  0.4429
14454TIP3   OH264776   6.541   0.192  17.221  0.3969 -0.3738  0.4006
14454TIP3    H164777   6.622   0.208  17.173 -0.0248  2.1255  0.3835
14454TIP3    H264778   6.487   0.142  17.161  1.6323 -1.4740  0.1524
14455TIP3   OH264779   3.117   6.258  14.719  0.2022 -0.3641  0.1559
14455TIP3    H164780   3.104   6.346  14.685 -0.1377 -0.1446  0.8294
14455TIP3    H264781   3.029   6.230  14.747  0.5132 -0.4139  1.1220
14456TIP3   OH264782   2.664   4.402   5.807  0.2318 -0.3501  0.4709
14456TIP3    H164783   2.724   4.454   5.755 -0.5347 -0.2229 -0.3067
14456TIP3    H264784   2.624   4.341   5.745 -1.9498  0.9247  0.5323
14457TIP3   OH264785   2.095   1.396  16.460  0.2872 -0.2971  0.6692
14457TIP3    H164786   2.008   1.358  16.467  0.0553 -0.2635 -1.4802
14457TIP3    H264787   2.088   1.480  16.506 -0.2107 -1.1844  2.2719
14458TIP3   OH264788   1.967   3.198   1.969 -0.2709  0.0453  0.1087
14458TIP3    H164789   1.887   3.224   1.923  1.2921  2.2804 -1.5755
14458TIP3    H264790   1.952   3.225   2.060 -2.5138 -2.3159  0.5583
14459TIP3   OH264791   0.587   4.930   4.910 -0.2518 -0.3756 -0.2473
14459TIP3    H164792   0.492   4.944   4.905  0.0566  1.6943 -1.6038
14459TIP3    H264793   0.615   4.984   4.984  0.3306  2.7507 -2.5402
14460TIP3   OH264794   2.746   1.073  10.276 -0.2874 -0.1797 -0.1548
14460TIP3    H164795   2.778   1.068  10.366 -1.4993 -0.7914  0.2693
14460TIP3    H264796   2.746   1.166  10.256  2.1937 -0.1606 -0.3854
14461TIP3   OH264797   5.144   0.747  12.352 -0.1907 -0.1721 -0.0070
14461TIP3    H164798   5.181   0.711  12.272  0.9631 -0.0081  0.4302
14461TIP3    H264799   5.057   0.709  12.358  0.2786 -1.3658 -0.5457
14462TIP3   OH264800   5.796   2.817  12.774 -0.4429 -0.2054 -0.3972
14462TIP3    H164801   5.879   2.778  12.746 -1.3800 -1.0479 -2.1881
14462TIP3    H264802   5.758   2.853  12.694 -0.5352  2.7662  0.8537
14463TIP3   OH264803   6.742   1.353   1.161 -0.1286  0.1665 -0.0397
14463TIP3    H164804   6.730   1.276   1.105  1.2279 -1.1192  1.3609
14463TIP3    H264805   6.830   1.384   1.142 -0.6779  1.4401 -0.6218
14464TIP3   OH264806   6.669   2.769  12.436  0.7023  0.4297 -0.0192
14464TIP3    H164807   6.609   2.825  12.386 -0.6417  0.3467  1.4378
14464TIP3    H264808   6.740   2.828  12.462  0.1978  1.0430 -0.0053
14465TIP3   OH264809   6.638   6.379   1.196  0.0982 -0.2179 -0.0187
14465TIP3    H164810   6.720   6.343   1.163 -0.5668 -0.4474 -1.4546
14465TIP3    H264811   6.657   6.472   1.209  1.3329 -0.6847  2.1783
14466TIP3   OH264812   2.845   4.402   1.294  0.1568 -0.3057 -0.2674
14466TIP3    H164813   2.849   4.490   1.331  0.3737  0.1039 -1.2141
14466TIP3    H264814   2.893   4.409   1.211  0.9475 -1.5398  0.0626
14467TIP3   OH264815   5.735   5.304  11.780  0.3863  0.3694  0.7401
14467TIP3    H164816   5.700   5.375  11.726  0.1915  1.2650  1.9858
14467TIP3    H264817   5.830   5.317  11.778  0.6077 -1.1129 -1.3620
14468TIP3   OH264818   6.694   6.143  14.265  0.3176  0.4926  0.3190
14468TIP3    H164819   6.758   6.112  14.201 -0.0697 -1.4386  0.8057
14468TIP3    H264820   6.746   6.168  14.341  0.5453 -2.3889  1.2507
14469TIP3   OH264821   0.820   6.197  12.633 -0.3677  0.2422  0.1032
14469TIP3    H164822   0.787   6.164  12.716 -0.6116 -1.2020 -0.5408
14469TIP3    H264823   0.888   6.260  12.657 -0.7036  0.1255  1.3888
14470TIP3   OH264824   5.041   6.269  11.893 -0.2207  0.0897  0.0400
14470TIP3    H164825   5.005   6.353  11.921  0.5150 -0.0306  1.4063
14470TIP3    H264826   4.967   6.210  11.894 -0.4760  0.4109  0.4141
14471TIP3   OH264827   1.472   1.315  16.710  0.3900 -0.4689  0.1349
14471TIP3    H164828   1.390   1.338  16.667  1.9404  2.0172 -1.8165
14471TIP3    H264829   1.509   1.246  16.655 -0.2699 -1.4701  0.9198
14472TIP3   OH264830   3.857   3.766   1.638 -0.1353  0.3436  0.7793
14472TIP3    H164831   3.930   3.704   1.646 -1.2085 -1.1036 -0.1067
14472TIP3    H264832   3.890   3.836   1.583 -0.1771 -1.6477 -1.9792
14473TIP3   OH264833   1.322   5.284  13.364 -0.6131 -0.1542  0.6316
14473TIP3    H164834   1.238   5.265  13.321 -0.6267 -1.5774  1.2294
14473TIP3    H264835   1.313   5.374  13.394 -0.9773  0.5694 -1.4323
14474TIP3   OH264836   2.676   5.608  17.089 -0.4021  0.5756  0.1134
14474TIP3    H164837   2.670   5.550  17.013 -2.1480  2.0834 -0.9823
14474TIP3    H264838   2.705   5.551  17.160  0.5326 -1.0521 -1.4822
14475TIP3   OH264839   5.634   1.154   3.177 -0.1892 -0.0650  0.3562
14475TIP3    H164840   5.647   1.136   3.270  0.3707  0.3499  0.3577
14475TIP3    H264841   5.539   1.167   3.168 -0.2004  0.2698  0.9338
14476TIP3   OH264842   0.232   6.616  12.593  0.2209  0.3006 -0.0086
14476TIP3    H164843   0.142   6.584  12.598  0.3352  0.0715  0.6379
14476TIP3    H264844   0.225   6.710  12.608  0.0163  0.3999 -0.6889
14477TIP3   OH264845   2.889   3.641  16.631  0.4938  0.3874 -0.1947
14477TIP3    H164846   2.928   3.661  16.716 -0.8106  1.6326  0.1560
14477TIP3    H264847   2.826   3.571  16.650  1.1469 -0.2530 -0.3862
14478TIP3   OH264848   3.528   3.871  15.790 -0.1489 -0.0670  0.1660
14478TIP3    H164849   3.446   3.864  15.742  1.1672 -1.1630 -2.0369
14478TIP3    H264850   3.576   3.942  15.746  1.0284 -0.9952 -0.0843
14479TIP3   OH264851   4.267   5.278   0.147 -0.0004 -0.0523 -0.0570
14479TIP3    H164852   4.175   5.299   0.164 -0.6664 -1.0645 -2.0432
14479TIP3    H264853   4.277   5.188   0.179 -0.0897 -0.4144 -1.0138
14480TIP3   OH264854   0.216   5.012  16.048  0.4134  0.0343  0.0877
14480TIP3    H164855   0.186   5.061  16.125 -0.5069 -1.3285  0.6386
14480TIP3    H264856   0.174   5.056  15.974  1.1972  1.2769  0.3400
14481TIP3   OH264857   0.479   4.017   1.568 -0.2345 -0.2633  0.2195
14481TIP3    H164858   0.518   4.023   1.481 -1.0940 -0.5066 -0.1984
14481TIP3    H264859   0.422   4.094   1.574 -0.0843 -0.1810  0.6199
14482TIP3   OH264860   1.366   1.180  15.840 -0.4858 -0.6921 -0.0749
14482TIP3    H164861   1.371   1.234  15.919 -2.9048  0.3704 -0.5816
14482TIP3    H264862   1.373   1.242  15.767 -1.2759 -1.2852 -0.6776
14483TIP3   OH264863   1.785   0.923   0.815 -0.0665 -0.2471 -0.4622
14483TIP3    H164864   1.808   0.832   0.834  1.2242  0.0840 -0.3064
14483TIP3    H264865   1.807   0.934   0.722  0.9845  0.2252 -0.1751
14484TIP3   OH264866   6.580   6.361   4.303 -0.2077  0.1120  0.2444
14484TIP3    H164867   6.614   6.343   4.215 -0.1850  0.2490  0.2235
14484TIP3    H264868   6.561   6.275   4.340 -2.3968  0.0989 -0.7541
14485TIP3   OH264869   2.113   1.372   3.035 -0.1191  0.3277 -0.4245
14485TIP3    H164870   2.196   1.325   3.030  0.0198  0.5599 -0.3043
14485TIP3    H264871   2.079   1.371   2.945  0.7713  1.6085 -0.7865
14486TIP3   OH264872   1.379   1.618   0.811 -0.3792 -0.4601 -0.0174
14486TIP3    H164873   1.288   1.606   0.839 -0.2224 -2.8592 -0.3640
14486TIP3    H264874   1.407   1.532   0.782  0.5815  1.0293 -4.3178
14487TIP3   OH264875   4.087   0.102   1.754 -0.2634 -0.3412  0.6558
14487TIP3    H164876   4.169   0.124   1.799 -1.2430 -0.3790  2.5323
14487TIP3    H264877   4.104   0.016   1.716  1.1756  0.4505 -0.6380
14488TIP3   OH264878   2.139   3.399  11.888 -0.4269  0.4983  0.2236
14488TIP3    H164879   2.160   3.321  11.939  0.1122 -0.8568 -1.9092
14488TIP3    H264880   2.218   3.454  11.895  0.5871 -0.7468 -0.9874
14489TIP3   OH264881   5.295   5.891   5.644  0.1452 -0.1083 -0.2566
14489TIP3    H164882   5.322   5.801   5.624  0.4645  0.3824 -2.1884
14489TIP3    H264883   5.374   5.943   5.630  0.0596  0.4682  1.1945
14490TIP3   OH264884   5.779   1.396   6.810  0.6394  0.4876 -0.5301
14490TIP3    H164885   5.712   1.352   6.758  0.7200 -0.3453  0.0510
14490TIP3    H264886   5.855   1.338   6.807  0.6642  0.4445  0.4647
14491TIP3   OH264887   1.421   5.101   1.963 -0.2930  0.0443  0.3623
14491TIP3    H164888   1.490   5.046   1.924 -0.1368 -0.3854  1.2096
14491TIP3    H264889   1.417   5.072   2.054 -0.5704  1.1005  0.6986
14492TIP3   OH264890   3.694   1.756  12.339  0.9165  0.2759 -0.1947
14492TIP3    H164891   3.672   1.829  12.281  0.7660 -0.8188 -1.5768
14492TIP3    H264892   3.773   1.718  12.300  0.7370 -0.5618  0.2503
14493TIP3   OH264893   0.764   2.386   0.180 -0.4230  0.3492  0.5623
14493TIP3    H164894   0.817   2.461   0.206 -0.4536 -0.4022  3.0150
14493TIP3    H264895   0.685   2.424   0.142 -0.2929  1.5618  1.4551
14494TIP3   OH264896   1.097   1.469  11.003 -0.0642  0.3544  0.3155
14494TIP3    H164897   1.011   1.467  11.045 -0.0177 -0.5728  0.4033
14494TIP3    H264898   1.080   1.496  10.913 -0.4081  0.4815  0.4178
14495TIP3   OH264899   1.987   5.444  13.651  0.5916 -0.0392  0.4645
14495TIP3    H164900   2.045   5.375  13.617  0.7491  0.1132  0.4186
14495TIP3    H264901   1.975   5.421  13.743 -0.0821 -0.6205  0.2348
14496TIP3   OH264902   5.324   0.405  15.319 -0.0374 -0.0526  0.6458
14496TIP3    H164903   5.313   0.332  15.260 -0.6785 -1.3451  2.2867
14496TIP3    H264904   5.251   0.399  15.380  1.4983  0.1278  2.6392
14497TIP3   OH264905   0.193   4.877  16.340  0.1441  0.4430 -0.4032
14497TIP3    H164906   0.249   4.812  16.298  0.0523 -0.1909  0.4324
14497TIP3    H264907   0.105   4.856  16.311  0.0878  0.0446  0.0498
14498TIP3   OH264908   6.076   2.602   1.820  0.7394  0.1741  0.0302
14498TIP3    H164909   6.109   2.640   1.738  0.5992  2.8936  1.1062
14498TIP3    H264910   5.989   2.642   1.830 -0.6804 -2.6573 -0.0513
14499TIP3   OH264911   6.743   3.630  14.339  0.1149  0.3215  0.0612
14499TIP3    H164912   6.737   3.661  14.249  0.3514  1.2600  0.3619
14499TIP3    H264913   6.668   3.670  14.383  0.5556  0.6698  0.5070
14500TIP3   OH264914   3.188   3.827   1.262 -0.2631 -0.3024  0.0033
14500TIP3    H164915   3.191   3.839   1.357 -1.4240  0.7092 -0.0656
14500TIP3    H264916   3.195   3.732   1.250  0.7211 -0.3816  1.0421
14501TIP3   OH264917   5.793   1.362  13.546 -0.6889  0.7072 -0.0782
14501TIP3    H164918   5.818   1.301  13.476  0.8967  1.1540  0.0536
14501TIP3    H264919   5.711   1.327  13.580  0.6827 -2.0368  0.7260
14502TIP3   OH264920   6.170   2.307  14.100  0.3860  0.2861  0.0169
14502TIP3    H164921   6.255   2.351  14.098  0.0016  1.0964 -2.5678
14502TIP3    H264922   6.109   2.375  14.129  0.5142 -0.1194  1.2680
14503TIP3   OH264923   5.916   0.809  12.004 -0.0277  0.4311 -0.1770
14503TIP3    H164924   5.917   0.894  11.961  1.7628  1.2897  1.4243
14503TIP3    H264925   5.889   0.827  12.094  2.4100 -0.2669  0.7968
14504TIP3   OH264926   4.838   6.357  10.705  0.0954  0.0495  0.0587
14504TIP3    H164927   4.854   6.325  10.794 -0.5555 -4.0312 -1.0812
14504TIP3    H264928   4.889   6.438  10.699  1.0358 -0.0916  3.7513
14505TIP3   OH264929   1.417   2.602  16.986 -0.3934  0.0404 -0.8646
14505TIP3    H164930   1.358   2.677  16.997  0.2820  0.4638 -0.0847
14505TIP3    H264931   1.463   2.620  16.904  1.1444  1.4546  0.2610
14506TIP3   OH264932   2.862   1.998   3.742 -0.7422  0.0633  0.1613
14506TIP3    H164933   2.913   2.013   3.662 -0.8320 -0.1300  0.0660
14506TIP3    H264934   2.781   1.958   3.711 -1.7109  1.9142  0.1201
14507TIP3   OH264935   0.965   0.556  15.648  0.2712 -0.3232 -0.1092
14507TIP3    H164936   1.059   0.540  15.656  0.7710  1.1200 -2.3363
14507TIP3    H264937   0.943   0.528  15.559 -0.3813  3.5610 -1.3401
14508TIP3   OH264938   5.536   1.924   3.818 -0.2352  0.1537 -0.8478
14508TIP3    H164939   5.630   1.909   3.824  0.2512  3.1556  1.2677
14508TIP3    H264940   5.496   1.848   3.861  1.0820 -1.6549 -2.6536
14509TIP3   OH264941   5.050   5.731   0.320 -0.5734  0.6624 -0.6459
14509TIP3    H164942   4.979   5.753   0.380 -0.1755  0.7480 -0.2055
14509TIP3    H264943   5.036   5.788   0.244 -1.7045 -0.2037 -1.1120
14510TIP3   OH264944   6.559   4.266   3.724  0.0851 -0.0669 -0.1606
14510TIP3    H164945   6.552   4.178   3.687 -1.7168 -0.3091  0.6618
14510TIP3    H264946   6.549   4.253   3.818  0.9468  0.9216  0.0887
14511TIP3   OH264947   3.290   1.970  11.137 -0.6184 -0.3884  0.1397
14511TIP3    H164948   3.300   1.944  11.229 -0.6868  0.8568  0.5184
14511TIP3    H264949   3.202   1.942  11.113 -0.3138 -1.4400  0.1954
14512TIP3   OH264950   1.962   2.541   4.495  0.7148  0.7725 -0.0196
14512TIP3    H164951   1.958   2.587   4.411 -0.3393  1.3337  0.3223
14512TIP3    H264952   1.884   2.570   4.543  1.4075  0.6278  1.2434
14513TIP3   OH264953   1.349   0.351  12.541 -0.9960 -0.2061 -0.2258
14513TIP3    H164954   1.273   0.332  12.597  0.1936 -3.7268  0.4706
14513TIP3    H264955   1.381   0.265  12.515  1.8662  1.1974 -1.7768
14514TIP3   OH264956   0.590   4.022  17.196 -0.1827  0.2002  0.4190
14514TIP3    H164957   0.563   3.931  17.205  1.1312 -0.4520 -1.4656
14514TIP3    H264958   0.546   4.053  17.116 -2.0327  1.8407  1.9775
14515TIP3   OH264959   6.680   0.019   4.927  0.1670 -0.0098  0.0521
14515TIP3    H164960   6.773   0.033   4.908  0.3997 -0.7740  0.6062
14515TIP3    H264961   6.675  -0.070   4.961 -0.6375  0.3417  0.9093
14516TIP3   OH264962   0.014   4.822  17.024  0.5285 -0.0351 -0.1861
14516TIP3    H164963  -0.057   4.775  16.982  3.2653 -1.1696 -4.1665
14516TIP3    H264964   0.041   4.888  16.960  3.2415  0.0901  0.9248
14517TIP3   OH264965   1.167   0.373  13.661  0.3000 -0.9335 -0.1721
14517TIP3    H164966   1.112   0.440  13.621  0.7002  1.8895  3.4815
14517TIP3    H264967   1.257   0.403  13.645  0.4929 -0.6732  1.2309
14518TIP3   OH264968   1.772   2.309  16.907 -0.5838 -0.8994 -0.2406
14518TIP3    H164969   1.829   2.280  16.978  0.0384 -0.7146 -0.6516
14518TIP3    H264970   1.832   2.326  16.834 -1.0585  0.2986 -0.3643
14519TIP3   OH264971   2.433   2.151   4.932 -0.4105  0.4787  0.1382
14519TIP3    H164972   2.413   2.068   4.890 -0.0316  0.3145  0.2846
14519TIP3    H264973   2.347   2.185   4.959 -0.6530  0.5503 -0.6841
14520TIP3   OH264974   4.324   1.144   1.004  0.0175 -0.1777  0.3324
14520TIP3    H164975   4.301   1.236   0.993  2.8702  0.2661 -5.2594
14520TIP3    H264976   4.399   1.145   1.063  1.0343  1.3999 -0.8938
14521TIP3   OH264977   5.932   2.793  15.473 -0.5551 -0.8905 -0.3372
14521TIP3    H164978   5.873   2.756  15.539  0.4796 -1.6864  0.1715
14521TIP3    H264979   5.990   2.850  15.523  0.4012 -1.6993 -0.4877
14522TIP3   OH264980   5.897   5.385  11.048 -0.0567 -0.1460 -0.3350
14522TIP3    H164981   5.900   5.328  10.971  0.2546  0.2734 -0.6392
14522TIP3    H264982   5.871   5.470  11.013  0.0537  0.0380  0.0315
14523TIP3   OH264983   5.948   0.358   1.258 -0.0907  0.6807 -0.5124
14523TIP3    H164984   6.001   0.328   1.183 -0.5036 -0.4930 -0.3513
14523TIP3    H264985   5.955   0.453   1.255  2.3929  0.5773 -0.2575
14524TIP3   OH264986   5.325   6.521   2.436  0.4323  0.0565  0.1609
14524TIP3    H164987   5.421   6.524   2.427  0.3373 -0.9207 -1.6750
14524TIP3    H264988   5.300   6.437   2.397 -1.3218  1.0802 -1.0466
14525TIP3   OH264989   0.291   6.063  15.333  0.1440  0.1746  0.1574
14525TIP3    H164990   0.287   6.157  15.314 -1.1904  0.2044  0.5252
14525TIP3    H264991   0.324   6.058  15.422 -0.2691  0.3208  0.3204
14526TIP3   OH264992   1.647   1.340  11.301  0.0171 -0.1313 -0.2387
14526TIP3    H164993   1.599   1.388  11.234  1.4982 -0.2974 -1.4657
14526TIP3    H264994   1.667   1.256  11.261  2.5218  0.4296 -0.3449
14527TIP3   OH264995   5.671   2.121  14.784  0.5989  0.5094  0.0111
14527TIP3    H164996   5.633   2.184  14.723  1.5528  1.7556  0.6570
14527TIP3    H264997   5.761   2.151  14.796  0.2539  0.7393  2.5739
14528TIP3   OH264998   5.178   0.731   2.552  0.1305  0.3138  0.5832
14528TIP3    H164999   5.272   0.718   2.558  0.7156  1.7995 -2.7983
14528TIP3    H265000   5.164   0.821   2.583  0.0046  0.4440  0.1599
14529TIP3   OH265001   1.545   2.252  14.528  1.0120  0.1368  0.2697
14529TIP3    H165002   1.598   2.289  14.599 -0.0764  0.5459  0.8951
14529TIP3    H265003   1.555   2.313  14.456  2.0290 -0.2165  0.0935
14530TIP3   OH265004   4.143   0.828   4.694  0.0469 -0.1532  0.1407
14530TIP3    H165005   4.162   0.833   4.788  0.6098  1.3188 -0.0266
14530TIP3    H265006   4.062   0.878   4.683  0.3480  0.2598 -0.2395
14531TIP3   OH265007   2.766   3.472   0.377  0.3048  0.3921  0.3687
14531TIP3    H165008   2.706   3.444   0.446  2.0377 -0.1378  1.7055
14531TIP3    H265009   2.746   3.565   0.364 -0.5289  0.3193  1.0619
14532TIP3   OH265010   2.724   3.389   1.370  0.6010 -0.1925 -0.5210
14532TIP3    H165011   2.684   3.342   1.443  1.2826  0.1024  0.0641
14532TIP3    H265012   2.660   3.385   1.299 -0.1028 -0.4230  0.1234
14533TIP3   OH265013   3.007   6.022  14.304 -0.3717 -0.2144 -0.3033
14533TIP3    H165014   2.954   6.071  14.241  0.6071  0.6190 -0.5010
14533TIP3    H265015   2.987   5.930  14.286  0.7481 -0.0783 -2.6584
14534TIP3   OH265016   6.616   6.191  10.723  0.2639 -0.1315 -0.1666
14534TIP3    H165017   6.647   6.122  10.782 -0.5704  0.2890  0.7978
14534TIP3    H265018   6.536   6.155  10.685 -1.3810  1.0160  1.9370
14535TIP3   OH265019   3.479   4.578  13.456  0.0439 -0.1950  0.3408
14535TIP3    H165020   3.494   4.550  13.366  1.1646  1.2197  0.0552
14535TIP3    H265021   3.503   4.671  13.457 -0.3134 -0.0821  2.0133
14536TIP3   OH265022   0.971   2.285  14.542  0.7967  0.0124  0.2260
14536TIP3    H165023   1.016   2.314  14.621  3.3706 -1.0427 -0.7513
14536TIP3    H265024   0.999   2.194  14.531 -1.3620 -0.6102 -0.6854
14537TIP3   OH265025   0.719   4.722  14.921  0.2873 -0.5962 -0.4132
14537TIP3    H165026   0.682   4.708  14.833  1.8436 -0.3279 -1.1376
14537TIP3    H265027   0.721   4.817  14.931 -0.3110 -0.6323  0.1227
14538TIP3   OH265028   0.498   0.642   1.808 -0.2453 -0.2143  0.6866
14538TIP3    H165029   0.593   0.631   1.801 -0.1671  0.7800  0.0113
14538TIP3    H265030   0.474   0.692   1.731 -1.2558 -0.0019  1.1223
14539TIP3   OH265031   3.766   4.752  15.213 -0.2750  0.0187 -0.0478
14539TIP3    H165032   3.817   4.830  15.233 -0.8059  0.1305  0.8987
14539TIP3    H265033   3.832   4.683  15.201  0.1205  0.2617  0.7098
14540TIP3   OH265034   0.456   0.439  13.066 -0.2351  0.5651 -0.1966
14540TIP3    H165035   0.462   0.531  13.039 -2.2901  0.9088  0.3931
14540TIP3    H265036   0.539   0.400  13.037  0.2694  2.3709 -1.3065
14541TIP3   OH265037   4.283   6.038  14.420 -0.4363  0.0019  0.2454
14541TIP3    H165038   4.290   6.118  14.473  1.3358  0.2777 -0.3428
14541TIP3    H265039   4.301   5.967  14.482  0.8506  0.2687  0.1922
14542TIP3   OH265040   5.541   1.595  17.155  0.0291  0.3562  0.1952
14542TIP3    H165041   5.627   1.638  17.152  0.1228  0.2717  1.3213
14542TIP3    H265042   5.562   1.502  17.168 -0.2188  0.1896 -0.5416
14543TIP3   OH265043   4.949   5.446  13.376 -0.0498 -0.0946 -0.3265
14543TIP3    H165044   4.901   5.440  13.293 -2.4530  0.4510  0.9315
14543TIP3    H265045   5.015   5.378  13.370 -0.0703  0.0186 -2.7395
14544TIP3   OH265046   4.170   6.644  16.317  0.1405 -0.8195  0.2061
14544TIP3    H165047   4.204   6.583  16.382  2.5428  0.8217  0.6018
14544TIP3    H265048   4.241   6.654  16.254  0.0363  1.8370  0.3937
14545TIP3   OH265049   6.334   2.663   0.151  0.2546  0.1224  0.4132
14545TIP3    H165050   6.349   2.588   0.208 -1.2974 -0.5043  0.0463
14545TIP3    H265051   6.314   2.625   0.065 -0.9465  0.9236  0.3147
14546TIP3   OH265052   5.872   5.542  14.383  0.6529 -0.2365 -0.2489
14546TIP3    H165053   5.891   5.510  14.295 -1.2484 -0.1465 -0.7330
14546TIP3    H265054   5.931   5.493  14.440  1.0614 -1.1842 -1.4500
14547TIP3   OH265055   1.170   3.348   1.476 -0.1845 -0.0724  0.1776
14547TIP3    H165056   1.190   3.326   1.385 -0.2101 -0.2633  0.2185
14547TIP3    H265057   1.089   3.398   1.471  0.3143  0.7410  0.0063
14548TIP3   OH265058   0.608   4.676   1.511 -0.1296  0.0236  0.5174
14548TIP3    H165059   0.647   4.646   1.593  0.0827 -0.1591  0.3536
14548TIP3    H265060   0.683   4.707   1.459 -0.2931  0.3751  0.4952
14549TIP3   OH265061   3.269   3.150  15.080  0.2605  0.8591  0.0240
14549TIP3    H165062   3.344   3.114  15.126  1.1119  1.1364 -1.1013
14549TIP3    H265063   3.206   3.078  15.075  0.6974  0.4464  0.4353
14550TIP3   OH265064   1.935   3.615  16.196 -0.0358  0.0435 -0.0972
14550TIP3    H165065   1.869   3.667  16.242  1.8174  0.5835  2.0882
14550TIP3    H265066   1.901   3.525  16.200 -1.6019  0.5645 -0.8703
14551TIP3   OH265067   3.962   1.428  14.954 -0.1649 -0.3681 -0.1001
14551TIP3    H165068   3.868   1.444  14.940 -0.0913 -0.4614 -0.7012
14551TIP3    H265069   3.974   1.441  15.048 -0.6197  0.4821 -0.1546
14552TIP3   OH265070   4.238   6.082   1.616  0.2910 -0.0388 -0.3783
14552TIP3    H165071   4.277   6.051   1.698 -1.3648  0.3093  0.5762
14552TIP3    H265072   4.304   6.061   1.549  1.5101 -0.6853  0.9711
14553TIP3   OH265073   1.463   0.986   3.700 -0.0970  0.1732  0.0654
14553TIP3    H165074   1.403   0.942   3.760 -1.2065  0.5418 -0.7343
14553TIP3    H265075   1.537   0.926   3.692 -2.4875 -2.7982 -2.7415
14554TIP3   OH265076   0.598   1.138   5.139  0.1677 -0.3997 -0.3721
14554TIP3    H165077   0.693   1.134   5.144  0.4749  2.2608 -2.1699
14554TIP3    H265078   0.579   1.146   5.045 -1.9529 -2.0784 -0.1803
14555TIP3   OH265079   1.004   3.550   5.463  0.0041 -0.3479  0.7878
14555TIP3    H165080   1.094   3.531   5.490  0.6415  0.5988 -0.5246
14555TIP3    H265081   0.991   3.642   5.487 -1.0510 -0.7695  1.9938
14556TIP3   OH265082   6.070   3.203  17.238  0.2412  0.1906  0.0509
14556TIP3    H165083   5.988   3.222  17.193  0.4936  2.1289  0.3094
14556TIP3    H265084   6.077   3.272  17.304  1.9200 -0.1369  0.2490
14557TIP3   OH265085   2.285   5.509   5.273  0.2449  0.6995 -0.0132
14557TIP3    H165086   2.254   5.452   5.203 -0.4790  0.8306  0.1899
14557TIP3    H265087   2.261   5.597   5.243 -2.1605  0.6137  1.3834
14558TIP3   OH265088   2.117   5.640  12.691 -0.0180  0.0845  0.9083
14558TIP3    H165089   2.199   5.676  12.725  0.4532  0.1445 -0.2477
14558TIP3    H265090   2.049   5.674  12.749  0.6156  1.3527  0.9220
14559TIP3   OH265091   6.244   0.267   0.803  0.1488  0.1022  0.1481
14559TIP3    H165092   6.245   0.172   0.797 -0.0693 -0.1937  3.2757
14559TIP3    H265093   6.324   0.289   0.851  0.3421  1.5598 -0.7601
14560TIP3   OH265094   6.435   5.920   5.424  0.0899  0.1035 -0.4892
14560TIP3    H165095   6.466   6.010   5.438 -1.8836  0.8560 -0.6664
14560TIP3    H265096   6.424   5.913   5.329  2.3502 -1.1305 -0.7398
14561TIP3   OH265097   0.319   5.312   0.404  0.0389 -0.8990  0.0876
14561TIP3    H165098   0.245   5.373   0.407  0.3997 -0.4786  0.4789
14561TIP3    H265099   0.286   5.232   0.445 -0.1060 -0.6066  0.5494
14562TIP3   OH265100   0.340   2.517   5.538  0.3001 -0.2266 -0.0289
14562TIP3    H165101   0.424   2.562   5.537  1.5166 -2.3587  0.3259
14562TIP3    H265102   0.311   2.521   5.629  0.0332  0.4546 -0.1401
14563TIP3   OH265103   2.032   4.659  13.614  0.3535 -0.1676 -0.7243
14563TIP3    H165104   2.021   4.730  13.551  2.0397  5.4329  4.3401
14563TIP3    H265105   2.126   4.641  13.612  0.2166 -0.8948 -0.6768
14564TIP3   OH265106   6.475   2.164   5.126  0.7453  0.0503  0.6025
14564TIP3    H165107   6.566   2.180   5.102  0.5521  1.1424  0.5392
14564TIP3    H265108   6.434   2.251   5.126 -0.1293 -0.3399  1.3212
14565TIP3   OH265109   1.008   5.718  17.230 -0.8437 -0.1458  0.0645
14565TIP3    H165110   0.938   5.705  17.165 -0.7454 -0.0435 -0.0622
14565TIP3    H265111   1.065   5.785  17.191 -1.3157  0.6337  0.6896
14566TIP3   OH265112   4.338   4.594  11.411  0.0766  0.0943 -0.0486
14566TIP3    H165113   4.284   4.623  11.484  0.6014  0.6397  0.1380
14566TIP3    H265114   4.372   4.509  11.439  0.7362  0.5508  0.6136
14567TIP3   OH265115   5.272   4.698   4.682 -0.4600 -0.2894 -0.0284
14567TIP3    H165116   5.321   4.767   4.726 -1.7073 -0.3939  1.6367
14567TIP3    H265117   5.190   4.740   4.655 -0.0151 -0.4165 -1.6447
14568TIP3   OH265118   3.654   2.470   2.402  0.6526  0.3992  0.1192
14568TIP3    H165119   3.626   2.383   2.429 -0.1285  0.1639 -1.3645
14568TIP3    H265120   3.622   2.528   2.471 -2.5532 -0.0040 -0.8965
14569TIP3   OH265121   0.053   4.630  11.118  0.2299 -0.0879 -0.1078
14569TIP3    H165122  -0.040   4.651  11.111  0.1033 -0.4765  0.3776
14569TIP3    H265123   0.082   4.680  11.195 -0.1122 -1.7839  1.1719
14570TIP3   OH265124   5.260   0.291  15.588 -0.0104 -0.0305  0.1780
14570TIP3    H165125   5.315   0.221  15.553  0.3057 -0.4252  1.4010
14570TIP3    H265126   5.180   0.287  15.536  0.9203  0.2523 -1.3163
14571TIP3   OH265127   3.560   4.385   5.441  0.3412 -0.3361  0.4626
14571TIP3    H165128   3.466   4.404   5.435  0.6033  0.5358 -1.9382
14571TIP3    H265129   3.565   4.303   5.489 -1.5271  0.3638  1.9953
14572TIP3   OH265130   5.380   3.834   4.277  0.3400  0.4630 -0.4550
14572TIP3    H165131   5.397   3.856   4.185  0.1543 -1.6597 -1.0521
14572TIP3    H265132   5.361   3.740   4.276 -1.4897  0.7283  1.5199
14573TIP3   OH265133   4.380   2.824   4.096  0.1034 -0.0378  0.5943
14573TIP3    H165134   4.445   2.773   4.144  0.6046 -1.4587 -1.5108
14573TIP3    H265135   4.363   2.900   4.153  1.5802 -0.9900  2.4055
14574TIP3   OH265136   1.728   1.533  15.465  0.6731  0.4844  0.4162
14574TIP3    H165137   1.734   1.497  15.377 -1.0475 -0.1931  0.5375
14574TIP3    H265138   1.767   1.466  15.521 -0.1047 -0.0027  0.3752
14575TIP3   OH265139   4.368   6.614   1.256  0.7532  0.0311  0.2347
14575TIP3    H165140   4.407   6.555   1.320 -0.1383  0.0153  0.7770
14575TIP3    H265141   4.331   6.556   1.189  0.4935 -0.0081  0.4089
14576TIP3   OH265142   0.006   4.424  13.456 -0.3200  0.2470  0.7503
14576TIP3    H165143  -0.016   4.332  13.470  1.1721 -0.1318  0.7775
14576TIP3    H265144  -0.072   4.462  13.416 -1.4151 -0.7211  1.8987
14577TIP3   OH265145   0.644   6.561   4.053 -0.4599 -0.1207  0.1820
14577TIP3    H165146   0.619   6.644   4.093 -0.6842 -0.6785  1.2363
14577TIP3    H265147   0.692   6.586   3.975 -0.4434  1.0046  0.5321
14578TIP3   OH265148   0.792   0.185  15.171  0.7291  0.0873  0.6169
14578TIP3    H165149   0.793   0.128  15.248 -0.5282 -1.0328 -0.1445
14578TIP3    H265150   0.873   0.236  15.178  1.0222 -0.5391  2.2588
14579TIP3   OH265151   1.298   2.423   3.590 -0.0010  0.3302 -0.1579
14579TIP3    H165152   1.258   2.481   3.524  1.7828  1.5619 -0.2172
14579TIP3    H265153   1.385   2.404   3.556  0.5016 -0.0125  1.2601
14580TIP3   OH265154   2.140   0.615   4.913  0.0075 -0.8129 -0.7471
14580TIP3    H165155   2.097   0.679   4.970  1.1627 -0.9645  0.3496
14580TIP3    H265156   2.181   0.667   4.844 -1.0551 -0.5930 -1.2396
14581TIP3   OH265157   3.329   5.939  15.539 -0.1775  0.4188  0.1203
14581TIP3    H165158   3.272   5.865  15.560  1.5545 -0.4836  2.0733
14581TIP3    H265159   3.417   5.908  15.561  1.2119  1.5963 -3.0825
14582TIP3   OH265160   0.900   2.946  10.508 -0.4190  0.4016 -0.0310
14582TIP3    H165161   0.965   2.899  10.455  0.0862  1.1724 -0.1159
14582TIP3    H265162   0.936   3.034  10.517 -0.7028  0.4065  1.2467
14583TIP3   OH265163   0.298   4.890  16.737 -0.5157 -0.1883 -0.2187
14583TIP3    H165164   0.301   4.875  16.832 -0.6564 -0.0635 -0.1947
14583TIP3    H265165   0.207   4.912  16.719 -0.3721  0.3463 -0.2985
14584TIP3   OH265166   1.695   2.577  16.693  0.1760 -0.2781 -0.7427
14584TIP3    H165167   1.722   2.606  16.780 -3.0752  0.5414  0.1301
14584TIP3    H265168   1.774   2.582  16.640  1.7033  1.7557  1.5425
14585TIP3   OH265169   3.356   2.682  16.423  0.0345 -0.0194  0.3419
14585TIP3    H165170   3.374   2.590  16.405 -0.7490 -0.3372  1.0944
14585TIP3    H265171   3.276   2.681  16.475  0.7263  0.9935  1.4895
14586TIP3   OH265172   4.060   4.149   5.007 -0.7312 -1.0213 -0.1247
14586TIP3    H165173   4.113   4.222   5.038 -0.8379 -0.6156 -0.8729
14586TIP3    H265174   4.124   4.079   4.990 -0.5088 -0.7497 -0.4127
14587TIP3   OH265175   3.822   2.935  14.763  0.1134  0.6418  0.1275
14587TIP3    H165176   3.847   2.975  14.680  3.3808 -0.2548  0.5204
14587TIP3    H265177   3.741   2.888  14.744  1.0599 -0.0345 -2.7439
14588TIP3   OH265178   3.032   3.316  13.455 -0.1441  0.1797  0.3660
14588TIP3    H165179   3.077   3.338  13.373 -2.0937  0.7078 -0.6284
14588TIP3    H265180   2.991   3.231  13.437  0.3292 -0.2330  1.2053
14589TIP3   OH265181   1.486   0.577  14.511  0.6633  0.1957 -0.1391
14589TIP3    H165182   1.497   0.515  14.438  0.2347  0.6449 -0.5904
14589TIP3    H265183   1.536   0.538  14.582 -0.5722 -1.3156 -0.0285
14590TIP3   OH265184   4.645   3.999  12.905  0.2814  0.0439  0.2396
14590TIP3    H165185   4.727   4.038  12.877  0.1265 -0.1306 -0.4627
14590TIP3    H265186   4.579   4.038  12.848 -0.4292  1.7223  2.0802
14591TIP3   OH265187   6.728   0.777  14.161  0.1360  0.1785 -0.1690
14591TIP3    H165188   6.678   0.841  14.109  0.0512  0.8169  0.6658
14591TIP3    H265189   6.819   0.801  14.147  0.1274  0.1640 -0.2513
14592TIP3   OH265190   0.319   3.674  10.962  0.1840  0.0863  0.5485
14592TIP3    H165191   0.388   3.741  10.963  0.7824 -0.5067  2.0743
14592TIP3    H265192   0.335   3.625  10.881  1.7437 -0.2136  1.0067
14593TIP3   OH265193   0.313   3.091  17.066  0.2566  0.0947  0.4916
14593TIP3    H165194   0.334   3.001  17.091 -1.1649  0.0844  1.7825
14593TIP3    H265195   0.298   3.136  17.149 -1.5951  0.8459 -0.1903
14594TIP3   OH265196   5.276   0.034   3.244  0.0955  0.1629  0.0041
14594TIP3    H165197   5.268  -0.052   3.285  1.3238 -0.3202 -0.7214
14594TIP3    H265198   5.360   0.031   3.198  1.2025  2.5324  1.7258
14595TIP3   OH265199   4.010   5.251  15.470  0.5596  0.5265 -0.1800
14595TIP3    H165200   4.066   5.220  15.541 -0.3107 -1.7963 -0.4208
14595TIP3    H265201   3.935   5.292  15.514  0.1180 -0.7232  0.2800
14596TIP3   OH265202   2.103   0.634   2.040  0.3586 -0.6151  0.8624
14596TIP3    H165203   2.080   0.684   1.962  2.5712  1.0437  1.1716
14596TIP3    H265204   2.019   0.606   2.076 -0.7335 -1.1329 -1.8681
14597TIP3   OH265205   2.927   0.355  12.862 -0.2634 -0.1486  0.4414
14597TIP3    H165206   2.953   0.447  12.860  0.8079 -0.4350 -1.1808
14597TIP3    H265207   2.852   0.352  12.921 -0.8894  1.9151 -0.1632
14598TIP3   OH265208   3.748   3.059   4.779 -0.5111  0.1858  0.6574
14598TIP3    H165209   3.766   2.965   4.780 -0.9419  0.0991  0.5310
14598TIP3    H265210   3.731   3.080   4.687  0.6513  0.6036  0.5164
14599TIP3   OH265211   2.480   6.385  15.924  0.1333 -0.2494 -0.4891
14599TIP3    H165212   2.527   6.322  15.978 -0.0361  0.4658  0.5098
14599TIP3    H265213   2.526   6.468  15.938 -0.7061  0.2100 -0.4164
14600TIP3   OH265214   0.518   2.422  11.763 -0.0031 -0.3509  0.1016
14600TIP3    H165215   0.533   2.498  11.820  2.1100 -0.9482  0.4421
14600TIP3    H265216   0.603   2.378  11.759 -0.8719 -2.0481 -1.0587
14601TIP3   OH265217   1.357   1.975  15.382  0.1061 -0.3236 -0.7771
14601TIP3    H165218   1.452   1.978  15.371  0.1564  0.5571 -0.1562
14601TIP3    H265219   1.344   1.910  15.451  0.3226  0.2206 -0.2181
14602TIP3   OH265220   1.957   1.800  13.865 -0.0558  0.1675  0.2730
14602TIP3    H165221   1.929   1.721  13.911 -1.1791  0.7458  0.6308
14602TIP3    H265222   1.955   1.776  13.772  0.6026 -0.5191  0.4360
14603TIP3   OH265223   3.663   5.642   3.989  0.6895  0.2608  0.1459
14603TIP3    H165224   3.630   5.694   3.916  0.5220  0.9550  0.7120
14603TIP3    H265225   3.630   5.553   3.972  1.3006  0.2356 -1.0226
14604TIP3   OH265226   5.824   5.694  12.716  0.7211 -0.1613 -0.0831
14604TIP3    H165227   5.777   5.750  12.777  0.9524  0.2959 -0.3226
14604TIP3    H265228   5.912   5.686  12.753  0.4965 -0.9465  0.3194
14605TIP3   OH265229   4.932   1.837  12.199  0.0562  0.1210  0.0111
14605TIP3    H165230   4.985   1.855  12.121 -0.5506 -1.4885 -0.8242
14605TIP3    H265231   4.940   1.742  12.212 -0.8858  0.1756  1.1592
14606TIP3   OH265232   4.353   4.614   4.789  0.0096  0.2986 -0.3460
14606TIP3    H165233   4.357   4.676   4.716  0.2838 -0.4871 -1.0100
14606TIP3    H265234   4.445   4.591   4.806 -0.1419 -0.6445 -0.7396
14607TIP3   OH265235   6.015   0.446   0.835  0.2851 -0.5815 -0.1851
14607TIP3    H165236   5.929   0.487   0.824 -1.2609 -3.1632  1.1094
14607TIP3    H265237   6.025   0.390   0.758  0.4838 -0.7910 -0.0087
14608TIP3   OH265238   1.235   6.035  16.265  0.0782 -0.0795  0.0560
14608TIP3    H165239   1.278   5.957  16.301 -0.1843  1.3138  3.8564
14608TIP3    H265240   1.300   6.105  16.276 -0.6969  0.7644 -0.6388
14609TIP3   OH265241   3.450   1.135  16.118 -0.4040 -0.5300  0.4399
14609TIP3    H165242   3.444   1.206  16.182 -1.8589 -0.8966  0.7491
14609TIP3    H265243   3.419   1.174  16.037  0.1547 -0.4366  0.2674
14610TIP3   OH265244   0.858   1.096   5.483 -0.1823  0.3009  0.2917
14610TIP3    H165245   0.835   1.175   5.434 -0.9982 -0.2468 -0.2331
14610TIP3    H265246   0.806   1.101   5.563  0.2283  0.5948  0.5407
14611TIP3   OH265247   0.433   0.887   3.382  0.4049 -0.6908 -0.0382
14611TIP3    H165248   0.469   0.830   3.314  0.2989 -2.8670  1.6303
14611TIP3    H265249   0.350   0.919   3.345  0.7235 -1.1539 -1.2129
14612TIP3   OH265250   1.073   2.764  11.218 -0.2982  0.6345 -0.0960
14612TIP3    H165251   1.140   2.825  11.250  2.0113 -1.8627  0.1677
14612TIP3    H265252   1.044   2.718  11.297 -1.4957  0.9003 -0.3770
14613TIP3   OH265253   3.811   0.729   3.554  0.5725  0.2030 -0.2623
14613TIP3    H165254   3.821   0.824   3.544 -2.1419  0.7028  0.8892
14613TIP3    H265255   3.797   0.716   3.648  1.9727 -1.5115 -0.2370
14614TIP3   OH265256   0.590   2.684  15.456 -0.2150  0.5588 -0.1945
14614TIP3    H165257   0.513   2.720  15.413 -0.2855  2.3182  1.2743
14614TIP3    H265258   0.566   2.678  15.549  1.3940  1.2598  0.3221
14615TIP3   OH265259   2.532   4.552  11.671  0.4930  0.2038 -0.2734
14615TIP3    H165260   2.569   4.466  11.654  1.0088  0.3144  0.2460
14615TIP3    H265261   2.478   4.540  11.749 -0.6718  0.0208 -1.0918
14616TIP3   OH265262   0.129   0.814   1.991  0.5961 -0.1806 -0.2158
14616TIP3    H165263   0.222   0.792   1.989  0.8698  0.4968  2.1426
14616TIP3    H265264   0.110   0.829   2.084 -1.7357  0.2876 -0.7096
14617TIP3   OH265265   0.620   5.788  12.566 -0.4499  0.0004 -0.1124
14617TIP3    H165266   0.591   5.701  12.594  1.1875 -0.7083 -0.5033
14617TIP3    H265267   0.630   5.781  12.471  2.3051 -0.2884  0.1024
14618TIP3   OH265268   4.235   0.410   0.054 -0.1733 -0.1370 -0.0583
14618TIP3    H165269   4.233   0.471   0.127  0.3503  0.5873 -0.6401
14618TIP3    H265270   4.305   0.349   0.076  1.2395  1.1607 -0.7784
14619TIP3   OH265271   2.035   3.569   3.250 -0.2796 -0.5308  0.0163
14619TIP3    H165272   2.093   3.637   3.215  2.0070 -1.8454  1.0353
14619TIP3    H265273   1.989   3.612   3.323 -0.8295  0.5934 -0.9432
14620TIP3   OH265274   0.944   5.644  14.014 -0.6780 -0.0106  0.3993
14620TIP3    H165275   0.948   5.625  13.921 -0.3736  0.6103  0.2775
14620TIP3    H265276   0.994   5.574  14.056 -1.7718 -0.9328  0.2067
14621TIP3   OH265277   6.781   6.027  12.646 -0.0683 -0.5272 -0.6509
14621TIP3    H165278   6.837   6.103  12.631  1.4742 -1.0463  1.8406
14621TIP3    H265279   6.831   5.953  12.612 -0.1992 -0.7668 -0.3220
14622TIP3   OH265280   6.390   0.136  15.155  0.4320  0.1777 -0.1425
14622TIP3    H165281   6.379   0.225  15.123  0.3239 -0.1138 -0.9476
14622TIP3    H265282   6.325   0.085  15.107 -0.5853 -0.0806  1.4570
14623TIP3   OH265283   4.850   3.264   0.973 -0.3407 -0.4825  0.1513
14623TIP3    H165284   4.912   3.266   1.046 -1.7755 -0.0047  1.4363
14623TIP3    H265285   4.858   3.351   0.932 -1.5687  0.3994  1.6359
14624TIP3   OH265286   4.613   1.394  15.001  0.0689 -0.1572  0.3514
14624TIP3    H165287   4.602   1.363  15.091  1.6447 -0.8716  0.3205
14624TIP3    H265288   4.626   1.488  15.009 -1.9034  0.1212  0.6748
14625TIP3   OH265289   5.530   3.845  14.314 -0.4487  0.3816 -0.2980
14625TIP3    H165290   5.610   3.857  14.263 -0.5499  0.7017 -0.3830
14625TIP3    H265291   5.476   3.786  14.260  0.0268 -0.4316  0.0946
14626TIP3   OH265292   4.069   3.145   3.645 -0.5961  0.0649 -0.6229
14626TIP3    H165293   4.165   3.146   3.639 -0.6017  2.1931 -0.9314
14626TIP3    H265294   4.041   3.098   3.566  0.1824 -2.3079  0.4189
14627TIP3   OH265295   2.111   6.272  14.787  0.6672 -0.3408  0.1847
14627TIP3    H165296   2.052   6.275  14.862  0.1358  0.8795 -0.2656
14627TIP3    H265297   2.152   6.358  14.785 -0.5907  0.2925 -1.8973
14628TIP3   OH265298   0.769   6.046   5.833 -0.2373  0.4656 -0.1422
14628TIP3    H165299   0.787   6.049   5.927 -0.2091  1.8246 -0.1631
14628TIP3    H265300   0.698   5.983   5.824  0.6782 -0.7159  0.6211
14629TIP3   OH265301   2.001   3.772   5.266  0.2119  0.2001 -0.5156
14629TIP3    H165302   2.015   3.734   5.179 -0.6527 -0.3581 -0.4289
14629TIP3    H265303   1.920   3.731   5.296  2.5778 -2.9301  2.3159
14630TIP3   OH265304   0.386   4.651  16.602 -0.7045 -0.0411 -0.3847
14630TIP3    H165305   0.353   4.726  16.650  0.2344  0.3997 -0.4030
14630TIP3    H265306   0.421   4.592  16.669  0.4193  0.4822 -0.4807
14631TIP3   OH265307   0.670   2.827   2.537 -0.3773 -0.1595  0.0751
14631TIP3    H165308   0.711   2.848   2.620 -0.2993  0.8869 -0.2237
14631TIP3    H265309   0.683   2.732   2.528 -0.2811 -0.2682  1.1816
14632TIP3   OH265310   0.089   4.018   2.188  0.6177  0.6061 -0.0648
14632TIP3    H165311   0.002   4.029   2.149  0.1038 -1.2939  0.4546
14632TIP3    H265312   0.080   3.944   2.248  2.3681  0.9755  0.7285
14633TIP3   OH265313   2.798   3.106   3.468  0.3008 -0.0774  0.1734
14633TIP3    H165314   2.745   3.133   3.543 -0.1755 -0.5426  0.0089
14633TIP3    H265315   2.827   3.188   3.428  0.6385  0.1745  0.9183
14634TIP3   OH265316   0.026   1.473  13.978 -0.1738 -0.1173 -0.1133
14634TIP3    H165317  -0.026   1.548  14.006  0.2164  0.8717 -1.8801
14634TIP3    H265318  -0.023   1.436  13.905  0.5623 -0.4531 -0.4439
14635TIP3   OH265319   4.994   2.823  10.687 -0.4909  0.2742 -0.0090
14635TIP3    H165320   4.979   2.822  10.781 -0.9650 -2.1242 -0.0609
14635TIP3    H265321   5.087   2.842  10.678 -0.4208  0.4318  0.9342
14636TIP3   OH265322   0.111   2.504   4.330  0.3811  0.9321  0.5316
14636TIP3    H165323   0.045   2.562   4.291 -0.2370 -0.4936 -0.6552
14636TIP3    H265324   0.080   2.491   4.419 -1.0385  0.2204 -0.0281
14637TIP3   OH265325   6.522   2.899   4.525 -0.5339  0.3294  0.0395
14637TIP3    H165326   6.449   2.858   4.479 -1.5495  0.1950  1.6764
14637TIP3    H265327   6.582   2.926   4.456 -1.4808 -0.7971 -1.2743
14638TIP3   OH265328   3.113   4.013   3.140 -0.0054  0.5406 -0.0092
14638TIP3    H165329   3.041   4.067   3.170 -0.9045  0.0564 -1.2158
14638TIP3    H265330   3.112   4.022   3.045  2.3261  1.5016 -0.0114
14639TIP3   OH265331   3.052   4.637  15.516  0.5332  0.5753 -0.4287
14639TIP3    H165332   3.049   4.620  15.422  2.3282  0.7663 -0.5417
14639TIP3    H265333   3.134   4.598  15.545  0.2487  0.9681  0.9785
14640TIP3   OH265334   4.946   4.624  10.678 -0.0701 -0.0558  0.1189
14640TIP3    H165335   4.883   4.689  10.648 -1.8936 -0.7889  2.0771
14640TIP3    H265336   4.902   4.540  10.664  0.7413 -0.6280  0.9095
14641TIP3   OH265337   4.863   1.867  15.899  0.4101 -1.1186 -0.4970
14641TIP3    H165338   4.822   1.830  15.977 -2.3116  0.5035 -1.0242
14641TIP3    H265339   4.912   1.943  15.931 -0.7846 -0.3974 -0.3207
14642TIP3   OH265340   2.886   2.063  16.829  0.0918 -0.0496  0.1521
14642TIP3    H165341   2.865   2.156  16.823 -1.6960 -0.5139 -2.2606
14642TIP3    H265342   2.885   2.032  16.738  1.3221 -2.3169  0.8310
14643TIP3   OH265343   6.017   2.737   5.407  0.2729 -0.3183 -0.1052
14643TIP3    H165344   6.110   2.755   5.393  0.4550 -0.9796  0.2084
14643TIP3    H265345   6.001   2.763   5.498 -0.5087  2.3655 -0.9287
14644TIP3   OH265346   2.417   2.401   5.543 -0.4429  0.0107  0.1480
14644TIP3    H165347   2.489   2.347   5.511 -0.0118  1.6931 -1.9404
14644TIP3    H265348   2.339   2.367   5.498 -0.4431  0.0894  0.0888
14645TIP3   OH265349   5.829   0.408   4.057  0.0622 -0.0491 -0.2777
14645TIP3    H165350   5.792   0.488   4.096  0.9930  1.4009 -2.1866
14645TIP3    H265351   5.915   0.436   4.023 -0.0020 -1.6001 -1.8365
14646TIP3   OH265352   5.456   0.836  15.689  0.3988 -0.0860  0.1780
14646TIP3    H165353   5.363   0.829  15.668  0.5949 -1.4989 -0.3265
14646TIP3    H265354   5.491   0.749  15.672  1.8235  0.4265  0.3536
14647TIP3   OH265355   3.314   2.808   3.663  0.2440 -0.0063  0.6525
14647TIP3    H165356   3.337   2.900   3.673 -0.0626  0.1880 -0.2831
14647TIP3    H265357   3.232   2.798   3.711 -0.7301  0.6844 -0.7665
14648TIP3   OH265358   0.159   5.085   6.593 -0.4530 -0.4577  0.1039
14648TIP3    H165359   0.239   5.045   6.559  0.2005  0.6315  0.2962
14648TIP3    H265360   0.180   5.179   6.599 -2.7554  0.3893 -2.8494
14649TIP3   OH265361   5.007   3.033   2.539  0.2294  0.0036 -0.5624
14649TIP3    H165362   4.933   3.089   2.561  2.2240  1.9623  1.8601
14649TIP3    H265363   4.976   2.944   2.555 -2.1110  0.5909 -1.4936
14650TIP3   OH265364   5.756   0.280   6.074 -0.1888  0.2637 -0.1290
14650TIP3    H165365   5.819   0.279   6.001 -0.3340 -1.4374 -0.2842
14650TIP3    H265366   5.807   0.250   6.149 -0.4406  0.4088  0.0973
14651TIP3   OH265367   3.823   3.797  16.404  0.2295 -0.7936  0.1570
14651TIP3    H165368   3.748   3.742  16.424  0.0995 -0.8513 -0.4760
14651TIP3    H265369   3.787   3.885  16.394 -0.0656 -1.1231 -2.0546
14652TIP3   OH265370   6.711   5.950   3.840  0.8749  0.5170  0.9031
14652TIP3    H165371   6.755   6.011   3.781  0.0580 -1.4504 -1.9583
14652TIP3    H265372   6.781   5.916   3.895  2.2294  0.5095 -0.7399
14653TIP3   OH265373   3.627   5.049   4.308 -0.0532 -0.0881  0.8708
14653TIP3    H165374   3.550   5.049   4.364 -1.5365 -0.6969 -1.0707
14653TIP3    H265375   3.608   5.114   4.240  1.2291 -0.1142  0.4529
14654TIP3   OH265376   0.077   2.792   1.149 -0.7594 -0.3246 -0.6332
14654TIP3    H165377   0.115   2.821   1.067  0.7095  2.4001  0.8711
14654TIP3    H265378   0.099   2.861   1.212 -0.5043 -2.9652  2.4300
14655TIP3   OH265379   2.818   0.731   0.139 -0.1575 -0.0913 -0.1852
14655TIP3    H165380   2.768   0.697   0.213 -0.1166  1.2835  0.5175
14655TIP3    H265381   2.752   0.768   0.081 -0.0897  0.1766 -0.0949
14656TIP3   OH265382   0.859   1.657  17.132  0.2507 -0.3717 -0.1487
14656TIP3    H165383   0.854   1.690  17.221  0.6802  0.2952 -0.3620
14656TIP3    H265384   0.940   1.606  17.129 -1.1333 -2.7658  0.5856
14657TIP3   OH265385   4.520   5.503  16.840 -0.1112  0.2668 -0.1258
14657TIP3    H165386   4.435   5.458  16.845  0.0556  0.0064  0.5897
14657TIP3    H265387   4.507   5.572  16.776 -0.4124 -0.7227 -1.1584
14658TIP3   OH265388   3.735   0.322  14.941 -0.1486 -0.2048 -0.1537
14658TIP3    H165389   3.706   0.407  14.976  0.9034  0.2484 -0.3479
14658TIP3    H265390   3.823   0.310  14.978 -1.3297 -2.5992  2.2739
14659TIP3   OH265391   3.870   6.310   5.792 -0.0095  0.5402  0.0703
14659TIP3    H165392   3.877   6.400   5.761 -1.1265  1.0688  1.2372
14659TIP3    H265393   3.784   6.306   5.834 -0.5006 -1.4160 -0.9939
14660TIP3   OH265394   2.491   1.921  11.755 -0.0139 -0.2971 -0.2282
14660TIP3    H165395   2.582   1.938  11.730 -0.3871 -0.3532 -1.7633
14660TIP3    H265396   2.440   1.952  11.680 -1.2770 -0.0745  0.6996
14661TIP3   OH265397   0.811   0.846  11.447  0.0092  0.4887 -0.8002
14661TIP3    H165398   0.753   0.777  11.414  2.1258 -1.3270 -0.9605
14661TIP3    H265399   0.834   0.897  11.369  1.2717 -0.9027 -1.3951
14662TIP3   OH265400   4.010   1.400  14.505 -0.4316  0.5979  0.8521
14662TIP3    H165401   4.092   1.404  14.457 -0.2175  2.8156  1.2975
14662TIP3    H265402   3.950   1.458  14.458 -1.8094 -1.0128  0.5048
14663TIP3   OH265403   3.088   5.172   1.995 -0.3236 -0.7909  0.3725
14663TIP3    H165404   3.133   5.185   1.912  0.9243 -0.2237  1.1213
14663TIP3    H265405   3.007   5.126   1.971  1.3448 -3.2640 -0.8313
14664TIP3   OH265406   6.304   3.663   3.646  0.3186 -0.2778  0.6075
14664TIP3    H165407   6.222   3.703   3.620 -0.3551 -2.0022 -0.0958
14664TIP3    H265408   6.280   3.597   3.710  1.1312 -0.8702  0.3271
14665TIP3   OH265409   3.666   6.646   0.971 -0.2490  0.2193 -0.6710
14665TIP3    H165410   3.575   6.674   0.957 -0.6167 -1.0021 -0.8603
14665TIP3    H265411   3.709   6.660   0.887 -0.0010  1.6605 -0.3323
14666TIP3   OH265412   0.968   3.615   4.576  0.0007  0.0646 -0.3277
14666TIP3    H165413   1.006   3.682   4.519 -0.7940  1.5705  0.8479
14666TIP3    H265414   0.985   3.646   4.665 -0.4404 -1.2850  0.2531
14667TIP3   OH265415   0.965   2.425   2.218 -0.1469  0.1220 -0.5537
14667TIP3    H165416   1.037   2.453   2.275 -1.9806  1.7380  1.1788
14667TIP3    H265417   0.927   2.508   2.187 -0.3998 -0.7181 -2.6123
14668TIP3   OH265418   5.791   6.259   3.779  0.0027  0.1156  0.1387
14668TIP3    H165419   5.743   6.256   3.862 -0.6999  1.4875 -0.1928
14668TIP3    H265420   5.882   6.274   3.804 -0.5002  2.7788  0.6522
14669TIP3   OH265421   5.107   6.070   5.615 -0.1662  0.4827  0.0593
14669TIP3    H165422   5.143   6.144   5.565 -0.2901  1.2794  1.1213
14669TIP3    H265423   5.181   6.010   5.624  0.7052  1.6912  1.4322
14670TIP3   OH265424   5.486   4.515   0.215  0.0471  0.1272 -0.0300
14670TIP3    H165425   5.558   4.457   0.189  0.6731  0.4936  0.8499
14670TIP3    H265426   5.467   4.566   0.136  0.5781 -0.1442 -0.3447
14671TIP3   OH265427   3.416   0.602   3.614 -0.1353 -0.3948 -0.5108
14671TIP3    H165428   3.402   0.508   3.629 -0.0866 -0.1538  1.2391
14671TIP3    H265429   3.356   0.645   3.674  0.2270  0.7041 -0.9147
14672TIP3   OH265430   4.669   5.086   5.917  0.0054  0.1287  0.3428
14672TIP3    H165431   4.717   5.114   5.838  1.4945  2.3653  1.9234
14672TIP3    H265432   4.656   5.167   5.967 -2.6225 -0.9163  1.5466
14673TIP3   OH265433   0.439   4.228  16.862 -0.1536  0.2685 -0.9119
14673TIP3    H165434   0.383   4.179  16.802  0.2611 -0.0906 -1.0088
14673TIP3    H265435   0.466   4.305  16.812  0.0734  0.0429 -1.1400
14674TIP3   OH265436   1.966   2.240  11.531 -0.0554  0.0736  0.4860
14674TIP3    H165437   1.894   2.272  11.585 -0.4663 -1.1045  0.6651
14674TIP3    H265438   1.966   2.298  11.454  0.1821  1.4099  1.4659
14675TIP3   OH265439   5.204   2.768  17.037 -0.5292  0.1348 -0.0711
14675TIP3    H165440   5.242   2.690  17.076  0.2988  1.3037  1.5646
14675TIP3    H265441   5.110   2.750  17.035 -0.3295 -1.0121 -0.0049
14676TIP3   OH265442   3.347   4.304   1.056  0.3408  0.1832  0.4607
14676TIP3    H165443   3.265   4.320   1.010  1.8715  0.7073 -2.2731
14676TIP3    H265444   3.354   4.208   1.061  0.4515  0.0933 -1.0691
14677TIP3   OH265445   4.545   3.372   0.611  0.2397  0.8152  0.3905
14677TIP3    H165446   4.503   3.293   0.645 -1.4416  1.7248  0.5169
14677TIP3    H265447   4.584   3.345   0.528  0.0007 -0.2286  0.6055
14678TIP3   OH265448   3.691   3.587  12.323 -0.1226  0.4434 -0.6301
14678TIP3    H165449   3.752   3.598  12.251  1.0872 -1.7415 -0.0124
14678TIP3    H265450   3.612   3.632  12.294  1.2089  1.9936 -2.1173
14679TIP3   OH265451   5.333   2.369   3.169  0.1740 -0.0099 -0.3030
14679TIP3    H165452   5.328   2.465   3.165 -0.0871  0.0045  0.3159
14679TIP3    H265453   5.427   2.350   3.169  0.2280  0.2222 -0.8394
14680TIP3   OH265454   1.537   2.929   5.234  0.8169 -0.5227 -0.1461
14680TIP3    H165455   1.496   2.862   5.289  1.0689 -1.3064 -0.8704
14680TIP3    H265456   1.535   3.009   5.286 -1.3956 -0.5790 -0.0452
14681TIP3   OH265457   5.669   4.494  12.526  0.1536  0.5247  0.6458
14681TIP3    H165458   5.739   4.511  12.589  2.8495 -1.1713 -1.6569
14681TIP3    H265459   5.708   4.514  12.441 -1.5341 -2.1128 -0.8861
14682TIP3   OH265460   3.811   1.861  13.119  0.1545  0.1876 -0.4024
14682TIP3    H165461   3.873   1.861  13.046 -0.3950 -0.2721 -0.8736
14682TIP3    H265462   3.777   1.772  13.123 -0.1133  0.3063  0.1693
14683TIP3   OH265463   3.023   4.065  16.187  0.2731  0.6002  0.0223
14683TIP3    H165464   3.103   4.097  16.228  0.3773 -0.1670  0.4486
14683TIP3    H265465   2.996   4.134  16.127  0.9534  1.0953  0.2858
14684TIP3   OH265466   0.351   6.758   4.129  0.0231 -0.0149 -0.8645
14684TIP3    H165467   0.309   6.802   4.204  1.1315 -0.3161 -0.0388
14684TIP3    H265468   0.372   6.829   4.068  0.2566  0.3971 -0.3142
14685TIP3   OH265469   3.301   2.692   4.959 -0.2360 -0.1937  0.1419
14685TIP3    H165470   3.228   2.635   4.982 -0.5683 -0.0733 -0.5824
14685TIP3    H265471   3.267   2.781   4.974 -0.7992 -0.0683 -1.6936
14686TIP3   OH265472   1.929   2.016   0.072  0.6344  0.2468 -0.3431
14686TIP3    H165473   1.948   1.976   0.157  0.1024  0.0419 -0.3130
14686TIP3    H265474   1.948   2.109   0.085 -1.7947  0.6854  0.8054
14687TIP3   OH265475   3.624   3.352   4.342 -0.2631  0.1402 -0.3482
14687TIP3    H165476   3.698   3.318   4.291  2.1496  0.9882  2.2894
14687TIP3    H265477   3.573   3.274   4.364  1.5919 -0.9722  0.2625
14688TIP3   OH265478   0.886   0.940  12.894 -0.2676  0.1320  0.2803
14688TIP3    H165479   0.911   0.956  12.802 -1.9592  0.2125 -0.1956
14688TIP3    H265480   0.964   0.899  12.933  0.3633 -0.2333 -1.2759
14689TIP3   OH265481   0.132   6.284  11.521  0.2252  0.5170  0.3638
14689TIP3    H165482   0.119   6.215  11.586  2.8569  0.2021  0.6483
14689TIP3    H265483   0.053   6.281  11.467 -0.6558 -1.2779  1.6443
14690TIP3   OH265484   4.076   6.372   6.391 -0.2419 -0.0057 -0.0214
14690TIP3    H165485   4.053   6.463   6.411 -1.7603 -0.0878 -1.2044
14690TIP3    H265486   3.992   6.329   6.372  0.5920 -1.1948 -1.2430
14691TIP3   OH265487   6.294   1.957  14.703  0.4378  0.5135  0.3857
14691TIP3    H165488   6.305   1.892  14.773  0.6002  0.4163  0.2707
14691TIP3    H265489   6.365   1.939  14.642  1.2114  1.5780  0.9564
14692TIP3   OH265490   3.895   5.387   0.568 -0.0764 -0.0117  0.5519
14692TIP3    H165491   3.920   5.424   0.652  1.3334  1.0027 -0.2760
14692TIP3    H265492   3.924   5.296   0.572  0.8510  0.2833  0.8248
14693TIP3   OH265493   6.107   4.969   0.924 -0.4286 -0.2024  0.3727
14693TIP3    H165494   6.194   5.008   0.939  0.7928 -2.9688  1.2150
14693TIP3    H265495   6.123   4.900   0.859 -2.2854  0.0309 -0.3832
14694TIP3   OH265496   5.281   0.649   5.409 -0.0486 -0.4408  0.1665
14694TIP3    H165497   5.191   0.646   5.377 -0.4280 -2.9093  1.2468
14694TIP3    H265498   5.308   0.557   5.416  1.3121  0.0483  3.1689
14695TIP3   OH265499   3.353   5.077   2.065  0.0684 -0.5176 -0.2777
14695TIP3    H165500   3.348   5.006   2.002  0.4241  1.6360 -2.9122
14695TIP3    H265501   3.264   5.113   2.068  0.1675 -0.2942  0.1050
14696TIP3   OH265502   4.693   4.983  16.229  0.1985 -0.1689  0.2503
14696TIP3    H165503   4.602   4.957  16.217  0.4867 -1.3410  0.4650
14696TIP3    H265504   4.689   5.067  16.275 -0.7579 -0.7828  1.3280
14697TIP3   OH265505   3.467   5.152  11.538  0.4455  0.7761 -0.2467
14697TIP3    H165506   3.430   5.099  11.468  2.6089  0.8405 -1.5365
14697TIP3    H265507   3.459   5.098  11.617  1.8752 -1.2056 -1.3762
14698TIP3   OH265508   2.248   0.219  17.102 -0.7023  0.4017  0.3873
14698TIP3    H165509   2.215   0.271  17.175 -0.3813  1.6054 -0.2790
14698TIP3    H265510   2.322   0.170  17.138 -1.0328  0.3786  1.0479
14699TIP3   OH265511   3.026   0.852  17.082  0.0327 -0.0368 -0.2435
14699TIP3    H165512   3.031   0.774  17.026 -0.1341 -0.0182 -0.2848
14699TIP3    H265513   2.999   0.922  17.022 -1.4526 -0.2762  0.1095
14700TIP3   OH265514   6.156   4.949   0.444  0.5807 -0.4331  0.0905
14700TIP3    H165515   6.168   4.868   0.394  1.6557  0.3587 -0.9740
14700TIP3    H265516   6.244   4.974   0.471  0.3042  0.6101  0.0504
14701TIP3   OH265517   2.090   1.926  14.082  0.5721 -0.4803  0.4835
14701TIP3    H165518   2.059   1.872  14.010 -0.9326 -1.1430  1.5659
14701TIP3    H265519   2.183   1.940  14.065  0.4441 -1.3974 -1.0678
14702TIP3   OH265520   1.986   4.259   2.396 -0.3418  0.2594 -0.1101
14702TIP3    H165521   2.046   4.245   2.323  0.5335  1.8294  0.2622
14702TIP3    H265522   1.961   4.351   2.388 -1.5489  0.0040  0.6091
14703TIP3   OH265523   3.008   5.745  15.359  0.0062 -0.2963  0.1770
14703TIP3    H165524   2.968   5.832  15.350 -2.9854 -1.4293  1.1092
14703TIP3    H265525   2.974   5.695  15.285 -1.9945 -1.7915  1.9442
14704TIP3   OH265526   1.279   1.348  17.097  0.0259  0.1075  0.3919
14704TIP3    H165527   1.256   1.280  17.161  0.0704 -1.9831 -1.6896
14704TIP3    H265528   1.360   1.318  17.057 -0.2526  1.0845 -1.0022
14705TIP3   OH265529   5.236   5.057   4.240  0.2089 -0.1592  0.3458
14705TIP3    H165530   5.328   5.078   4.254 -0.5901  2.5444  2.5680
14705TIP3    H265531   5.207   5.118   4.172 -0.0685 -0.5545  0.1080
14706TIP3   OH265532   3.687   1.401  15.895 -0.0650  0.2529 -0.4819
14706TIP3    H165533   3.675   1.311  15.925  0.2381  0.5081  0.4479
14706TIP3    H265534   3.714   1.449  15.974  3.2115  0.4977 -1.6213
14707TIP3   OH265535   4.931   3.007   2.118  0.4496  0.1594  0.3156
14707TIP3    H165536   4.953   2.940   2.054  3.3414 -0.4875  1.7781
14707TIP3    H265537   5.009   3.063   2.122  0.3379  0.2884  3.0492
14708TIP3   OH265538   6.710   1.167  15.935 -0.1567 -0.4344  0.0148
14708TIP3    H165539   6.793   1.143  15.977 -0.1551 -0.7777 -0.1804
14708TIP3    H265540   6.730   1.169  15.842  0.1415  1.5062  0.0734
14709TIP3   OH265541   3.455   4.949  12.009  0.3452  0.0186 -0.4113
14709TIP3    H165542   3.461   5.042  11.991 -2.5938  0.7104  1.5012
14709TIP3    H265543   3.375   4.939  12.060  0.8658 -3.4921  0.0032
14710TIP3   OH265544   4.775   3.854  15.043  0.0276  0.1752 -0.4666
14710TIP3    H165545   4.767   3.805  15.125  1.0816 -0.1452 -0.5382
14710TIP3    H265546   4.774   3.946  15.070  1.4686  0.0640  0.0473
14711TIP3   OH265547   1.336   1.381   3.431 -0.4910  0.3985 -0.5294
14711TIP3    H165548   1.408   1.442   3.412  0.3980  0.1406  1.6901
14711TIP3    H265549   1.265   1.437   3.463  0.0940  0.3910  0.8722
14712TIP3   OH265550   5.023   2.448   3.165 -0.0720  0.1838 -0.1105
14712TIP3    H165551   4.949   2.425   3.109  0.2282 -0.0597 -0.4095
14712TIP3    H265552   5.094   2.469   3.105  0.8600 -1.9888  0.1292
14713TIP3   OH265553   1.124   0.932  14.892 -0.3705  0.0015 -0.3784
14713TIP3    H165554   1.199   0.879  14.917 -0.1473 -0.0083 -1.0559
14713TIP3    H265555   1.117   0.997  14.962  0.4002  0.1343 -0.4103
14714TIP3   OH265556   5.916   4.449  12.713  0.5298  0.5071  0.0636
14714TIP3    H165557   5.896   4.387  12.643 -0.1734 -0.7110  1.2979
14714TIP3    H265558   6.012   4.444  12.723  1.0778  2.9779 -2.8026
14715TIP3   OH265559   5.535   5.904   1.760 -0.5696 -0.0360  0.1398
14715TIP3    H165560   5.534   5.809   1.773 -1.2797  0.2581  2.7505
14715TIP3    H265561   5.628   5.926   1.751 -0.2843 -0.8371  1.0007
14716TIP3   OH265562   0.703   4.341  15.321 -0.3062  0.3083  0.2334
14716TIP3    H165563   0.611   4.320  15.341 -0.1067 -0.3189  0.5133
14716TIP3    H265564   0.702   4.434  15.300 -0.9870  0.3414  0.3842
14717TIP3   OH265565   6.141   0.698   5.056 -0.3462  0.6190 -0.2194
14717TIP3    H165566   6.135   0.781   5.102  0.4742 -0.3456  1.7458
14717TIP3    H265567   6.064   0.649   5.083  0.1056  0.0672  0.0926
14718TIP3   OH265568   5.349   3.627  14.579  0.8084  0.0386 -0.0807
14718TIP3    H165569   5.409   3.701  14.567  1.3332 -0.2359  0.7155
14718TIP3    H265570   5.403   3.560  14.622  1.0591 -1.7883 -2.9872
14719TIP3   OH265571   5.373   0.862   2.911  0.4025 -0.2101  0.2586
14719TIP3    H165572   5.454   0.869   2.861  2.3954 -0.6361  3.1937
14719TIP3    H265573   5.400   0.865   3.002 -3.0764  1.4096  1.4345
14720TIP3   OH265574   0.195   2.212  17.235  0.3913  0.0574 -0.7394
14720TIP3    H165575   0.223   2.296  17.272 -0.5757  0.2167 -0.3466
14720TIP3    H265576   0.173   2.233  17.144  1.8831 -0.1506 -1.1763
14721TIP3   OH265577   5.879   2.347  12.405 -0.0844  0.6041 -0.3134
14721TIP3    H165578   5.887   2.436  12.370 -0.0576  1.1751  1.0947
14721TIP3    H265579   5.786   2.336  12.422  0.1356  1.1132  1.3525
14722TIP3   OH265580   3.516   0.979  11.591 -0.2363  0.8522  0.2966
14722TIP3    H165581   3.566   1.008  11.668  1.1581 -1.2279  0.2599
14722TIP3    H265582   3.543   1.039  11.521  2.2904 -0.1415  0.2880
14723TIP3   OH265583   2.676   2.397   2.887  0.1891 -0.1183  0.0586
14723TIP3    H165584   2.626   2.389   2.968 -0.2934  0.6159 -0.1528
14723TIP3    H265585   2.634   2.335   2.827  0.0058 -0.0486  0.1146
14724TIP3   OH265586   2.867   2.380   4.545 -0.4099  0.0262 -0.2624
14724TIP3    H165587   2.802   2.391   4.614 -0.8477 -0.4611 -0.5932
14724TIP3    H265588   2.951   2.387   4.590 -0.6544 -2.1815  0.6722
14725TIP3   OH265589   4.225   3.318   3.433 -0.3583  0.3183 -0.1390
14725TIP3    H165590   4.258   3.231   3.454  0.5471  0.4790 -0.8594
14725TIP3    H265591   4.203   3.356   3.518  0.7944 -0.0070  0.3156
14726TIP3   OH265592   4.930   1.420   5.130 -0.3831 -0.1214  0.5189
14726TIP3    H165593   4.932   1.393   5.222  0.3814 -4.3986 -0.5474
14726TIP3    H265594   4.838   1.416   5.105 -0.5744  0.9131  0.9931
14727TIP3   OH265595   1.746   6.232  16.499 -0.1507  0.0084 -0.2179
14727TIP3    H165596   1.726   6.316  16.458  0.6769  0.3430  0.0336
14727TIP3    H265597   1.804   6.254  16.572 -1.5808 -0.5747  1.1586
14728TIP3   OH265598   5.305   4.072  12.632  0.2355  0.0275 -0.4578
14728TIP3    H165599   5.386   4.023  12.623 -0.2771 -0.8842 -0.1788
14728TIP3    H265600   5.315   4.146  12.571  1.1846 -0.1747 -0.5628
14729TIP3   OH265601   6.049   3.573  13.723 -0.1350 -0.3754 -0.1439
14729TIP3    H165602   6.105   3.602  13.651 -1.4095 -0.5629 -1.2443
14729TIP3    H265603   6.059   3.477  13.724  2.5057 -0.2185  2.1883
14730TIP3   OH265604   4.578   0.418  17.092 -0.2080  0.2466  0.0777
14730TIP3    H165605   4.589   0.385  17.182  0.4099 -0.5002 -0.2510
14730TIP3    H265606   4.524   0.352  17.049 -3.2765  2.1667  0.7104
14731TIP3   OH265607   1.372   6.067  14.874 -0.1623  0.2980 -0.1938
14731TIP3    H165608   1.365   5.975  14.850  0.1361  0.2569 -0.1322
14731TIP3    H265609   1.291   6.107  14.842 -0.7747 -0.1877  0.7184
14732TIP3   OH265610   5.856   6.266  14.709  0.0848 -0.4966 -0.2041
14732TIP3    H165611   5.786   6.209  14.679  0.8690 -0.3228 -2.5431
14732TIP3    H265612   5.885   6.312  14.631  0.6639  1.8373  1.2815
14733TIP3   OH265613   4.731   4.802  14.349  0.1090  0.3499 -0.0274
14733TIP3    H165614   4.751   4.865  14.280  1.1811 -0.6040 -0.6314
14733TIP3    H265615   4.808   4.745  14.353  0.5143  0.9817  2.6999
14734TIP3   OH265616   4.202   1.384  13.069 -0.1383  0.4633 -0.4238
14734TIP3    H165617   4.155   1.360  12.989 -0.4575 -0.2306 -0.0279
14734TIP3    H265618   4.149   1.453  13.108 -0.0095  0.7680 -0.7768
14735TIP3   OH265619   5.299   6.240   2.430  0.2586  0.1570 -0.5722
14735TIP3    H165620   5.335   6.221   2.344 -0.0005 -0.7826 -0.4844
14735TIP3    H265621   5.241   6.166   2.449  1.4424 -0.4203  1.0380
14736TIP3   OH265622   5.861   1.972   0.452 -1.0068  0.1526 -0.2002
14736TIP3    H165623   5.911   2.025   0.513  0.9776  0.3378 -1.8866
14736TIP3    H265624   5.869   1.883   0.486  0.1476  0.2409 -0.2144
14737TIP3   OH265625   3.477   1.856   5.624 -0.4551  0.2138 -0.3410
14737TIP3    H165626   3.508   1.934   5.579 -0.8921  0.4054 -0.3193
14737TIP3    H265627   3.383   1.853   5.605 -0.4656 -0.2390 -0.2432
14738TIP3   OH265628   4.710   1.299   4.763  0.7758  0.9377  0.0261
14738TIP3    H165629   4.770   1.351   4.709 -1.0940 -0.2247 -3.3914
14738TIP3    H265630   4.641   1.360   4.788  0.7329  1.0639 -0.4024
14739TIP3   OH265631   2.264   1.605  10.982 -0.5888 -0.0693 -0.0677
14739TIP3    H165632   2.290   1.685  11.028 -1.4541 -0.9284  2.0167
14739TIP3    H265633   2.266   1.630  10.889  2.6258  1.3143  0.2504
14740TIP3   OH265634   6.460   6.376  15.741 -0.2781  0.1970  0.0463
14740TIP3    H165635   6.433   6.334  15.823  1.5487 -0.3194  0.4109
14740TIP3    H265636   6.465   6.469  15.763 -1.8398  0.3459 -0.0825
14741TIP3   OH265637   3.839   3.770  14.146 -0.0737  0.1634  0.3574
14741TIP3    H165638   3.848   3.826  14.223  0.9763  2.9077 -1.5871
14741TIP3    H265639   3.929   3.762  14.112 -0.3002 -2.2357  0.1862
14742TIP3   OH265640   2.434   3.200   5.496 -0.1741 -0.2825 -0.2847
14742TIP3    H165641   2.418   3.131   5.561 -0.0147  0.2741  0.3565
14742TIP3    H265642   2.426   3.282   5.545 -0.5681  0.1721 -1.0791
14743TIP3   OH265643   1.014   0.630  12.599  0.5682  0.3304 -0.6276
14743TIP3    H165644   1.061   0.666  12.524  0.2649 -0.4083 -1.1818
14743TIP3    H265645   0.922   0.630  12.572  0.2520  1.5145  0.3455
14744TIP3   OH265646   3.311   5.898   3.304 -0.0481  0.3736 -0.2054
14744TIP3    H165647   3.280   5.842   3.233  3.3760 -3.6591  1.0348
14744TIP3    H265648   3.237   5.906   3.363 -1.2726 -1.2177 -1.4347
14745TIP3   OH265649   1.559   1.809  15.161 -0.1789 -0.4979 -0.1269
14745TIP3    H165650   1.522   1.830  15.076 -0.1633  3.4468  0.6414
14745TIP3    H265651   1.594   1.720  15.151  1.2149  0.3203 -4.6920
14746TIP3   OH265652   3.366   2.099  17.081 -0.2011  0.1695  0.3972
14746TIP3    H165653   3.438   2.051  17.122 -0.7633  0.0987  1.3335
14746TIP3    H265654   3.299   2.106  17.150 -0.7994  0.8561 -0.2314
14747TIP3   OH265655   5.171   4.945   3.814 -0.7278  0.1706 -0.1543
14747TIP3    H165656   5.256   4.925   3.853 -1.4006 -1.6767  0.4856
14747TIP3    H265657   5.191   4.999   3.738  0.8991  0.8636  0.7293
14748TIP3   OH265658   1.607   1.224   0.607 -0.1922  0.2603  0.3994
14748TIP3    H165659   1.526   1.259   0.570 -0.0520 -0.1117 -0.2680
14748TIP3    H265660   1.663   1.206   0.531  0.3960  0.2166  0.8348
14749TIP3   OH265661   3.656   3.126   5.510 -0.3430  1.1938 -0.5322
14749TIP3    H165662   3.644   3.032   5.499 -0.1662  1.3536 -2.6596
14749TIP3    H265663   3.575   3.157   5.551 -0.8503  0.2597 -0.8158
14750TIP3   OH265664   4.898   5.181  12.512  0.4101 -0.1589 -0.2292
14750TIP3    H165665   4.910   5.274  12.494 -1.2638  0.0183 -0.6048
14750TIP3    H265666   4.901   5.174  12.607  1.9670  0.0372 -0.2435
14751TIP3   OH265667   6.643   4.745  12.903 -0.0018  0.1696 -0.5178
14751TIP3    H165668   6.550   4.740  12.879  0.2142 -2.0231 -1.1621
14751TIP3    H265669   6.646   4.804  12.978 -1.6151  1.9728 -1.7756
14752TIP3   OH265670   2.835   4.886   5.082  0.4628 -0.4374 -0.0313
14752TIP3    H165671   2.838   4.896   5.177 -2.3708 -0.1932  0.1230
14752TIP3    H265672   2.816   4.793   5.069  0.5901 -0.4175 -0.3613
14753TIP3   OH265673   6.743   6.544   4.407 -0.0213  0.3290 -0.5505
14753TIP3    H165674   6.674   6.497   4.360 -0.0573  1.4753 -1.6890
14753TIP3    H265675   6.824   6.515   4.366  0.1073 -0.0628 -0.0455
14754TIP3   OH265676   4.694   2.591   1.000 -0.6560 -0.2238  0.6390
14754TIP3    H165677   4.617   2.580   0.944 -0.0895  1.3448 -0.4907
14754TIP3    H265678   4.768   2.567   0.945  0.0502  2.7572  0.1338
14755TIP3   OH265679   4.674   5.086  15.830  0.3427  1.0923 -0.0175
14755TIP3    H165680   4.710   5.093  15.741  0.0884  2.0433 -0.0609
14755TIP3    H265681   4.579   5.088  15.817  0.2729 -0.2722  0.1790
14756TIP3   OH265682   6.073   2.514   0.459 -0.1990 -0.3913 -0.4397
14756TIP3    H165683   6.050   2.497   0.368  0.1022  3.7952 -1.5379
14756TIP3    H265684   6.007   2.578   0.488  0.6262 -0.4675  1.7646
14757TIP3   OH265685   3.087   6.484   3.829  0.2198 -0.0882  0.1169
14757TIP3    H165686   3.113   6.576   3.828  0.4839 -0.1462  0.8056
14757TIP3    H265687   3.165   6.436   3.804 -0.6669 -0.0130 -3.2207
14758TIP3   OH265688   2.506   6.360  15.482 -0.6027 -0.1985 -0.0704
14758TIP3    H165689   2.424   6.332  15.441 -0.2617 -1.7204  0.2301
14758TIP3    H265690   2.504   6.320  15.569  1.3606 -2.0518 -0.7810
14759TIP3   OH265691   6.678   2.033  16.170 -0.6136  0.3618 -0.4722
14759TIP3    H165692   6.596   2.017  16.217 -0.5885 -0.3931 -0.6863
14759TIP3    H265693   6.721   2.101  16.222 -1.8789  1.6093 -0.9765
14760TIP3   OH265694   0.315   1.860  12.421  0.1800 -0.0681 -0.0515
14760TIP3    H165695   0.277   1.939  12.461  0.3650 -1.5261  3.3079
14760TIP3    H265696   0.404   1.886  12.395 -0.0118  1.0080  0.3385
14761TIP3   OH265697   4.332   6.436  12.205  0.0936  0.0957  0.1438
14761TIP3    H165698   4.258   6.483  12.166 -0.7844 -1.0051  0.4432
14761TIP3    H265699   4.319   6.445  12.300 -0.0460 -0.6741  0.2053
14762TIP3   OH265700   1.830   2.003  12.481  0.1034  0.1238 -0.3939
14762TIP3    H165701   1.910   2.030  12.527  1.1449  1.0321 -2.6123
14762TIP3    H265702   1.812   1.915  12.515  1.5091  0.2537  0.8113
14763TIP3   OH265703   3.317   1.086  13.018 -0.3782 -0.5435 -0.5228
14763TIP3    H165704   3.361   1.007  13.048  1.6115  0.6849 -0.0185
14763TIP3    H265705   3.353   1.101  12.930  0.0706  0.3490 -0.1984
14764TIP3   OH265706   2.885   5.443  11.538 -0.0852 -0.1964  0.3401
14764TIP3    H165707   2.828   5.457  11.613 -0.5895 -0.7579  0.0663
14764TIP3    H265708   2.970   5.419  11.577 -0.3929 -0.6774  0.7344
14765TIP3   OH265709   2.782   5.165  13.600 -0.7018 -0.2694 -0.1695
14765TIP3    H165710   2.809   5.146  13.510  1.1149  0.5050  0.1777
14765TIP3    H265711   2.687   5.179  13.594 -0.5394  0.2229 -2.0376
14766TIP3   OH265712   1.576   2.649  11.900  0.0110 -0.0524  0.1049
14766TIP3    H165713   1.645   2.716  11.909 -0.3692  0.6500 -1.8441
14766TIP3    H265714   1.599   2.601  11.821 -0.5905 -1.2172  0.6232
14767TIP3   OH265715   5.754   0.214  14.359 -0.2913  0.3979  0.3090
14767TIP3    H165716   5.713   0.227  14.444  2.1144 -2.7876  2.1402
14767TIP3    H265717   5.681   0.195  14.300 -1.8304  0.2345  2.1747
14768TIP3   OH265718   4.355   1.893   1.366 -0.7458  0.1423 -0.1734
14768TIP3    H165719   4.395   1.931   1.445 -2.0173  0.4785  0.3255
14768TIP3    H265720   4.279   1.844   1.399 -0.4805 -0.9141 -1.0557
14769TIP3   OH265721   5.627   1.226   3.488  0.6416 -0.0045 -0.2783
14769TIP3    H165722   5.666   1.305   3.450  0.3077 -0.2234 -1.1014
14769TIP3    H265723   5.604   1.252   3.578  0.6080  0.8123 -0.5096
14770TIP3   OH265724   0.353   5.032   6.274  0.4437 -0.1123 -0.2530
14770TIP3    H165725   0.357   4.981   6.354 -0.7416  0.4821  0.2130
14770TIP3    H265726   0.267   5.011   6.236  0.2729  0.9076 -0.4627
14771TIP3   OH265727   3.992   2.221  13.492 -0.2598 -0.6715 -0.4119
14771TIP3    H165728   4.033   2.224  13.578  1.9158  2.7586 -1.3575
14771TIP3    H265729   4.065   2.210  13.431 -1.4235 -0.4183 -1.9249
14772TIP3   OH265730   3.647   5.848   2.755 -0.6424  0.3041 -0.3649
14772TIP3    H165731   3.681   5.884   2.837  1.3617  1.9634 -1.8282
14772TIP3    H265732   3.655   5.919   2.692  1.4355 -1.9656 -2.9216
14773TIP3   OH265733   2.791   1.246   0.552 -0.5944 -0.0326 -0.1712
14773TIP3    H165734   2.861   1.296   0.513  0.2991 -0.2908  1.0456
14773TIP3    H265735   2.807   1.156   0.524 -0.0393 -0.1942  0.6244
14774TIP3   OH265736   4.705   4.171  14.670 -0.4904  0.6640  0.3704
14774TIP3    H165737   4.648   4.119  14.613  0.5759  0.7507 -0.8371
14774TIP3    H265738   4.793   4.134  14.657 -0.0454  1.4214  1.1027
14775TIP3   OH265739   4.143   2.313   2.674 -0.1331  0.0250  0.5689
14775TIP3    H165740   4.200   2.387   2.653  0.2843  0.4956  3.0026
14775TIP3    H265741   4.056   2.351   2.681 -0.1585  0.0027  0.3730
14776TIP3   OH265742   4.547   0.136  13.781 -0.3815 -0.1717  0.2522
14776TIP3    H165743   4.602   0.181  13.717 -2.2893 -0.6648 -1.8467
14776TIP3    H265744   4.599   0.061  13.809  0.8299  0.5225 -0.0779
14777TIP3   OH265745   0.117   3.600   5.368 -1.1271  0.0103  0.1464
14777TIP3    H165746   0.091   3.622   5.458 -1.6689 -0.1593  0.0384
14777TIP3    H265747   0.129   3.685   5.326 -0.8100  0.0898  0.3989
14778TIP3   OH265748   1.325   5.228  11.330 -0.2581 -0.0200 -0.6187
14778TIP3    H165749   1.263   5.171  11.375  0.6423  0.4969  1.4010
14778TIP3    H265750   1.293   5.316  11.347  0.8700  0.2424  0.2860
14779TIP3   OH265751   6.306   3.256  16.109 -0.1137  0.2151  0.6958
14779TIP3    H165752   6.292   3.351  16.108  0.2917  0.2856  1.4723
14779TIP3    H265753   6.227   3.222  16.150 -1.2048  0.0270 -1.4062
14780TIP3   OH265754   5.936   6.661  11.996 -0.1655 -0.0105 -0.3288
14780TIP3    H165755   5.992   6.638  12.070  2.4574  0.0930 -2.1409
14780TIP3    H265756   5.889   6.580  11.976 -1.3235  0.1006  1.7045
14781TIP3   OH265757   1.512   0.060   4.333 -0.1959 -0.4453  0.6357
14781TIP3    H165758   1.578   0.121   4.366  1.1216 -1.1404 -0.5969
14781TIP3    H265759   1.457   0.113   4.275  1.1267 -0.4519 -0.6681
14782TIP3   OH265760   0.371   1.358  15.966 -0.6072 -0.1996  0.0222
14782TIP3    H165761   0.450   1.306  15.953 -0.2566 -0.1130  1.5884
14782TIP3    H265762   0.339   1.332  16.052 -1.2747  1.0700  0.1850
14783TIP3   OH265763   6.005   6.120   3.417 -0.3572 -0.0032 -0.4045
14783TIP3    H165764   6.021   6.195   3.474 -1.4115 -0.6270  0.7524
14783TIP3    H265765   5.997   6.046   3.477 -2.4563 -0.5349 -1.2647
14784TIP3   OH265766   0.138   4.776  12.728  0.1417 -0.4494 -0.2117
14784TIP3    H165767   0.164   4.795  12.638 -0.4713 -0.3737 -0.3782
14784TIP3    H265768   0.088   4.694  12.721 -0.6491  0.0109 -0.0685
14785TIP3   OH265769   0.875   4.697  16.398  0.1801  0.0067 -0.4514
14785TIP3    H165770   0.807   4.721  16.461 -1.0327  0.3772 -1.8263
14785TIP3    H265771   0.896   4.606  16.418  0.2602  0.2884  0.8395
14786TIP3   OH265772   1.336   4.442  13.376  0.1836  0.1024 -0.2155
14786TIP3    H165773   1.262   4.458  13.433  2.4310 -1.0444  3.3221
14786TIP3    H265774   1.362   4.529  13.344 -1.5593  0.6912 -0.0994
14787TIP3   OH265775   0.790   0.561  15.871  0.8601  0.9344  0.0524
14787TIP3    H165776   0.834   0.590  15.952 -0.5393  0.4176  1.0337
14787TIP3    H265777   0.862   0.546  15.809  2.0465  0.5138  1.4632
14788TIP3   OH265778   2.287   0.633   3.093 -0.6080  0.4167 -0.2140
14788TIP3    H165779   2.301   0.728   3.092 -0.8135  0.4469 -0.5543
14788TIP3    H265780   2.197   0.623   3.061  0.5702 -0.0773 -3.8046
14789TIP3   OH265781   1.476   5.478  15.765 -0.1797  0.0000 -0.0611
14789TIP3    H165782   1.563   5.439  15.771  0.2478  0.9675  0.2163
14789TIP3    H265783   1.429   5.423  15.703 -0.0854 -1.8300  1.3863
14790TIP3   OH265784   5.524   4.234  16.807 -0.3347 -0.6163  0.1484
14790TIP3    H165785   5.591   4.209  16.871 -1.0688 -2.1516  0.3634
14790TIP3    H265786   5.574   4.270  16.734  0.5890  0.1323  1.1108
14791TIP3   OH265787   1.944   1.968  12.874 -0.1199  0.7055 -0.0919
14791TIP3    H165788   2.038   1.955  12.887  0.3903  1.7259 -2.3359
14791TIP3    H265789   1.904   1.889  12.909  1.4711  0.6192  1.7214
14792TIP3   OH265790   4.808   1.038   0.446 -0.8630  0.3163  0.1860
14792TIP3    H165791   4.884   1.030   0.502 -0.7532  0.2329  0.0279
14792TIP3    H265792   4.844   1.047   0.357 -0.9524  2.8614  0.3296
14793TIP3   OH265793   4.347   5.744   1.159  0.2136 -0.5049 -1.1993
14793TIP3    H165794   4.367   5.833   1.129 -1.5650  0.1343 -0.5937
14793TIP3    H265795   4.378   5.742   1.250  2.4427 -1.3303 -1.9094
14794TIP3   OH265796   6.681   0.138  13.959  0.3648 -0.1128 -0.1560
14794TIP3    H165797   6.726   0.094  14.032  1.5713  0.3999 -0.5603
14794TIP3    H265798   6.694   0.079  13.885  0.7589  0.2422 -0.3726
14795TIP3   OH265799   0.548   3.707   2.135  0.7637  0.3643  0.0033
14795TIP3    H165800   0.562   3.730   2.227 -1.4271 -0.1411  0.5089
14795TIP3    H265801   0.494   3.779   2.101  0.5592 -0.0568 -0.5662
14796TIP3   OH265802   1.149   0.905  14.348 -0.0657  0.1258  0.4458
14796TIP3    H165803   1.143   0.900  14.443 -0.1387  1.0053  0.4965
14796TIP3    H265804   1.125   0.818  14.318  3.4548 -1.3450  1.3810
14797TIP3   OH265805   1.035   6.308   0.521 -0.3379 -0.0731  0.3926
14797TIP3    H165806   1.095   6.379   0.546  2.4172 -2.0792 -0.1465
14797TIP3    H265807   0.996   6.280   0.604  2.6878 -1.4058  1.4988
14798TIP3   OH265808   2.982   5.852  15.683  0.1299  1.0023  0.0290
14798TIP3    H165809   2.915   5.787  15.706  0.8439  0.6345  1.1331
14798TIP3    H265810   2.965   5.925  15.741  1.6477  0.2626  1.4898
14799TIP3   OH265811   6.312   1.221  14.219 -0.5068  0.4443 -0.4361
14799TIP3    H165812   6.321   1.169  14.299 -0.4017 -1.0225 -1.3767
14799TIP3    H265813   6.324   1.312  14.248 -2.6616  0.1770  1.5906
14800TIP3   OH265814   1.942   1.184   0.678 -0.1756 -0.1363  0.2555
14800TIP3    H165815   1.902   1.267   0.655  0.9911 -0.0514 -1.7234
14800TIP3    H265816   1.869   1.125   0.696 -1.0199  1.1303  1.1499
14801TIP3   OH265817   6.024   5.972   5.354 -0.0027  0.4684 -0.1576
14801TIP3    H165818   6.046   5.899   5.298  0.0753  1.7027 -1.8130
14801TIP3    H265819   6.092   5.972   5.422 -1.4192 -2.4652  1.4703
14802TIP3   OH265820   2.442   0.111  14.902 -0.4735  0.0944  0.4621
14802TIP3    H165821   2.474   0.167  14.832 -1.7406  0.6596  0.3122
14802TIP3    H265822   2.455   0.163  14.982  0.4833 -0.3433  0.6152
14803TIP3   OH265823   6.598   6.142   5.533 -0.1980  0.0368  0.1542
14803TIP3    H165824   6.677   6.107   5.576 -1.2008 -1.3304  0.9835
14803TIP3    H265825   6.626   6.161   5.444  0.7734 -1.7254  0.0250
14804TIP3   OH265826   1.244   3.661  14.657 -0.4926  0.6140 -0.2500
14804TIP3    H165827   1.163   3.643  14.610 -0.0690 -1.4366 -0.2815
14804TIP3    H265828   1.234   3.618  14.741  0.1223  1.3372  0.2132
14805TIP3   OH265829   0.388   6.118  16.258 -0.3930  0.2022  0.3624
14805TIP3    H165830   0.450   6.184  16.290 -0.0814  0.7382 -1.2113
14805TIP3    H265831   0.432   6.034  16.272  1.1116  0.6138 -1.4298
14806TIP3   OH265832   3.511   3.612   1.399  0.1715  0.2619 -0.3684
14806TIP3    H165833   3.433   3.620   1.455  0.4728  2.2269 -0.1483
14806TIP3    H265834   3.484   3.650   1.315  0.3756 -0.6847 -0.8703
14807TIP3   OH265835   0.102   5.626   6.359 -0.0352  0.0959 -0.4422
14807TIP3    H165836   0.026   5.671   6.395 -1.5574 -1.2476 -1.8164
14807TIP3    H265837   0.168   5.694   6.349 -1.2762  1.4355  0.1866
14808TIP3   OH265838   0.786   0.863  10.852  0.2080 -0.2092  0.1858
14808TIP3    H165839   0.718   0.828  10.909 -0.5207  2.3385  0.9797
14808TIP3    H265840   0.740   0.924  10.794  1.1753 -1.5561 -2.1764
14809TIP3   OH265841   6.462   6.313  15.440 -0.9042  0.3541  0.4023
14809TIP3    H165842   6.438   6.372  15.512 -0.1716 -1.2918  2.0553
14809TIP3    H265843   6.422   6.229  15.463  0.3655 -0.5331 -0.4966
14810TIP3   OH265844   2.497   5.287   2.326  0.9621 -0.1414  0.4732
14810TIP3    H165845   2.472   5.376   2.348 -1.7625 -0.4778 -0.9156
14810TIP3    H265846   2.472   5.235   2.403 -0.8044 -0.1591 -0.0720
14811TIP3   OH265847   5.689   3.167  16.013 -0.7989 -0.3938  0.0364
14811TIP3    H165848   5.680   3.234  16.081 -1.3150 -0.4795  0.0609
14811TIP3    H265849   5.626   3.192  15.946 -3.8670 -2.8544  1.7180
14812TIP3   OH265850   5.852   5.696  13.106  0.0218  0.2556 -0.0587
14812TIP3    H165851   5.844   5.608  13.071  1.1512  0.5591 -1.1557
14812TIP3    H265852   5.945   5.717  13.099 -0.2565  1.6161 -0.0586
14813TIP3   OH265853   5.481   5.101   6.551 -0.0391 -0.3525  0.0859
14813TIP3    H165854   5.387   5.083   6.541  0.1379  0.0603 -4.3258
14813TIP3    H265855   5.522   5.015   6.549 -0.2177 -0.4492  0.4457
14814TIP3   OH265856   5.154   6.426  12.745 -0.4291 -0.1403 -0.4980
14814TIP3    H165857   5.201   6.507  12.723 -0.4763  0.5952  1.7976
14814TIP3    H265858   5.154   6.375  12.664  0.1756  1.8721 -1.8451
14815TIP3   OH265859   6.422   3.683  11.991 -0.1009  0.5660 -0.3880
14815TIP3    H165860   6.496   3.653  12.044 -0.3271 -0.1693 -0.4830
14815TIP3    H265861   6.360   3.718  12.055 -1.0822 -1.7736  0.0607
14816TIP3   OH265862   1.104   2.667  14.667 -0.2967 -0.2227  0.3160
14816TIP3    H165863   1.017   2.641  14.700 -0.6729 -1.1461 -1.3024
14816TIP3    H265864   1.129   2.596  14.607 -0.1111  1.8022 -2.1740
14817TIP3   OH265865   4.270   0.809  13.976 -0.0253  0.3313 -0.1881
14817TIP3    H165866   4.209   0.865  14.025 -0.8285 -0.4496 -0.2727
14817TIP3    H265867   4.240   0.720  13.993 -0.1381  0.0206 -1.8518
14818TIP3   OH265868   6.380   0.714   0.351  0.3313 -1.1653  0.1315
14818TIP3    H165869   6.300   0.694   0.398 -0.1139 -0.9368 -0.5191
14818TIP3    H265870   6.403   0.632   0.306  0.8471 -1.4328  0.8577
14819TIP3   OH265871   4.006   1.822   1.073  0.2196  0.3588  0.1803
14819TIP3    H165872   3.959   1.877   1.012 -1.2332  0.7923  1.6215
14819TIP3    H265873   3.992   1.863   1.159 -2.7243 -3.2023  1.6978
14820TIP3   OH265874   5.702   4.647  13.866  0.4875 -0.3131 -0.2485
14820TIP3    H165875   5.711   4.596  13.785 -0.1703 -1.2780  0.2746
14820TIP3    H265876   5.772   4.615  13.922 -0.6142 -1.5004  0.5078
14821TIP3   OH265877   3.268   4.187   4.136 -0.4945 -0.5275 -0.2777
14821TIP3    H165878   3.200   4.230   4.187 -2.1912  0.6806 -3.3797
14821TIP3    H265879   3.334   4.255   4.121 -0.9553 -0.2886 -1.2959
14822TIP3   OH265880   0.105   6.494  11.697 -0.0963 -0.6846  0.5911
14822TIP3    H165881   0.018   6.505  11.657  1.4005  1.8479 -2.4016
14822TIP3    H265882   0.140   6.415  11.656 -0.4028 -0.8717  0.6802
14823TIP3   OH265883   4.548   1.043  14.537  0.3630 -0.2793  0.2948
14823TIP3    H165884   4.591   1.043  14.452 -1.3839 -0.3013 -0.6352
14823TIP3    H265885   4.459   1.013  14.519 -0.4510  0.9861  1.9174
14824TIP3   OH265886   4.343   3.119   3.561  0.0314  0.2618 -0.3244
14824TIP3    H165887   4.409   3.145   3.625  0.9362  0.9541 -1.5113
14824TIP3    H265888   4.374   3.034   3.528  0.3405  0.5774 -0.8668
14825TIP3   OH265889   4.810   0.534  14.676 -0.1959 -0.3571  0.0706
14825TIP3    H165890   4.721   0.523  14.644  0.2099  0.1428 -1.3178
14825TIP3    H265891   4.864   0.482  14.617  0.2174 -3.1350  2.6365
14826TIP3   OH265892   1.206   3.946   4.495  0.0044 -0.3750  0.5299
14826TIP3    H165893   1.155   3.959   4.575  1.2684 -2.6268  1.8030
14826TIP3    H265894   1.157   3.881   4.445 -0.8277  1.0920 -0.6318
14827TIP3   OH265895   3.521   1.918   6.205  0.0157 -0.0201 -0.0480
14827TIP3    H165896   3.488   1.847   6.260 -0.3644 -0.9353 -1.3941
14827TIP3    H265897   3.559   1.873   6.129 -2.9568  1.1816 -2.4855
14828TIP3   OH265898   1.366   0.210  11.034 -0.3736  0.1398 -0.2022
14828TIP3    H165899   1.282   0.240  11.070  0.8906  0.6001  2.6344
14828TIP3    H265900   1.368   0.247  10.946 -2.4643  1.4903  0.2291
14829TIP3   OH265901   5.403   1.616   2.731 -0.6258 -0.0682  0.3456
14829TIP3    H165902   5.450   1.683   2.781 -0.9061  0.1607  0.3020
14829TIP3    H265903   5.312   1.625   2.758 -0.5696 -0.8840  0.8479
14830TIP3   OH265904   5.705   1.605  13.861  0.4360 -0.2855 -0.0549
14830TIP3    H165905   5.774   1.631  13.922 -0.6468 -0.8314  1.4664
14830TIP3    H265906   5.624   1.637  13.901 -0.3510 -1.0526 -0.9865
14831TIP3   OH265907   2.622   6.360   1.160  0.1340 -0.2247 -0.0861
14831TIP3    H165908   2.687   6.428   1.176  0.3636 -0.4734  0.0378
14831TIP3    H265909   2.587   6.340   1.247  1.8209 -2.0220  0.2387
14832TIP3   OH265910   6.339   0.767  11.672  0.6589 -0.3264  0.2783
14832TIP3    H165911   6.277   0.831  11.709  1.6508  0.6088  0.3696
14832TIP3    H265912   6.401   0.750  11.743  0.6012 -1.1422  0.1376
14833TIP3   OH265913   0.911   2.363  15.448  0.1970  0.2448  0.2195
14833TIP3    H165914   0.834   2.373  15.391 -0.2149 -0.2607  0.6844
14833TIP3    H265915   0.920   2.269  15.460  0.4534  0.3370  0.7628
14834TIP3   OH265916   6.015   6.640   4.122  0.0544  0.0369 -0.3941
14834TIP3    H165917   6.092   6.674   4.077  0.4707  0.2985  0.4996
14834TIP3    H265918   6.037   6.548   4.139 -0.1991 -0.1249 -0.9216
14835TIP3   OH265919   1.323   1.179  15.452 -0.1830  0.0320 -0.2409
14835TIP3    H165920   1.315   1.112  15.520  1.5237  1.0175  1.0129
14835TIP3    H265921   1.305   1.261  15.497 -0.1418  0.6143 -1.2496
14836TIP3   OH265922   1.347   2.079  14.635  0.4638 -0.2352 -0.5950
14836TIP3    H165923   1.370   2.090  14.727  1.1651 -0.7077 -0.7033
14836TIP3    H265924   1.406   2.139  14.589  1.2891 -1.2207 -0.8559
14837TIP3   OH265925   6.668   4.678   0.251  0.3109 -0.5030 -0.2052
14837TIP3    H165926   6.691   4.767   0.225 -0.8219  0.3582  1.5781
14837TIP3    H265927   6.577   4.668   0.225  0.3703 -1.0872 -0.2038
14838TIP3   OH265928   2.070   1.163  11.903  0.4431 -0.4928  0.5992
14838TIP3    H165929   2.100   1.075  11.926  0.5262 -0.5773  0.1670
14838TIP3    H265930   1.975   1.160  11.914  0.2845 -1.0500 -0.7622
14839TIP3   OH265931   4.488   1.239   3.540  0.4999  0.1345 -0.3484
14839TIP3    H165932   4.491   1.155   3.494  1.3239  0.7350 -1.4276
14839TIP3    H265933   4.573   1.279   3.524  0.5511  0.6871  1.1251
14840TIP3   OH265934   5.085   1.866   2.416  0.4862 -0.5286 -0.7500
14840TIP3    H165935   5.150   1.936   2.423 -0.2824  0.1286  0.0493
14840TIP3    H265936   5.063   1.864   2.323  0.1975  0.6118 -0.7292
14841TIP3   OH265937   1.654   4.288  16.905  0.1431 -0.6371  0.1299
14841TIP3    H165938   1.678   4.365  16.853  0.2613  0.0370  1.1412
14841TIP3    H265939   1.651   4.216  16.842  3.2326 -0.4690 -0.3599
14842TIP3   OH265940   3.932   5.077   4.068  0.2072 -0.0815 -0.4765
14842TIP3    H165941   3.930   5.085   3.972 -0.7915  1.5465 -0.3656
14842TIP3    H265942   3.915   4.985   4.084 -1.9021 -0.0324 -1.8852
14843TIP3   OH265943   4.476   0.457   5.924  0.7888  0.1955 -0.6798
14843TIP3    H165944   4.391   0.500   5.935  1.3088  1.1448 -0.2875
14843TIP3    H265945   4.485   0.446   5.830  0.5034  0.6619 -0.7656
14844TIP3   OH265946   1.534   0.066   1.978 -0.3641 -0.2283  0.3554
14844TIP3    H165947   1.549   0.034   2.067 -2.4589  0.3305  0.9601
14844TIP3    H265948   1.545   0.161   1.984  0.7718 -0.2915 -0.3080
14845TIP3   OH265949   3.571   1.504  16.391 -0.5617 -0.1418 -0.0704
14845TIP3    H165950   3.565   1.595  16.418  0.7531 -0.3009  0.8930
14845TIP3    H265951   3.585   1.456  16.473 -0.8157 -1.1653 -0.6063
14846TIP3   OH265952   2.594   5.531  11.541 -0.2824  0.0350 -0.1681
14846TIP3    H165953   2.507   5.552  11.576 -0.0092 -0.0817  0.5940
14846TIP3    H265954   2.611   5.442  11.571 -0.0606 -0.0867 -0.6484
14847TIP3   OH265955   1.152   1.570   5.866  0.0975 -0.3836 -0.5384
14847TIP3    H165956   1.116   1.584   5.778  0.4184  0.0992 -0.5970
14847TIP3    H265957   1.080   1.532   5.916 -0.0262 -0.8427 -1.0642
14848TIP3   OH265958   1.917   1.683  13.613  0.1819 -0.0202  0.2457
14848TIP3    H165959   1.977   1.714  13.545 -1.1895  1.7318 -0.2659
14848TIP3    H265960   1.894   1.594  13.586  1.0811 -0.0259 -0.5638
14849TIP3   OH265961   6.362   5.903   5.134 -0.4623 -0.0785 -0.1227
14849TIP3    H165962   6.283   5.956   5.145  0.3187  1.1604 -0.3656
14849TIP3    H265963   6.339   5.841   5.064 -1.2968  0.0950 -0.0180
14850TIP3   OH265964   1.390   5.304  10.985 -0.4541 -0.1655  0.0148
14850TIP3    H165965   1.444   5.323  11.062  0.0220 -0.2783 -0.2864
14850TIP3    H265966   1.353   5.217  11.003  1.3150 -1.1311 -0.7804
14851TIP3   OH265967   3.787   1.852   2.626  1.3838  0.2854 -0.1644
14851TIP3    H165968   3.751   1.814   2.706 -0.9270 -3.1026 -2.5392
14851TIP3    H265969   3.875   1.816   2.620  0.6473 -1.5736 -0.3580
14852TIP3   OH265970   2.633   0.235  14.606  0.0558  0.0746 -0.4616
14852TIP3    H165971   2.703   0.301  14.600  1.1657 -1.0351 -0.2209
14852TIP3    H265972   2.680   0.152  14.613 -1.2972 -0.8543 -1.8800
14853TIP3   OH265973   4.410   4.546  15.953 -0.0845  0.3800  0.4899
14853TIP3    H165974   4.449   4.588  15.876  1.1131 -0.6785  0.4718
14853TIP3    H265975   4.342   4.488  15.918 -0.4708  0.9146  0.3535
14854TIP3   OH265976   6.446   2.132   1.153 -0.1409 -0.7074  0.4134
14854TIP3    H165977   6.356   2.152   1.178 -0.0715 -1.8435  1.6881
14854TIP3    H265978   6.492   2.123   1.236  1.0782 -0.5019 -0.2176
14855TIP3   OH265979   1.482   2.302  12.181  0.2645  0.1340  0.5006
14855TIP3    H165980   1.459   2.342  12.265  0.6079  0.8433  0.2656
14855TIP3    H265981   1.545   2.363  12.142  0.7789 -0.6244  0.1170
14856TIP3   OH265982   5.292   0.140   0.391 -0.5592 -0.1622 -0.6899
14856TIP3    H165983   5.201   0.163   0.409 -0.4811  0.4205 -0.9946
14856TIP3    H265984   5.329   0.219   0.351  0.8145  0.6216  1.9069
14857TIP3   OH265985   6.253   1.609   4.774  0.0958 -0.0499  0.4820
14857TIP3    H165986   6.245   1.624   4.868  0.8877 -0.2846  0.5896
14857TIP3    H265987   6.346   1.591   4.760 -0.1824 -1.0043 -0.1994
14858TIP3   OH265988   6.353   4.497   3.937  0.6309 -0.7101 -0.2641
14858TIP3    H165989   6.367   4.588   3.963  0.2639 -1.0247  1.1414
14858TIP3    H265990   6.345   4.500   3.842  0.0645  0.7965 -0.1941
14859TIP3   OH265991   3.101   0.943  15.412 -0.4892  0.2031 -0.1003
14859TIP3    H165992   3.181   0.910  15.371 -0.3385  0.7254 -0.2294
14859TIP3    H265993   3.058   0.865  15.447  0.5982  0.0382  0.8994
14860TIP3   OH265994   3.755   0.233   5.029 -0.0417  0.0113 -0.1991
14860TIP3    H165995   3.840   0.218   4.986  0.7170  0.5167  1.0703
14860TIP3    H265996   3.778   0.260   5.118 -1.6023 -2.6086  1.0927
14861TIP3   OH265997   0.514   0.331  12.665 -0.1574 -0.2895  0.2331
14861TIP3    H165998   0.540   0.256  12.612 -1.7882 -3.6438  3.7388
14861TIP3    H265999   0.596   0.377  12.684  0.7377 -0.2425 -2.9962
14862TIP3   OH266000   6.538   6.775   4.367  0.0098  0.6696 -0.1497
14862TIP3    H166001   6.476   6.720   4.416  0.7964  0.4901  0.6637
14862TIP3    H266002   6.609   6.715   4.344  0.5015  1.1725  0.0588
14863TIP3   OH266003   0.521   0.692  13.591 -0.2523 -0.0571  0.0453
14863TIP3    H166004   0.561   0.776  13.612  0.3410 -0.1301 -0.7376
14863TIP3    H266005   0.487   0.660  13.674  0.2841  0.5583  0.5102
14864TIP3   OH266006   4.063   5.546  13.798  0.3705 -0.3416  0.2038
14864TIP3    H166007   4.014   5.576  13.875 -2.1321  0.9905 -1.7268
14864TIP3    H266008   4.062   5.622  13.739  2.5255 -1.1980 -1.0422
14865TIP3   OH266009   5.784   3.265   0.160  0.2509  0.4417  0.3943
14865TIP3    H166010   5.797   3.180   0.117 -0.9311  0.9781 -1.0934
14865TIP3    H266011   5.872   3.294   0.183  0.8050 -0.4646 -0.5034
14866TIP3   OH266012   5.355   4.617  15.441 -0.1957  0.1228 -0.0809
14866TIP3    H166013   5.410   4.603  15.518  1.1917  0.0517 -1.0426
14866TIP3    H266014   5.331   4.710  15.445 -0.8139 -0.0694  0.8545
14867TIP3   OH266015   6.542   0.713  13.358  0.0993 -0.0915 -0.2047
14867TIP3    H166016   6.524   0.743  13.269 -1.7996  1.9902  0.7809
14867TIP3    H266017   6.585   0.788  13.399 -0.7173 -0.3291  1.1218
14868TIP3   OH266018   6.069   5.930   0.395 -0.3387 -0.4757  0.0999
14868TIP3    H166019   5.974   5.941   0.395 -0.1472  1.7907  0.7846
14868TIP3    H266020   6.098   5.964   0.311 -0.1780 -2.1510 -0.5549
14869TIP3   OH266021   2.956   5.474   3.873 -0.4913  0.8284 -0.5071
14869TIP3    H166022   2.912   5.456   3.790 -2.5494 -0.7728  0.8204
14869TIP3    H266023   2.928   5.562   3.897 -0.4770  1.0119 -1.1407
14870TIP3   OH266024   6.276   3.600   6.396  0.2086  0.1065 -0.5462
14870TIP3    H166025   6.236   3.640   6.474  1.2228 -0.4768  0.2976
14870TIP3    H266026   6.246   3.656   6.323 -0.9680  0.5155  0.2077
14871TIP3   OH266027   3.190   0.816   1.348 -0.5826 -0.1675  0.5479
14871TIP3    H166028   3.266   0.819   1.406  0.1024  1.1542 -0.3684
14871TIP3    H266029   3.212   0.750   1.282  0.2046  0.8639 -0.2513
14872TIP3   OH266030   4.558   6.341  15.777 -0.7842 -0.2818  0.3810
14872TIP3    H166031   4.624   6.397  15.738  1.3673 -1.2258  2.3884
14872TIP3    H266032   4.570   6.255  15.736 -2.7304  0.1432 -1.2481
14873TIP3   OH266033   0.234   3.518   6.435  0.0017  0.2371  0.7877
14873TIP3    H166034   0.245   3.524   6.530  1.4846 -0.3655  0.6725
14873TIP3    H266035   0.218   3.608   6.407  1.1328  0.6522  1.4307
14874TIP3   OH266036   5.885   6.304   6.423  1.2115  0.0479  0.2878
14874TIP3    H166037   5.980   6.292   6.428  1.1923 -0.1725  0.1581
14874TIP3    H266038   5.856   6.302   6.514  1.3704  0.4487  0.3470
14875TIP3   OH266039   1.866   3.404  13.626  0.2854 -0.2221 -0.3620
14875TIP3    H166040   1.940   3.414  13.687 -0.2923  1.0504  0.1577
14875TIP3    H266041   1.907   3.404  13.539  0.9438  0.1197 -0.0626
14876TIP3   OH266042   4.501   5.294   2.819  0.0653  0.0576  0.7381
14876TIP3    H166043   4.432   5.277   2.756 -0.5388 -2.8631  2.0174
14876TIP3    H266044   4.537   5.379   2.793 -0.3245 -0.8284 -3.2611
14877TIP3   OH266045   4.681   3.240  11.526  0.5283  0.1354  0.3606
14877TIP3    H166046   4.591   3.244  11.559 -0.2755 -0.8138 -1.5969
14877TIP3    H266047   4.735   3.236  11.605 -1.1736  0.1529  1.5715
14878TIP3   OH266048   0.399   5.743  13.487  0.4095  0.2366 -0.0614
14878TIP3    H166049   0.323   5.704  13.531 -0.1274  0.4984 -0.7352
14878TIP3    H266050   0.464   5.674  13.486 -0.3556 -0.4977 -0.8038
14879TIP3   OH266051   3.075   1.077  16.663  0.2015  0.2276  0.2048
14879TIP3    H166052   3.143   1.141  16.642  0.3545 -0.0889 -0.2887
14879TIP3    H266053   3.021   1.072  16.584  0.4148 -0.5267  0.0939
14880TIP3   OH266054   3.606   1.139   0.319 -0.1845 -0.1837  0.3450
14880TIP3    H166055   3.542   1.166   0.385  0.5921  1.5216  0.4489
14880TIP3    H266056   3.554   1.090   0.255 -2.0545  2.7884 -0.6050
14881TIP3   OH266057   2.812   1.875  17.005 -0.8206  0.0776  0.2508
14881TIP3    H166058   2.732   1.842  16.962 -0.1222 -0.4868 -0.6550
14881TIP3    H266059   2.844   1.943  16.946  0.4880 -1.1290 -0.4856
14882TIP3   OH266060   6.089   1.677   2.533  0.4076  0.3150 -0.3559
14882TIP3    H166061   6.134   1.592   2.538 -0.2108  0.0469  1.2919
14882TIP3    H266062   6.045   1.686   2.617  0.3582  2.2354 -0.5345
14883TIP3   OH266063   3.749   6.338  12.209  0.2669  0.3210 -0.3851
14883TIP3    H166064   3.661   6.365  12.235  0.3041 -0.3186  0.4709
14883TIP3    H266065   3.736   6.283  12.132  0.0172  1.0258 -0.8611
14884TIP3   OH266066   0.925   4.041   2.030  0.5493  0.2901  0.1844
14884TIP3    H166067   1.019   4.040   2.047  0.3225  0.2675  1.5343
14884TIP3    H266068   0.907   3.955   1.993  1.2252  0.7025 -1.1806
14885TIP3   OH266069   3.556   2.496  11.436 -0.5654  0.0199  0.1223
14885TIP3    H166070   3.635   2.448  11.460 -1.1193 -0.0907  1.8390
14885TIP3    H266071   3.553   2.569  11.498 -2.3403 -0.5645  0.7840
14886TIP3   OH266072   0.855   0.844   0.383  0.3747  0.8237  0.2068
14886TIP3    H166073   0.939   0.803   0.403 -0.3236 -1.0408 -0.4970
14886TIP3    H266074   0.857   0.860   0.289 -0.2506  0.2455  0.0827
14887TIP3   OH266075   3.432   5.807  11.111  0.2595  0.3411  0.2344
14887TIP3    H166076   3.433   5.892  11.067  1.8150 -0.1861 -0.8153
14887TIP3    H266077   3.361   5.815  11.175 -2.3717  1.0627 -2.5120
14888TIP3   OH266078   1.166   6.493  13.615  0.4228  0.4198  0.5616
14888TIP3    H166079   1.235   6.555  13.592  0.6038  0.4333  1.1337
14888TIP3    H266080   1.211   6.422  13.659  0.1476  0.1257  0.3747
14889TIP3   OH266081   2.336   0.061   1.395 -0.5262 -0.3156  0.2938
14889TIP3    H166082   2.309  -0.031   1.398  0.3182 -0.6418 -1.0333
14889TIP3    H266083   2.294   0.096   1.316 -1.4118  0.6535  1.1620
14890TIP3   OH266084   5.839   3.030   5.626 -0.4449  0.5383 -0.1185
14890TIP3    H166085   5.893   3.109   5.627  1.1751 -0.4493 -1.8107
14890TIP3    H266086   5.778   3.044   5.553 -0.1288  0.2318 -0.4462
14891TIP3   OH266087   1.986   0.190   5.408  0.1717 -0.0463 -0.4761
14891TIP3    H166088   1.959   0.234   5.328 -0.3377  1.3231  0.4022
14891TIP3    H266089   1.940   0.106   5.406  1.0562 -0.5256 -2.1261
14892TIP3   OH266090   3.204   4.476   1.595  0.7093 -0.2233  0.1796
14892TIP3    H166091   3.192   4.439   1.507  0.5998  2.2142 -0.9207
14892TIP3    H266092   3.125   4.528   1.610  1.0626 -0.0136  1.4085
14893TIP3   OH266093   5.996   1.654  12.422  0.0498  0.3334 -0.4961
14893TIP3    H166094   6.051   1.598  12.367  1.1845  2.2794 -1.4485
14893TIP3    H266095   6.053   1.676  12.496  0.0714  1.1957 -0.7595
14894TIP3   OH266096   0.305   2.584   1.578 -0.2798  0.3980  0.3292
14894TIP3    H166097   0.325   2.532   1.655  0.7761 -0.8637 -0.7366
14894TIP3    H266098   0.349   2.538   1.506 -2.2487  0.8103 -1.2332
14895TIP3   OH266099   2.291   1.404   1.987 -0.5955 -0.3096 -0.0354
14895TIP3    H166100   2.376   1.378   1.950  0.8349 -1.1268  3.3884
14895TIP3    H266101   2.291   1.499   1.982  0.8392 -0.2527  0.4102
14896TIP3   OH266102   2.655   0.793  16.344 -0.1098  0.1097  0.3920
14896TIP3    H166103   2.657   0.720  16.282 -0.3738  1.5275 -1.3999
14896TIP3    H266104   2.679   0.869  16.291  0.1571  1.3347  2.1837
14897TIP3   OH266105   0.743   0.932  15.945 -0.4187  0.1836  0.3158
14897TIP3    H166106   0.731   0.989  15.868 -2.0067 -0.3852  0.0982
14897TIP3    H266107   0.722   0.845  15.913  1.2539 -0.4420  0.8392
14898TIP3   OH266108   3.400   4.723  14.801  0.1004 -0.4173  0.3938
14898TIP3    H166109   3.441   4.809  14.786  0.8045 -0.8556 -0.2650
14898TIP3    H266110   3.453   4.662  14.750 -0.4641 -1.2351  0.7647
14899TIP3   OH266111   6.249   0.370   5.892  0.4875 -0.1467 -0.3509
14899TIP3    H166112   6.212   0.318   5.963  3.0513  0.9981  2.0359
14899TIP3    H266113   6.289   0.307   5.833 -0.2676 -1.0591  0.0963
14900TIP3   OH266114   1.518   3.106  12.368 -0.6878  0.0594  0.1912
14900TIP3    H166115   1.580   3.114  12.296  0.9696  2.1153  1.7172
14900TIP3    H266116   1.433   3.097  12.326  0.3943 -0.7139 -1.9811
14901TIP3   OH266117   5.082   4.780   4.941 -0.5079  0.5747  0.3949
14901TIP3    H166118   5.028   4.740   5.010  0.6572 -1.4463  0.2174
14901TIP3    H266119   5.157   4.816   4.988 -1.0358  1.6318  0.4416
14902TIP3   OH266120   5.847   1.452  11.323 -0.4151 -0.0040 -0.0402
14902TIP3    H166121   5.857   1.379  11.384 -0.3891 -0.3075 -0.4059
14902TIP3    H266122   5.813   1.524  11.377 -0.5399 -0.3154  0.2995
14903TIP3   OH266123   4.152   4.409  12.825 -0.0868  0.4067  0.1915
14903TIP3    H166124   4.216   4.455  12.880  1.2765 -0.8480 -0.3018
14903TIP3    H266125   4.074   4.402  12.881  1.3004 -0.9655  2.0828
14904TIP3   OH266126   4.720   0.880   3.436 -0.2197  0.6568  0.2243
14904TIP3    H166127   4.717   0.786   3.418 -1.0161  0.6979  0.0825
14904TIP3    H266128   4.794   0.891   3.496  0.4401  0.0640 -0.4549
14905TIP3   OH266129   5.148   5.521   4.823  0.2849 -0.3370  0.4866
14905TIP3    H166130   5.234   5.487   4.796 -0.3935 -1.6515 -0.1078
14905TIP3    H266131   5.166   5.568   4.905  1.4796 -1.0596  0.6661
14906TIP3   OH266132   5.483   5.053  12.465  0.1837  0.2149  0.4828
14906TIP3    H166133   5.522   5.058  12.378 -1.6342 -1.5507 -0.5111
14906TIP3    H266134   5.526   5.123  12.514  1.4035  1.1481 -1.7503
14907TIP3   OH266135   5.993   4.884  16.934  0.6997  0.3129  0.1650
14907TIP3    H166136   6.081   4.875  16.970  0.7125 -1.2592 -0.1913
14907TIP3    H266137   5.941   4.817  16.977  0.1830 -0.1596 -1.1239
14908TIP3   OH266138   3.286   1.757  14.242 -0.0750 -0.5191  0.1437
14908TIP3    H166139   3.207   1.805  14.217 -1.6098 -1.7940  2.1920
14908TIP3    H266140   3.307   1.704  14.166 -0.7230  0.4167 -0.7090
14909TIP3   OH266141   5.505   3.009   1.674 -0.4339  0.0238 -0.6394
14909TIP3    H166142   5.496   3.057   1.757 -2.4646 -1.1144 -0.1368
14909TIP3    H266143   5.487   3.075   1.607  3.6732  1.6046 -0.4662
14910TIP3   OH266144   6.035   4.417   4.972  0.3430  0.2807 -0.0389
14910TIP3    H166145   6.061   4.356   4.903 -1.7185  2.2329 -2.7530
14910TIP3    H266146   5.940   4.408   4.978  0.2787  1.4603  1.2699
14911TIP3   OH266147   3.457   4.715   5.043  0.2357  0.2870  0.2897
14911TIP3    H166148   3.507   4.658   4.983 -0.9049 -0.0733 -0.3574
14911TIP3    H266149   3.409   4.653   5.099 -1.1385  0.5892 -0.5236
14912TIP3   OH266150   4.859   1.200  16.367 -0.2138 -0.6996 -0.3963
14912TIP3    H166151   4.768   1.195  16.339 -0.1777 -1.8182 -0.3448
14912TIP3    H266152   4.857   1.190  16.462 -0.0635 -0.3470 -0.3548
14913TIP3   OH266153   1.854   3.979   1.767  0.3388 -0.2802 -0.4125
14913TIP3    H166154   1.876   3.898   1.813  1.7911  0.8997  1.0713
14913TIP3    H266155   1.878   3.962   1.676  2.3339 -0.9352  0.1869
14914TIP3   OH266156   2.768   6.724   3.147 -0.1783 -0.3438 -0.2952
14914TIP3    H166157   2.686   6.733   3.097 -0.2633 -0.2010 -0.1307
14914TIP3    H266158   2.749   6.764   3.231 -0.7161 -2.4521  0.6449
14915TIP3   OH266159   5.382   5.852   4.621  0.6456  0.6724  0.0235
14915TIP3    H166160   5.417   5.764   4.627 -0.3210  0.3324  1.4677
14915TIP3    H266161   5.405   5.883   4.534  2.2179 -0.4715  0.0114
14916TIP3   OH266162   1.070   4.905  16.988 -0.4313  0.0949  0.4695
14916TIP3    H166163   1.131   4.832  16.995 -0.9267 -0.2542  1.5194
14916TIP3    H266164   1.124   4.980  16.967  0.0147 -0.6704 -1.3281
14917TIP3   OH266165   1.942   3.485   0.944  0.4685  0.2198 -0.2314
14917TIP3    H166166   1.974   3.472   1.034  2.1174  0.2401 -0.7807
14917TIP3    H266167   1.862   3.536   0.954  0.1980 -0.4375  1.2738
14918TIP3   OH266168   1.021   3.305  12.740  0.6205  0.0676  0.4647
14918TIP3    H166169   1.095   3.336  12.791  0.5999  0.8597  0.0269
14918TIP3    H266170   1.021   3.210  12.753  1.8831  0.0228  0.2472
14919TIP3   OH266171   5.818   0.344   6.568  0.2612  0.3819 -0.1427
14919TIP3    H166172   5.866   0.285   6.626  0.0419 -0.1918 -0.5310
14919TIP3    H266173   5.765   0.286   6.513  0.3026  0.9227 -0.7688
14920TIP3   OH266174   6.762   2.693  16.663 -0.2053 -0.1323 -0.9839
14920TIP3    H166175   6.703   2.703  16.738  0.6597 -0.6151 -0.2168
14920TIP3    H266176   6.848   2.677  16.702  0.0607 -1.6414 -2.0846
14921TIP3   OH266177   2.401   1.044   5.987 -0.1088  0.0577 -0.6233
14921TIP3    H166178   2.454   0.966   6.003  0.2878  0.6203  1.0220
14921TIP3    H266179   2.463   1.110   5.956  0.4974  1.0956  2.4856
14922TIP3   OH266180   4.186   4.458   4.551 -0.2295  0.4366  0.0467
14922TIP3    H166181   4.270   4.451   4.597  0.4490 -0.4334 -1.2963
14922TIP3    H266182   4.126   4.406   4.604  0.6058 -0.7825 -0.1574
14923TIP3   OH266183   5.308   0.352   0.600  0.2986  0.2573  0.4037
14923TIP3    H166184   5.318   0.262   0.571  0.5589  0.2130  0.6223
14923TIP3    H266185   5.388   0.370   0.650 -0.2280  0.2597  1.2685
14924TIP3   OH266186   5.995   3.166   3.274  0.3433 -0.0708  0.0824
14924TIP3    H166187   6.023   3.257   3.267  0.5426 -0.1236  0.1920
14924TIP3    H266188   6.076   3.115   3.267 -0.0284 -0.4332 -3.2669
14925TIP3   OH266189   4.574   1.468   0.635  0.1401 -0.4245  0.5984
14925TIP3    H166190   4.609   1.501   0.717 -0.9058 -0.8387  1.2336
14925TIP3    H266191   4.633   1.397   0.609  1.4994  0.8732  0.0386
14926TIP3   OH266192   2.749   5.430   0.710  0.1349 -0.0519 -0.4282
14926TIP3    H166193   2.702   5.431   0.626  0.0381  0.5605 -0.3758
14926TIP3    H266194   2.696   5.374   0.766 -0.6119  0.7058 -0.3394
14927TIP3   OH266195   4.574   0.781   0.670 -0.5137  0.3257  0.8617
14927TIP3    H166196   4.580   0.695   0.713  1.4368  0.3644  0.7687
14927TIP3    H266197   4.590   0.762   0.578  1.0223  0.8722  0.9843
14928TIP3   OH266198   1.965   4.132   2.642  0.6441 -0.4596 -0.3592
14928TIP3    H166199   2.006   4.188   2.708 -0.5940 -0.5350  0.4856
14928TIP3    H266200   1.988   4.174   2.559  1.0056  0.4549  0.1837
14929TIP3   OH266201   1.926   3.402   0.279  0.2627 -0.2393 -0.3654
14929TIP3    H166202   1.998   3.342   0.296 -0.1129 -0.2892  1.1985
14929TIP3    H266203   1.854   3.346   0.251  0.3695 -0.3587 -0.3981
14930TIP3   OH266204   1.924   2.916   1.974  0.1405  0.0608  0.2133
14930TIP3    H166205   1.914   3.005   1.940  0.5884  0.3849  0.9093
14930TIP3    H266206   1.881   2.860   1.909 -0.7926  0.8454  0.1365
14931TIP3   OH266207   0.105   2.233  15.535 -0.2148 -0.8692  0.1857
14931TIP3    H166208   0.134   2.276  15.615  1.7260  0.7676 -1.2993
14931TIP3    H266209   0.009   2.231  15.542 -0.2306  1.4234  1.5057
14932TIP3   OH266210   1.079   0.929   2.293 -0.2607 -0.1573  0.1911
14932TIP3    H166211   1.153   0.894   2.343 -0.6313 -0.6793  0.3965
14932TIP3    H266212   1.012   0.861   2.301 -1.5072  1.1626  1.7297
14933TIP3   OH266213   2.365   0.854  16.770  0.2970 -0.1921  0.0889
14933TIP3    H166214   2.403   0.796  16.704 -0.3699 -0.9778  0.3779
14933TIP3    H266215   2.297   0.901  16.723  2.1195  1.8717 -0.6587
14934TIP3   OH266216   2.264   2.513  14.969 -0.3323 -0.1352 -0.0533
14934TIP3    H166217   2.221   2.479  15.047 -1.1713  0.9182 -0.0396
14934TIP3    H266218   2.341   2.560  15.002 -1.5716  1.7363  0.3340
14935TIP3   OH266219   1.106   2.268  11.654 -0.3227  0.6401  0.1491
14935TIP3    H166220   1.070   2.280  11.566  0.4264  1.8741 -0.0124
14935TIP3    H266221   1.139   2.178  11.654 -3.0549 -0.4464  0.2099
14936TIP3   OH266222   3.532   1.533  13.767 -0.2381  0.4035  0.0609
14936TIP3    H166223   3.613   1.506  13.810 -0.9823  0.6003  1.6790
14936TIP3    H266224   3.480   1.572  13.837 -2.5971 -1.5971 -0.4270
14937TIP3   OH266225   3.252   0.966   0.113  0.1057 -0.0861 -0.1202
14937TIP3    H166226   3.335   0.922   0.133  0.1145  0.4940  1.2179
14937TIP3    H266227   3.190   0.895   0.099  0.1855 -0.5757  1.7298
14938TIP3   OH266228   3.794   6.621   5.760  0.7163  0.2399 -0.3380
14938TIP3    H166229   3.767   6.712   5.755  1.1111  0.3709 -0.1703
14938TIP3    H266230   3.813   6.606   5.853  0.9817  0.0898 -0.4127
14939TIP3   OH266231   1.725   1.603   6.102  0.3400 -0.0486  0.4428
14939TIP3    H166232   1.674   1.617   6.182  0.2130  0.4754  0.2732
14939TIP3    H266233   1.816   1.614   6.130  0.3160 -0.1944  0.5824
14940TIP3   OH266234   6.584   4.710  14.067  0.5764 -0.0290 -0.4602
14940TIP3    H166235   6.654   4.676  14.124 -0.9573 -3.7107 -0.4977
14940TIP3    H266236   6.509   4.722  14.125  0.3337  0.9501 -0.9451
14941TIP3   OH266237   0.676   5.300  12.282 -0.2387  0.1826 -0.0629
14941TIP3    H166238   0.738   5.333  12.217  0.6505  0.4411  0.8808
14941TIP3    H266239   0.716   5.219  12.314  0.7174  1.3729  2.0112
14942TIP3   OH266240   6.136   6.241   6.387  0.4076  0.4950 -0.1235
14942TIP3    H166241   6.198   6.255   6.459 -0.0095 -3.8834  1.3477
14942TIP3    H266242   6.188   6.199   6.319 -0.4662 -1.3225  0.2970
14943TIP3   OH266243   0.273   3.243  15.842  0.0008  0.3813  0.0462
14943TIP3    H166244   0.275   3.171  15.778  0.7517  0.9122 -0.5551
14943TIP3    H266245   0.289   3.322  15.790 -0.9790  1.0109  0.6726
14944TIP3   OH266246   2.129   5.680  14.315  0.2571 -0.0827 -0.3561
14944TIP3    H166247   2.188   5.606  14.326  0.8209  0.5240  0.8427
14944TIP3    H266248   2.183   5.757  14.330 -0.4074  0.5710 -1.1973
14945TIP3   OH266249   0.030   4.180  12.302  0.7456  0.2811  0.5463
14945TIP3    H166250  -0.065   4.177  12.308  0.8403  0.1014  2.8288
14945TIP3    H266251   0.051   4.120  12.230 -0.8115 -0.9791  1.0688
14946TIP3   OH266252   3.998   1.337   3.083  0.1231  0.5731 -0.2248
14946TIP3    H166253   3.921   1.316   3.137  0.5568  0.9140  0.5336
14946TIP3    H266254   4.006   1.262   3.024 -0.3053  0.1462  0.2432
14947TIP3   OH266255   0.572   6.332   2.251  0.0981  0.3663  0.5039
14947TIP3    H166256   0.552   6.282   2.172 -0.8040  1.5691 -0.0586
14947TIP3    H266257   0.506   6.401   2.253  1.7320  2.0001  0.8463
14948TIP3   OH266258   2.757   3.305  14.281 -0.3164  0.4294 -0.5036
14948TIP3    H166259   2.716   3.257  14.352  0.9444 -0.7933 -0.5600
14948TIP3    H266260   2.787   3.237  14.220  1.3687  1.2814 -0.6664
14949TIP3   OH266261   4.432   6.770  11.935 -0.7535 -0.0230  0.2066
14949TIP3    H166262   4.381   6.689  11.926  0.9511 -1.0802 -0.5195
14949TIP3    H266263   4.385   6.834  11.881 -0.6510 -1.3170 -1.5107
14950TIP3   OH266264   2.399   0.084  14.582  0.2341 -0.3557 -0.1691
14950TIP3    H166265   2.370   0.144  14.513  2.3715  0.9367 -0.0202
14950TIP3    H266266   2.492   0.102  14.592  0.7062 -2.8750  0.7594
14951TIP3   OH266267   2.129   0.270   0.825 -0.2426 -0.6574 -0.1321
14951TIP3    H166268   2.119   0.318   0.907  0.2554 -1.5141  0.4398
14951TIP3    H266269   2.217   0.233   0.830  0.5654  0.8156 -1.8804
14952TIP3   OH266270   0.044   4.536  14.694 -0.5298 -0.2493 -0.1654
14952TIP3    H166271   0.069   4.457  14.644  0.8051 -0.2972  0.5106
14952TIP3    H266272   0.051   4.508  14.786  0.7038  0.8414  0.0978
14953TIP3   OH266273   4.004   6.628  14.395 -0.0913 -0.2779  0.1371
14953TIP3    H166274   4.087   6.630  14.443  0.2759  1.8990 -0.4727
14953TIP3    H266275   4.018   6.565  14.325  0.4424 -1.1840  1.0422
14954TIP3   OH266276   2.147   3.244   3.921  0.0746 -0.0406  0.6086
14954TIP3    H166277   2.196   3.294   3.986 -0.8993 -0.3123  1.5838
14954TIP3    H266278   2.059   3.282   3.923  0.4795  1.2923 -2.0115
14955TIP3   OH266279   6.490   5.913  16.019  0.5679 -0.2627  0.1444
14955TIP3    H166280   6.571   5.915  15.967  0.5705  0.3811  0.1646
14955TIP3    H266281   6.462   5.822  16.016  0.5830 -0.2479 -0.9825
14956TIP3   OH266282   0.634   5.899  14.643 -0.1423  0.3158  0.0752
14956TIP3    H166283   0.573   5.967  14.671 -0.4783  0.2791 -0.5639
14956TIP3    H266284   0.699   5.894  14.714  0.0672  1.5197 -0.0228
14957TIP3   OH266285   3.307   5.269  17.161 -0.4875 -0.0231  0.1603
14957TIP3    H166286   3.369   5.262  17.233 -0.6999 -2.5496  0.2064
14957TIP3    H266287   3.335   5.345  17.112  1.6021 -0.1009  1.1372
14958TIP3   OH266288   0.418   2.342  14.836 -0.2988  0.5295  0.0158
14958TIP3    H166289   0.502   2.367  14.797 -0.4033  2.1393  0.7150
14958TIP3    H266290   0.365   2.422  14.831 -1.0985  0.1228  1.3371
14959TIP3   OH266291   1.852   4.170   0.882  0.0639  0.3821 -0.1118
14959TIP3    H166292   1.807   4.168   0.798  0.3621 -1.3947 -0.2688
14959TIP3    H266293   1.938   4.133   0.864  0.6852  1.3866  0.6960
14960TIP3   OH266294   0.806   3.386   4.891  0.1313 -0.0880  0.2529
14960TIP3    H166295   0.888   3.350   4.860  0.2385 -0.5680  1.0607
14960TIP3    H266296   0.738   3.340   4.842  0.3371  0.9041 -1.0359
14961TIP3   OH266297   5.079   2.374  15.534  0.0824 -0.5197  0.3717
14961TIP3    H166298   5.165   2.415  15.543 -0.9494  1.6343  0.8690
14961TIP3    H266299   5.069   2.322  15.614  0.7025 -0.3570  0.5557
14962TIP3   OH266300   3.379   1.781  12.482 -0.3579 -0.1569 -0.3765
14962TIP3    H166301   3.437   1.837  12.534  0.1294 -0.9383 -0.0677
14962TIP3    H266302   3.413   1.789  12.392  0.1021 -0.4392 -0.2326
14963TIP3   OH266303   0.167   5.895  16.158 -0.4637  0.2325 -0.0496
14963TIP3    H166304   0.244   5.939  16.193 -0.4510 -0.4387  0.7906
14963TIP3    H266305   0.200   5.845  16.083 -0.3101  0.8738 -0.4231
14964TIP3   OH266306   4.006   0.345   4.341  0.5017 -0.2061  0.3641
14964TIP3    H166307   4.073   0.306   4.284  0.3467 -0.9071  0.6484
14964TIP3    H266308   3.941   0.380   4.280  0.3287 -0.9676  0.1039
14965TIP3   OH266309   6.134   0.171   3.211  0.0171 -0.3821 -0.0500
14965TIP3    H166310   6.044   0.181   3.242 -0.0752 -1.0203 -0.0891
14965TIP3    H266311   6.148   0.076   3.209  0.0545 -0.3725 -1.8499
14966TIP3   OH266312   3.662   2.145  12.434 -0.2543  0.4945  0.1407
14966TIP3    H166313   3.641   2.235  12.461  1.4625  0.4106  1.9738
14966TIP3    H266314   3.607   2.090  12.490  0.3087  0.3818  0.5897
14967TIP3   OH266315   0.117   5.553  11.259 -0.2756 -0.0080  0.3892
14967TIP3    H166316   0.061   5.593  11.191  0.3394 -1.6177 -1.1487
14967TIP3    H266317   0.057   5.503  11.313 -0.4393 -1.4637 -1.0592
14968TIP3   OH266318   2.985   5.651  11.342 -0.2947  0.4219 -0.3277
14968TIP3    H166319   2.946   5.614  11.422 -0.3092  1.3029  0.0903
14968TIP3    H266320   2.949   5.598  11.271 -1.7165  0.7449  0.1010
14969TIP3   OH266321   2.375   3.245   4.140  0.1514  0.4397 -0.2652
14969TIP3    H166322   2.400   3.153   4.137 -0.9704  0.1183 -3.0037
14969TIP3    H266323   2.424   3.286   4.069  0.9635  2.1165  1.1753
14970TIP3   OH266324   6.058   2.713  15.832  0.5632 -0.6199  0.3669
14970TIP3    H166325   6.037   2.634  15.881  0.8589 -0.7437  0.2991
14970TIP3    H266326   5.974   2.757  15.820  0.0859 -1.8532 -1.2109
14971TIP3   OH266327   0.908   5.254   5.010 -0.0645 -0.6170 -0.1683
14971TIP3    H166328   0.989   5.303   4.996  0.1619 -1.2792 -1.3501
14971TIP3    H266329   0.855   5.274   4.933  0.3007 -2.7102 -1.0132
14972TIP3   OH266330   0.419   1.447  14.342 -0.3130 -0.6356  0.4432
14972TIP3    H166331   0.332   1.427  14.307  0.1217 -0.0787 -1.0419
14972TIP3    H266332   0.480   1.413  14.276  0.5059  1.7984 -0.1465
14973TIP3   OH266333   4.150   4.726  14.075 -0.1734 -0.2749 -0.4662
14973TIP3    H166334   4.083   4.709  14.009  0.4521  1.5198 -1.6443
14973TIP3    H266335   4.104   4.774  14.144 -0.1988  0.7260 -1.1522
14974TIP3   OH266336   1.546   4.535  11.721  0.3546  0.2535  0.1728
14974TIP3    H166337   1.627   4.527  11.671  0.0407 -0.5302 -0.2277
14974TIP3    H266338   1.490   4.589  11.666 -1.4435 -3.6975 -2.3584
14975TIP3   OH266339   5.074   5.260   0.506 -0.6866  0.4967 -0.2402
14975TIP3    H166340   5.109   5.236   0.592 -0.7062  1.4031  0.0384
14975TIP3    H266341   5.118   5.342   0.485 -0.7732  0.3442 -1.0451
14976TIP3   OH266342   3.726   5.512  12.834  0.0061 -0.0382  0.2611
14976TIP3    H166343   3.779   5.433  12.844  1.0716  0.5977 -0.1843
14976TIP3    H266344   3.758   5.552  12.754 -0.6997  0.7149  0.3439
14977TIP3   OH266345   4.076   4.990   6.491  0.1637 -0.1306 -0.0848
14977TIP3    H166346   4.131   4.932   6.439  1.0435  0.2038  0.4545
14977TIP3    H266347   4.033   5.047   6.427  0.9510  0.0346 -0.4778
14978TIP3   OH266348   0.524   6.779  16.715 -0.5483  0.3074  0.1007
14978TIP3    H166349   0.459   6.831  16.669 -1.1578 -0.2661  0.2911
14978TIP3    H266350   0.572   6.734  16.645 -0.7627  0.2661 -0.0221
14979TIP3   OH266351   1.033   1.512   2.815  0.2734  0.9215 -0.0226
14979TIP3    H166352   0.958   1.567   2.793 -0.2600 -0.2112 -1.1919
14979TIP3    H266353   1.014   1.428   2.773  2.1417  0.5683 -0.2556
14980TIP3   OH266354   6.449   4.497   2.648 -0.4382  0.7552  0.7210
14980TIP3    H166355   6.446   4.428   2.714  0.2319 -0.4624 -0.4855
14980TIP3    H266356   6.524   4.551   2.673  0.8365 -0.6567  0.0792
14981TIP3   OH266357   3.697   4.326  15.777 -0.4048 -0.3929 -0.5530
14981TIP3    H166358   3.726   4.373  15.855  1.4133 -1.8377 -0.3050
14981TIP3    H266359   3.740   4.370  15.704 -1.6913  0.6262 -0.7409
14982TIP3   OH266360   0.270   0.531   2.699  0.1332  0.2285  0.1787
14982TIP3    H166361   0.348   0.494   2.657 -0.0168  0.1794 -0.0594
14982TIP3    H266362   0.254   0.474   2.774  0.0451 -0.0484 -0.0464
14983TIP3   OH266363   2.449   2.084   1.217  0.1852  0.4057  0.2753
14983TIP3    H166364   2.440   2.159   1.276  0.3534  0.3259  0.4020
14983TIP3    H266365   2.438   2.008   1.274 -2.9243  0.3197 -0.2807
14984TIP3   OH266366   1.106   0.722   0.388 -0.6119 -0.4441  0.4582
14984TIP3    H166367   1.125   0.653   0.451  0.1958 -0.4632  0.2136
14984TIP3    H266368   1.154   0.695   0.309  0.4924  0.8438  0.6479
14985TIP3   OH266369   2.002   4.158  14.254  0.7834  0.4081 -0.2560
14985TIP3    H166370   2.013   4.072  14.214  0.0397  0.1390  0.0967
14985TIP3    H266371   1.918   4.190  14.221 -0.9219 -0.7112  2.5905
14986TIP3   OH266372   4.165   2.493   0.964  0.1112 -0.2299  0.5114
14986TIP3    H166373   4.149   2.492   1.058  2.4515 -0.7838  0.9563
14986TIP3    H266374   4.159   2.401   0.937  1.7941 -0.4065  0.6176
14987TIP3   OH266375   5.749   2.268   5.794  0.8138 -0.6463  0.5295
14987TIP3    H166376   5.703   2.348   5.768 -1.5083 -0.6388  4.0393
14987TIP3    H266377   5.831   2.298   5.832  0.3595 -0.0018  1.0152
14988TIP3   OH266378   4.072   6.031  13.789 -0.0733  0.7732 -0.1951
14988TIP3    H166379   4.148   6.000  13.740  0.5971  0.9535  0.6959
14988TIP3    H266380   4.066   6.124  13.768 -1.4541  0.3137 -2.0522
14989TIP3   OH266381   5.832   4.285  14.878  0.0386  0.8357  0.7825
14989TIP3    H166382   5.897   4.355  14.885 -0.9407  1.8929 -0.3019
14989TIP3    H266383   5.858   4.236  14.800 -0.0474  0.8077  0.7711
14990TIP3   OH266384   5.294   1.153  12.074 -0.0720  0.2780  0.2894
14990TIP3    H166385   5.239   1.123  12.002 -0.2815 -0.5753  0.7930
14990TIP3    H266386   5.236   1.206  12.128  0.3267  1.7289 -0.6605
14991TIP3   OH266387   2.369   3.232   3.261  0.1696 -0.2417  0.4530
14991TIP3    H166388   2.453   3.270   3.286  1.2590 -0.5191 -2.4598
14991TIP3    H266389   2.375   3.140   3.289  0.8539 -0.2548  0.2853
14992TIP3   OH266390   6.317   0.379   1.369 -0.2764 -0.1505  0.2396
14992TIP3    H166391   6.278   0.436   1.303 -0.2100  0.7795  0.9912
14992TIP3    H266392   6.336   0.297   1.322 -2.1056 -0.2421 -0.3963
14993TIP3   OH266393   5.431   3.703   0.826 -1.1414  0.1331 -0.1931
14993TIP3    H166394   5.426   3.673   0.735 -1.4030  1.2247 -0.5466
14993TIP3    H266395   5.516   3.673   0.856 -0.9691 -0.0657 -0.8518
14994TIP3   OH266396   2.263   1.843   2.464  0.6853  0.2818  0.1081
14994TIP3    H166397   2.317   1.770   2.496 -0.4864 -0.9983 -0.7222
14994TIP3    H266398   2.250   1.824   2.372  1.0689  2.0509 -0.3394
14995TIP3   OH266399   5.734   0.136   4.461 -0.3715  0.4256  0.4098
14995TIP3    H166400   5.823   0.100   4.469 -0.1524  0.8838  0.1187
14995TIP3    H266401   5.745   0.213   4.406 -0.7676  1.1367  1.3023
14996TIP3   OH266402   1.214   1.545   1.109  0.2540 -0.4327 -0.2897
14996TIP3    H166403   1.160   1.494   1.169  2.0228 -0.9109  0.9662
14996TIP3    H266404   1.275   1.482   1.071  0.2055  0.1505 -1.3916
14997TIP3   OH266405   3.836   2.205  15.419  0.4304  0.0771  0.0989
14997TIP3    H166406   3.916   2.240  15.379 -0.3971  0.6426 -1.1269
14997TIP3    H266407   3.769   2.218  15.353 -0.9341  0.6662  1.5370
14998TIP3   OH266408   3.457   5.530   0.965  0.5351  0.1281  0.3750
14998TIP3    H166409   3.407   5.601   1.005 -0.1167  0.9902 -1.8209
14998TIP3    H266410   3.403   5.452   0.978  0.7781  0.1779  1.9116
14999TIP3   OH266411   5.826   6.053   2.295 -0.4132 -0.2078  0.0231
14999TIP3    H166412   5.834   6.002   2.376 -0.4669  0.1772  0.2720
14999TIP3    H266413   5.787   5.992   2.233 -2.8433  0.2288  1.0037
15000TIP3   OH266414   5.890   2.737  14.620  0.6629 -0.5192 -0.1291
15000TIP3    H166415   5.814   2.740  14.563  0.6576  1.2505 -0.0844
15000TIP3    H266416   5.873   2.663  14.679 -0.5044 -0.7993 -0.7855
15001TIP3   OH266417   3.034   4.862  13.159  0.3083  0.2630  0.4670
15001TIP3    H166418   3.046   4.787  13.101 -1.6389 -0.0088  0.3403
15001TIP3    H266419   3.041   4.825  13.247  0.3679  0.1297  0.4074
15002TIP3   OH266420   4.055   3.953   1.539  0.3307  0.2456 -0.4927
15002TIP3    H166421   3.986   4.004   1.498 -1.1684  0.3776  1.9933
15002TIP3    H266422   4.117   4.019   1.571 -0.7321  0.4804  1.2022
15003TIP3   OH266423   4.411   6.067  16.132 -0.1055 -0.5977  0.1614
15003TIP3    H166424   4.505   6.081  16.122 -0.3970  1.3795 -0.1972
15003TIP3    H266425   4.386   6.019  16.053  0.2415  0.9615 -0.9441
15004TIP3   OH266426   3.059   5.929  14.813  0.1639 -0.7286 -0.1537
15004TIP3    H166427   3.085   5.971  14.894  0.6913 -0.2808 -0.5446
15004TIP3    H266428   3.055   5.836  14.834  0.1801 -0.6044  0.4092
15005TIP3   OH266429   3.247   0.884  11.495  0.2349  0.3258 -0.1965
15005TIP3    H166430   3.223   0.938  11.420  0.5481 -0.2251 -0.6983
15005TIP3    H266431   3.328   0.923  11.529 -0.2192  0.9247  0.2205
15006TIP3   OH266432   2.625   0.310   2.314  0.1936  0.0059  0.5414
15006TIP3    H166433   2.544   0.292   2.361  0.5163  0.5857  1.3309
15006TIP3    H266434   2.607   0.391   2.265  0.4684  0.4583  1.1696
15007TIP3   OH266435   0.899   2.796  14.917  0.6336 -0.4928  0.0682
15007TIP3    H166436   0.881   2.735  14.845 -2.2392  1.9957 -1.5821
15007TIP3    H266437   0.847   2.764  14.990 -0.7510 -0.1800 -0.7445
15008TIP3   OH266438   1.178   6.591   6.486  0.1786  0.1107 -0.0822
15008TIP3    H166439   1.271   6.571   6.497  0.1579  0.7276  1.4900
15008TIP3    H266440   1.167   6.675   6.531 -1.6679 -1.2937  2.2832
15009TIP3   OH266441   4.761   0.616   2.258 -0.3194  0.7022 -0.1825
15009TIP3    H166442   4.850   0.652   2.265 -0.6323  1.2387  1.4149
15009TIP3    H266443   4.721   0.635   2.342 -0.6182 -3.1434  0.7568
15010TIP3   OH266444   6.111   6.226  12.237 -0.2592  0.1385  0.1791
15010TIP3    H166445   6.169   6.214  12.312  0.3453 -0.1703 -0.3284
15010TIP3    H266446   6.092   6.137  12.207 -0.4730  0.2607 -0.0525
15011TIP3   OH266447   3.294   1.289   3.655 -0.5630 -0.7344  0.7599
15011TIP3    H166448   3.333   1.370   3.623 -0.5203 -1.0801 -0.1145
15011TIP3    H266449   3.335   1.274   3.740  0.5530 -0.6044  0.2711
15012TIP3   OH266450   6.162   3.156  13.678  0.3839 -0.0840 -0.3620
15012TIP3    H166451   6.130   3.084  13.623  2.0829  0.1061 -1.6677
15012TIP3    H266452   6.083   3.206  13.699 -0.6011 -1.3871 -0.8005
15013TIP3   OH266453   4.143   1.066   2.225 -0.2103 -0.0802 -0.0059
15013TIP3    H166454   4.084   1.014   2.280  0.8392 -0.3184  0.9422
15013TIP3    H266455   4.103   1.063   2.138 -0.7221 -1.6324  0.2349
15014TIP3   OH266456   5.712   2.865   3.888  0.7253 -0.1021  0.0974
15014TIP3    H166457   5.799   2.895   3.913 -0.4991  1.6629  2.6664
15014TIP3    H266458   5.713   2.770   3.902  2.0907 -0.0423  0.4838
15015TIP3   OH266459   4.667   2.069  16.847 -0.4446  0.2526  0.0824
15015TIP3    H166460   4.582   2.113  16.838  0.0050  1.6919  2.1804
15015TIP3    H266461   4.694   2.088  16.937  0.4065 -3.2805  0.7261
15016TIP3   OH266462   4.307   3.142   1.011 -0.7026  0.0095  0.1519
15016TIP3    H166463   4.283   3.138   0.918 -0.2229  1.9629 -0.1029
15016TIP3    H266464   4.402   3.154   1.009 -0.5426 -1.0112  0.9523
15017TIP3   OH266465   4.437   6.226  13.482  0.4456 -0.5843  0.0352
15017TIP3    H166466   4.478   6.172  13.415 -0.8997  1.2387 -2.4396
15017TIP3    H266467   4.505   6.289  13.507 -0.1421  1.4637 -2.9359
15018TIP3   OH266468   0.318   0.441   0.997  0.3986  0.3279  0.5539
15018TIP3    H166469   0.236   0.415   0.957  0.1939  2.0746 -0.2939
15018TIP3    H266470   0.373   0.363   0.995 -0.5116 -0.3088 -0.8372
15019TIP3   OH266471   2.242   5.018   3.779 -0.2369 -0.2299  0.3647
15019TIP3    H166472   2.227   4.979   3.692  0.0621 -2.3184  1.1991
15019TIP3    H266473   2.172   5.083   3.788 -0.1702  0.1537 -1.4896
15020TIP3   OH266474   1.245   0.851  16.176  0.4831  1.0673 -0.0900
15020TIP3    H166475   1.323   0.894  16.212  0.5564  0.0951  0.9699
15020TIP3    H266476   1.262   0.847  16.082  1.5026  1.2784  0.0704
15021TIP3   OH266477   1.376   6.468   3.329  0.4899  0.4856  0.7512
15021TIP3    H166478   1.322   6.484   3.252 -1.8574  0.5809  2.3101
15021TIP3    H266479   1.426   6.389   3.307 -1.9154 -0.9396 -0.0420
15022TIP3   OH266480   4.741   0.239   4.816 -0.3639 -0.6603 -0.1106
15022TIP3    H166481   4.755   0.147   4.794  0.4567 -0.6732  0.4082
15022TIP3    H266482   4.819   0.284   4.783  0.7629 -0.6335  2.3452
15023TIP3   OH266483   2.702   3.473   4.598 -0.6717  0.1035  0.2653
15023TIP3    H166484   2.623   3.491   4.548 -0.8540 -1.4355 -0.0603
15023TIP3    H266485   2.679   3.399   4.655  0.4763 -0.2944  0.2549
15024TIP3   OH266486   0.892   1.855   1.728 -0.4460  0.4708  0.6297
15024TIP3    H166487   0.933   1.842   1.642  0.0405  0.9387  0.7812
15024TIP3    H266488   0.848   1.772   1.747  0.1636  0.0610  0.3036
15025TIP3   OH266489   0.470   4.103   3.832 -0.1393  0.5724  0.0136
15025TIP3    H166490   0.549   4.060   3.865 -0.8581  0.2297  1.3587
15025TIP3    H266491   0.461   4.071   3.742  1.3905  0.8485 -0.2729
15026TIP3   OH266492   5.917   5.109   6.558 -0.1000 -0.1293  0.0216
15026TIP3    H166493   5.846   5.160   6.521 -0.6547 -0.0477  1.1660
15026TIP3    H266494   5.906   5.116   6.653  2.2631  1.0668  0.2991
15027TIP3   OH266495   2.150   4.822   0.824  0.3988 -0.1573  0.3737
15027TIP3    H166496   2.230   4.814   0.875  0.6998  0.7680  0.0586
15027TIP3    H266497   2.140   4.736   0.782 -0.6363 -1.4650  3.0607
15028TIP3   OH266498   6.136   0.140  13.236 -0.2366  0.0221 -0.2233
15028TIP3    H166499   6.088   0.175  13.161  0.2775 -0.4921 -0.8196
15028TIP3    H266500   6.109   0.048  13.240 -1.0348  0.2902  0.8710
15029TIP3   OH266501   0.733   1.569  14.247 -0.0238 -0.4357 -0.0524
15029TIP3    H166502   0.736   1.477  14.272  0.6898 -0.2066  0.7168
15029TIP3    H266503   0.822   1.600  14.258 -0.3452  0.4602  0.0892
15030TIP3   OH266504   5.183   2.882  13.087  0.4261 -0.2940  0.3406
15030TIP3    H166505   5.098   2.915  13.057 -0.1767 -0.8789  1.3551
15030TIP3    H266506   5.199   2.930  13.168  0.1025 -1.6113  1.2098
15031TIP3   OH266507   1.213   5.692  13.122 -0.0614  0.3162  0.0870
15031TIP3    H166508   1.204   5.618  13.182 -0.4887  0.5333  0.2904
15031TIP3    H266509   1.213   5.769  13.179  1.3394  0.4413 -0.0305
15032TIP3   OH266510   6.440   4.464  13.503 -0.7709 -0.2479 -0.2367
15032TIP3    H166511   6.479   4.443  13.418 -0.4258 -0.3405 -0.0564
15032TIP3    H266512   6.389   4.386  13.526  0.5743 -0.9590  0.4691
15033TIP3   OH266513   6.434   2.585  10.812 -0.5188 -0.3451  0.1278
15033TIP3    H166514   6.360   2.560  10.756 -1.8591  0.4346  1.4589
15033TIP3    H266515   6.420   2.537  10.893 -0.1705  0.6319  0.7826
15034TIP3   OH266516   4.429   1.028  11.649  0.2232  0.5014  0.7299
15034TIP3    H166517   4.474   1.101  11.608  0.0081  0.2211 -0.0274
15034TIP3    H266518   4.347   1.019  11.599  0.9113 -1.1967 -0.1847
15035TIP3   OH266519   4.678   5.238   1.823  0.4431  0.4940 -0.1477
15035TIP3    H166520   4.657   5.149   1.852  2.0421  0.5540  1.3845
15035TIP3    H266521   4.647   5.242   1.733  1.1382 -1.9507 -0.5772
15036TIP3   OH266522   4.918   3.838   3.810 -0.0425  0.2025 -0.0372
15036TIP3    H166523   4.971   3.759   3.822 -2.5672 -1.8744 -1.5873
15036TIP3    H266524   4.843   3.826   3.868 -0.5405  1.4114 -0.3899
15037TIP3   OH266525   3.882   5.990  15.910 -0.2776 -0.2116  0.2936
15037TIP3    H166526   3.919   6.066  15.865 -1.5824  0.2002 -0.1585
15037TIP3    H266527   3.787   6.004  15.904 -0.5608 -2.1387 -0.2786
15038TIP3   OH266528   4.670   6.065  16.165 -0.3747 -0.1738  0.0080
15038TIP3    H166529   4.742   6.125  16.183  1.4715 -2.8458  2.4510
15038TIP3    H266530   4.702   6.009  16.095 -1.3117  0.4233 -0.9281
15039TIP3   OH266531   3.453   0.793  14.952  0.2095  0.5315 -0.1473
15039TIP3    H166532   3.542   0.786  14.986  1.0220 -1.4039 -2.4019
15039TIP3    H266533   3.437   0.887  14.943  0.9698  1.0109  2.7215
15040TIP3   OH266534   3.800   5.260  12.923  0.5807 -0.2745 -0.7258
15040TIP3    H166535   3.754   5.206  12.858  1.6743  0.4795 -2.1877
15040TIP3    H266536   3.845   5.197  12.979 -0.0717 -0.9402 -0.9410
15041TIP3   OH266537   2.664   5.409  12.629 -0.0721  0.4502 -0.3757
15041TIP3    H166538   2.695   5.349  12.697 -1.4109  0.7982  0.5801
15041TIP3    H266539   2.572   5.387  12.618 -0.5914  2.2808 -0.0233
15042TIP3   OH266540   3.442   0.635   1.577 -0.3075  0.2515 -0.3708
15042TIP3    H166541   3.526   0.645   1.622  0.4299  0.8171 -1.8388
15042TIP3    H266542   3.403   0.722   1.579 -1.2096 -0.1470  0.9079
15043TIP3   OH266543   1.441   4.210   1.087 -0.2793 -0.0495 -0.6957
15043TIP3    H166544   1.455   4.118   1.066  0.1933 -0.1674  0.1109
15043TIP3    H266545   1.367   4.236   1.031 -0.7502 -1.0490 -0.5589
15044TIP3   OH266546   4.779   4.250   5.491  0.0598  0.5283  0.2431
15044TIP3    H166547   4.823   4.196   5.557  0.2174 -0.5856 -0.7426
15044TIP3    H266548   4.850   4.288   5.440 -0.0459 -1.1656 -1.2678
15045TIP3   OH266549   4.945   0.291  12.485  0.3248 -0.5280  0.1396
15045TIP3    H166550   4.851   0.310  12.491  0.9378  2.7186  3.4720
15045TIP3    H266551   4.963   0.240  12.564  1.5453  0.0455  0.2444
15046TIP3   OH266552   0.574   3.089   2.491 -0.3531  0.1844  0.3355
15046TIP3    H166553   0.611   3.160   2.438  0.3445  0.7061  1.4779
15046TIP3    H266554   0.650   3.045   2.529 -0.7469  1.7534  3.3523
15047TIP3   OH266555   4.735   3.615  15.176 -0.5273  0.1389  0.2707
15047TIP3    H166556   4.645   3.643  15.194 -1.3145 -2.3611  0.6057
15047TIP3    H266557   4.727   3.554  15.103  1.3795  2.2990 -1.9082
15048TIP3   OH266558   2.307   0.490   3.333  0.2545  0.1532  0.0215
15048TIP3    H166559   2.247   0.528   3.397  2.1001  1.3445  1.1674
15048TIP3    H266560   2.309   0.554   3.261  2.1191  1.5466  1.2149
15049TIP3   OH266561   2.903   6.571   2.178  0.3921 -0.2202  0.0104
15049TIP3    H166562   2.923   6.483   2.212 -2.2121 -1.3444 -1.0320
15049TIP3    H266563   2.898   6.626   2.255  2.2684 -0.9090  0.6812
15050TIP3   OH266564   3.033   4.797  12.252 -0.5753  0.1294 -0.4261
15050TIP3    H166565   2.960   4.761  12.201 -0.8268 -0.5087  0.3546
15050TIP3    H266566   2.996   4.812  12.339 -0.0550  0.8342 -0.3248
15051TIP3   OH266567   0.641   3.378  12.736  0.3741  0.4768 -0.3579
15051TIP3    H166568   0.709   3.433  12.696  0.8029 -0.3463 -0.7847
15051TIP3    H266569   0.688   3.321  12.796  0.2251 -0.7962 -1.3970
15052TIP3   OH266570   1.652   3.838  16.711 -0.3006  0.3553 -0.2419
15052TIP3    H166571   1.685   3.815  16.625 -3.5342 -0.3477 -1.4486
15052TIP3    H266572   1.654   3.755  16.760 -0.1654  0.3565 -0.2444
15053TIP3   OH266573   2.758   6.405  16.151  0.0222 -0.2313  0.4042
15053TIP3    H166574   2.678   6.359  16.127 -1.3363  0.8707  2.5523
15053TIP3    H266575   2.778   6.377  16.240  1.6884 -0.0074  0.1453
15054TIP3   OH266576   1.028   0.986   3.470  0.1584 -0.3355  0.4192
15054TIP3    H166577   1.095   0.923   3.445  0.1969  0.3168 -1.1929
15054TIP3    H266578   0.951   0.932   3.491  0.5917 -0.9782  0.3759
15055TIP3   OH266579   3.925   6.548   4.838 -0.3249 -0.3228 -0.1040
15055TIP3    H166580   3.914   6.453   4.846 -1.1024 -0.3146 -0.9394
15055TIP3    H266581   3.884   6.584   4.917  0.2042 -0.6890  0.3428
15056TIP3   OH266582   0.058   0.964  15.672  0.3937 -0.3699  0.1939
15056TIP3    H166583   0.152   0.976  15.681  0.4604  0.1021 -0.8962
15056TIP3    H266584   0.026   1.049  15.641 -0.2771 -0.7387 -0.1492
15057TIP3   OH266585   5.438   1.063  16.932 -0.1991 -0.0232 -0.7199
15057TIP3    H166586   5.415   1.127  17.000 -0.3933  0.3771 -1.1551
15057TIP3    H266587   5.356   1.018  16.913  0.2272 -1.4374  0.6246
15058TIP3   OH266588   5.380   5.700   4.287  0.5385  0.0201  0.3148
15058TIP3    H166589   5.289   5.719   4.309  0.3477  1.0630 -1.2509
15058TIP3    H266590   5.376   5.640   4.213  1.0759  1.0460 -0.5854
15059TIP3   OH266591   4.410   5.018   5.846  0.3784  0.6118  0.2076
15059TIP3    H166592   4.494   5.042   5.887  1.7011 -2.4710 -0.4214
15059TIP3    H266593   4.369   4.960   5.910  0.1380 -0.2902 -0.7577
15060TIP3   OH266594   0.874   5.083   3.635 -0.0568 -0.3235  0.5429
15060TIP3    H166595   0.838   4.994   3.629  0.2326 -0.3792 -0.9823
15060TIP3    H266596   0.808   5.138   3.592  0.9037 -0.2082 -0.8648
15061TIP3   OH266597   5.057   4.993   4.469 -0.2371 -0.4561 -0.1196
15061TIP3    H166598   5.135   5.025   4.422 -0.4317  1.2257  0.6389
15061TIP3    H266599   4.987   4.996   4.404 -0.4111  1.4554  0.0945
15062TIP3   OH266600   1.410   0.779   2.114 -0.1472  0.2991  0.4244
15062TIP3    H166601   1.468   0.848   2.147  0.5259  0.7249 -1.5084
15062TIP3    H266602   1.408   0.714   2.184  1.6140  0.9022  1.0972
15063TIP3   OH266603   6.135   0.986  17.152  0.2580 -0.2822  0.6094
15063TIP3    H166604   6.218   0.987  17.199  1.0753  1.8209 -0.7499
15063TIP3    H266605   6.157   0.952  17.065 -0.7929 -1.9642  0.9650
15064TIP3   OH266606   3.842   6.190  12.421 -0.1316  0.1591 -0.4458
15064TIP3    H166607   3.833   6.227  12.334 -0.0967  1.7216  0.1709
15064TIP3    H266608   3.758   6.206  12.463 -0.2430 -0.8328 -0.2790
15065TIP3   OH266609   3.384   1.107  10.841  0.1219  0.3398 -0.9527
15065TIP3    H166610   3.379   1.025  10.793 -1.1531  0.3729 -0.8968
15065TIP3    H266611   3.350   1.173  10.780 -0.8016  0.4951 -0.2918
15066TIP3   OH266612   4.250   1.769   0.933 -0.1994  0.0494 -0.1896
15066TIP3    H166613   4.182   1.804   0.990 -2.0198 -1.9253 -1.0513
15066TIP3    H266614   4.257   1.833   0.862 -1.7782 -0.0971 -0.5102
15067TIP3   OH266615   5.143   2.246   3.597 -0.3554 -0.1987  0.0212
15067TIP3    H166616   5.179   2.304   3.529 -0.8362 -0.3653 -0.3839
15067TIP3    H266617   5.215   2.186   3.617 -0.1092  0.0438 -0.1228
15068TIP3   OH266618   3.821   1.868   0.171  0.1163 -0.5006 -0.3551
15068TIP3    H166619   3.749   1.813   0.203  1.1115 -1.1887  0.7753
15068TIP3    H266620   3.862   1.817   0.102 -0.0448 -0.4202 -0.5092
15069TIP3   OH266621   0.153   0.532   3.512 -0.4158 -1.0362 -0.7291
15069TIP3    H166622   0.120   0.442   3.512 -2.1928 -0.5484  2.3186
15069TIP3    H266623   0.081   0.584   3.478  0.0216 -0.6004 -1.0037
15070TIP3   OH266624   6.522   2.964   0.807 -0.3628 -0.3991  0.4456
15070TIP3    H166625   6.492   2.912   0.882 -1.0085  0.1521  0.5772
15070TIP3    H266626   6.614   2.940   0.797 -0.3104 -0.6054  1.3129
15071TIP3   OH266627   5.324   5.453   0.755  0.6582  0.6005  0.3453
15071TIP3    H166628   5.302   5.517   0.822 -0.6180  0.2491  0.2724
15071TIP3    H266629   5.379   5.502   0.693  1.4747  1.0440  1.3861
15072TIP3   OH266630   6.157   4.112   3.734 -0.4606  0.9088  0.0131
15072TIP3    H166631   6.204   4.190   3.763  0.6719  0.3654 -0.2977
15072TIP3    H266632   6.120   4.137   3.649  0.3238  0.9688 -0.3230
15073TIP3   OH266633   4.390   6.308  15.376 -0.1038 -0.0211 -0.4216
15073TIP3    H166634   4.459   6.324  15.311 -0.4232 -0.2825 -0.8312
15073TIP3    H266635   4.373   6.394  15.415  1.0453 -0.0917  0.2912
15074TIP3   OH266636   1.900   0.871  12.799  0.9767 -0.0176  0.1580
15074TIP3    H166637   1.836   0.831  12.741  0.2692 -1.0282  1.6062
15074TIP3    H266638   1.877   0.964  12.799  1.1665  0.0674 -1.3528
15075TIP3   OH266639   1.635   3.778   1.656  0.0224 -0.3714 -0.4917
15075TIP3    H166640   1.636   3.872   1.674 -1.2603 -0.3850 -0.2586
15075TIP3    H266641   1.718   3.761   1.612 -0.3299  1.1321 -1.8283
15076TIP3   OH266642   2.701   2.669  14.803  0.1078 -0.0777  0.2710
15076TIP3    H166643   2.673   2.578  14.795 -0.7536  0.2302 -0.2671
15076TIP3    H266644   2.732   2.676  14.894 -0.6685 -0.6740  0.5931
15077TIP3   OH266645   0.349   6.294   1.880  0.0523  0.7915 -0.1501
15077TIP3    H166646   0.439   6.261   1.891 -0.5103 -0.4653  0.9585
15077TIP3    H266647   0.335   6.296   1.786  0.2126 -2.0175 -0.3006
15078TIP3   OH266648   0.882   4.409  16.355 -0.2348 -0.5509  0.1486
15078TIP3    H166649   0.881   4.351  16.279 -2.7093 -0.5822  0.1064
15078TIP3    H266650   0.822   4.367  16.418  1.0778 -0.0893  1.7820
15079TIP3   OH266651   1.589   6.277  14.848  0.4727 -0.0450  0.2349
15079TIP3    H166652   1.522   6.229  14.896 -0.9124  2.3844  0.9027
15079TIP3    H266653   1.602   6.357  14.898  1.5152  1.0142 -1.6080
15080TIP3   OH266654   1.552   5.479   5.676 -0.0436  0.0809  0.5928
15080TIP3    H166655   1.603   5.549   5.635 -0.2916 -0.5953 -0.8974
15080TIP3    H266656   1.580   5.481   5.768  1.6898  0.5772  0.0961
15081TIP3   OH266657   6.212   2.253   5.562 -0.8675 -0.1014 -0.0181
15081TIP3    H166658   6.188   2.170   5.603  1.4622 -0.5958  0.4698
15081TIP3    H266659   6.246   2.228   5.476  0.2833  0.2733  0.3115
15082TIP3   OH266660   3.769   0.279   1.115 -0.1179 -0.3026  0.7533
15082TIP3    H166661   3.827   0.351   1.139 -0.2281 -0.3163  1.0734
15082TIP3    H266662   3.685   0.302   1.155 -0.5003  0.0070 -0.1969
15083TIP3   OH266663   6.149   0.517  16.286  0.2736 -0.4228 -0.0323
15083TIP3    H166664   6.060   0.494  16.312 -0.2242 -0.1674 -1.4578
15083TIP3    H266665   6.144   0.535  16.192  2.2768 -2.6860 -0.6707
15084TIP3   OH266666   3.980   4.501  13.652 -0.2292  0.3321 -0.3792
15084TIP3    H166667   4.042   4.449  13.600 -1.2241 -0.5439 -0.7078
15084TIP3    H266668   3.899   4.500  13.601 -0.6038  1.2451  0.1801
15085TIP3   OH266669   0.559   3.223   5.066 -0.3974 -0.2034  0.0800
15085TIP3    H166670   0.472   3.189   5.087 -0.3378 -0.5377 -0.2076
15085TIP3    H266671   0.607   3.148   5.032 -0.1281  0.0714 -0.1559
15086TIP3   OH266672   0.415   3.009   3.622  0.2538 -0.1076  0.3212
15086TIP3    H166673   0.349   3.078   3.625  0.8321  0.4463  0.5656
15086TIP3    H266674   0.414   2.970   3.709  1.5306  1.1484  0.9408
15087TIP3   OH266675   6.615   4.236   0.646  0.1257  0.3371 -0.4164
15087TIP3    H166676   6.554   4.272   0.582  1.0428  0.5563 -1.2000
15087TIP3    H266677   6.612   4.297   0.719  0.2324  0.9671 -0.9219
15088TIP3   OH266678   0.664   1.401   1.156  0.0376  0.4604 -0.4356
15088TIP3    H166679   0.581   1.444   1.175 -0.8740 -1.3772 -0.0830
15088TIP3    H266680   0.660   1.379   1.063 -0.4218 -0.7038 -0.1575
15089TIP3   OH266681   6.285   1.923   0.143  0.3038 -0.1818  0.0295
15089TIP3    H166682   6.371   1.897   0.111 -0.5679 -1.7413 -1.1622
15089TIP3    H266683   6.271   1.870   0.222  0.3881 -0.0090  0.1611
15090TIP3   OH266684   5.298   3.771  15.912 -0.0109 -0.3907  0.2919
15090TIP3    H166685   5.369   3.809  15.963 -0.0917 -0.1086  0.1929
15090TIP3    H266686   5.220   3.786  15.965 -0.4758  2.0296 -0.9719
15091TIP3   OH266687   6.266   3.166  15.826 -0.2299  0.1151 -0.2880
15091TIP3    H166688   6.250   3.091  15.883 -0.0072 -1.1502 -1.8264
15091TIP3    H266689   6.229   3.241  15.874 -0.7815 -1.0112  1.1234
15092TIP3   OH266690   5.445   3.538   5.732  0.0186 -0.4495  0.2137
15092TIP3    H166691   5.463   3.613   5.788 -2.1702 -0.3299  0.8661
15092TIP3    H266692   5.410   3.472   5.792 -3.4744  0.0678 -1.0016
15093TIP3   OH266693   1.746   1.451  14.226 -0.0518  0.6621  0.7628
15093TIP3    H166694   1.702   1.465  14.310  0.3324  0.2578  1.0373
15093TIP3    H266695   1.679   1.412  14.171  0.1747 -0.7913  1.4566
15094TIP3   OH266696   3.266   5.118  14.755  0.2621 -0.1505  0.1725
15094TIP3    H166697   3.281   5.035  14.800  0.1426  0.3583  1.1817
15094TIP3    H266698   3.175   5.114  14.725 -0.6972  0.7176  2.7115
15095TIP3   OH266699   4.035   5.641   2.925 -0.0671  0.2106  0.1082
15095TIP3    H166700   4.122   5.646   2.965  0.0820 -1.3769  0.0637
15095TIP3    H266701   4.020   5.547   2.913 -1.7690  0.4597  0.0536
15096TIP3   OH266702   6.357   2.554   0.458  0.1721  0.0714 -0.1803
15096TIP3    H166703   6.265   2.526   0.459  0.4305 -1.1785 -2.6610
15096TIP3    H266704   6.355   2.644   0.489 -1.6765 -0.3852  1.2100
15097TIP3   OH266705   6.268   1.348  11.296  0.1887  0.2486  0.2822
15097TIP3    H166706   6.282   1.391  11.211 -2.4750  0.4258 -0.1418
15097TIP3    H266707   6.251   1.257  11.274 -0.3938  0.2714  0.6222
15098TIP3   OH266708   5.166   2.087   2.239 -0.4882  0.2946  0.2444
15098TIP3    H166709   5.174   2.181   2.223 -1.1833  0.2834 -0.2229
15098TIP3    H266710   5.255   2.053   2.234 -0.3647  0.7559 -0.7364
15099TIP3   OH266711   5.507   0.066   1.872 -0.5296  0.0979 -0.2450
15099TIP3    H166712   5.467   0.121   1.939  0.2003  0.4163 -0.0552
15099TIP3    H266713   5.600   0.061   1.898 -0.7607 -2.0649  0.3062
15100TIP3   OH266714   0.068   4.170   0.516  0.2601 -0.1388  0.1764
15100TIP3    H166715   0.073   4.257   0.474  0.1282 -0.5559 -0.7343
15100TIP3    H266716  -0.024   4.161   0.540  0.1973 -0.1835 -0.0784
15101TIP3   OH266717   1.893   5.866  12.562  0.3176  0.4196 -0.4966
15101TIP3    H166718   1.905   5.924  12.637  0.3069  0.9897 -0.9293
15101TIP3    H266719   1.906   5.778  12.598  0.3053  0.6816  0.1723
15102TIP3   OH266720   0.762   4.223   1.418  0.2237 -0.2644 -1.2174
15102TIP3    H166721   0.707   4.145   1.405  1.0555 -1.0679 -0.1241
15102TIP3    H266722   0.723   4.266   1.494  0.2017 -0.0048 -1.3754
15103TIP3   OH266723   1.076   3.720   2.436 -0.1932 -0.0402 -0.6241
15103TIP3    H166724   1.150   3.781   2.431  0.5673 -1.0368 -2.3113
15103TIP3    H266725   1.027   3.735   2.355 -1.7050  0.3722  0.3168
15104TIP3   OH266726   4.453   1.177  12.804 -0.2393 -0.2677  0.1487
15104TIP3    H166727   4.494   1.142  12.725 -0.6806 -0.4857  0.0135
15104TIP3    H266728   4.392   1.243  12.773 -1.1069 -1.0160  0.2264
15105TIP3   OH266729   2.382   5.586   3.652 -0.5842 -0.1603  0.0172
15105TIP3    H166730   2.332   5.666   3.633  1.4078  1.5572  1.4710
15105TIP3    H266731   2.457   5.590   3.592 -0.2733 -0.7534  0.3573
15106TIP3   OH266732   6.255   0.397  15.941  0.2819 -0.4349  0.5561
15106TIP3    H166733   6.244   0.460  15.870 -0.0529 -1.0062  0.0888
15106TIP3    H266734   6.187   0.420  16.004  1.1744  0.6662  1.1537
15107TIP3   OH266735   3.997   4.751   3.712 -0.0475  0.2314  0.7553
15107TIP3    H166736   4.080   4.778   3.753 -0.3937  1.1295  0.8916
15107TIP3    H266737   3.962   4.832   3.674 -0.2051 -0.3976 -0.4875
15108TIP3   OH266738   1.008   6.764   0.175 -0.3526 -0.2517  0.8516
15108TIP3    H166739   1.004   6.736   0.083 -0.3732 -0.5684  0.9480
15108TIP3    H266740   1.083   6.823   0.178  0.6905 -1.5237  0.9699
15109TIP3   OH266741   3.916   0.817   1.799 -0.1830 -0.4458  0.7222
15109TIP3    H166742   3.993   0.762   1.810  0.0783 -0.2933 -0.2292
15109TIP3    H266743   3.903   0.821   1.704 -0.1218  1.2286  0.7601
15110TIP3   OH266744   6.492   2.284  14.176 -0.5388  0.3896 -0.6120
15110TIP3    H166745   6.508   2.224  14.104  0.7390 -0.9615  0.7340
15110TIP3    H266746   6.556   2.354  14.164  0.6695 -0.5762 -0.0322
15111TIP3   OH266747   6.199   3.078  10.600 -0.3397  0.4574 -0.2863
15111TIP3    H166748   6.236   3.091  10.512 -1.1194 -2.3073 -1.1483
15111TIP3    H266749   6.166   3.164  10.625  1.3388  1.7005 -1.9855
15112TIP3   OH266750   4.780   6.627  14.347  0.4633  0.3834 -0.8394
15112TIP3    H166751   4.765   6.538  14.379 -1.4959  0.6456 -0.8670
15112TIP3    H266752   4.789   6.680  14.426 -0.7077  0.4828 -0.7534
15113TIP3   OH266753   5.172   2.840  13.853  0.4422  0.0604  0.0406
15113TIP3    H166754   5.230   2.912  13.879 -0.6113  1.5149 -1.4597
15113TIP3    H266755   5.231   2.771  13.823  1.4807  1.8918 -2.4992
15114TIP3   OH266756   6.606   6.514  13.253 -0.0998 -0.7341  0.0886
15114TIP3    H166757   6.699   6.530  13.237 -0.2466  0.2628  0.2125
15114TIP3    H266758   6.573   6.483  13.169 -0.0124  0.5908 -0.4560
15115TIP3   OH266759   0.943   6.571   0.361 -0.1643  0.3207 -0.6481
15115TIP3    H166760   0.950   6.625   0.440 -0.5466  1.5167 -1.4129
15115TIP3    H266761   0.982   6.624   0.292  2.7624 -1.7998 -0.8109
15116TIP3   OH266762   5.198   5.701  12.220  0.2317 -0.1695 -1.0504
15116TIP3    H166763   5.284   5.692  12.263 -0.3268 -0.5785  0.0166
15116TIP3    H266764   5.149   5.761  12.276 -0.2544 -0.0924 -1.5493
15117TIP3   OH266765   2.007   3.650   5.018 -0.1641  0.0472 -0.2905
15117TIP3    H166766   2.098   3.680   5.017  0.2825 -1.2668 -0.1607
15117TIP3    H266767   1.979   3.656   4.926  0.6730 -1.3382 -0.6620
15118TIP3   OH266768   6.651   0.242   2.036  0.3737 -0.4855 -0.1882
15118TIP3    H166769   6.569   0.237   1.987 -0.4086 -0.6013  1.0946
15118TIP3    H266770   6.719   0.223   1.971 -0.5856 -0.1650 -1.3200
15119TIP3   OH266771   4.564   3.517   4.222 -0.0629  0.4864 -1.4212
15119TIP3    H166772   4.648   3.531   4.180 -0.3037  0.6676 -1.8525
15119TIP3    H266773   4.509   3.478   4.153  0.4177 -2.0893 -0.4444
15120TIP3   OH266774   2.854   5.696   4.729  0.4777 -0.0923  0.0394
15120TIP3    H166775   2.935   5.701   4.781 -0.7590  0.3659  2.0353
15120TIP3    H266776   2.884   5.702   4.638  2.6736  0.2853  0.7137
15121TIP3   OH266777   0.019   3.677   5.612 -0.0187  0.7620  0.5622
15121TIP3    H166778   0.007   3.762   5.655  0.6745  0.0828  2.1614
15121TIP3    H266779  -0.034   3.616   5.664  0.7392 -0.0632  0.3764
15122TIP3   OH266780   1.759   1.639   1.340 -0.4100  0.7611 -0.1642
15122TIP3    H166781   1.712   1.577   1.284  0.6104  0.3821 -0.6400
15122TIP3    H266782   1.792   1.585   1.412  1.4012  0.4704 -1.1327
15123TIP3   OH266783   2.680   0.248   2.995  0.0947 -0.2149  0.2598
15123TIP3    H166784   2.591   0.216   3.010 -0.1344  0.4314  0.3042
15123TIP3    H266785   2.685   0.330   3.044  0.0964  0.7272 -1.2576
15124TIP3   OH266786   3.629   3.483  13.328 -0.2854  0.1482 -0.2127
15124TIP3    H166787   3.680   3.410  13.292 -0.1589 -0.0334  0.3298
15124TIP3    H266788   3.549   3.442  13.360 -0.7998  0.4398 -1.1094
15125TIP3   OH266789   1.802   1.331  16.476 -0.7283 -0.3416 -0.0188
15125TIP3    H166790   1.759   1.277  16.410 -2.5903  1.5469 -0.4286
15125TIP3    H266791   1.766   1.419  16.464  1.7802  0.9482  0.9722
15126TIP3   OH266792   2.424   0.070   2.231 -0.4428  0.1264  0.3421
15126TIP3    H166793   2.464  -0.016   2.217 -1.6660 -0.2776 -0.9025
15126TIP3    H266794   2.471   0.128   2.171 -1.0808 -0.1578 -0.4518
15127TIP3   OH266795   2.837   4.918  15.328  0.2095 -0.4264  0.1906
15127TIP3    H166796   2.860   4.914  15.235  0.5102 -0.4447  0.2645
15127TIP3    H266797   2.898   4.982  15.365  0.0055 -0.3256  0.3508
15128TIP3   OH266798   2.535   6.022   0.695  0.1607 -0.0612 -0.2468
15128TIP3    H166799   2.591   5.944   0.694 -0.4690 -0.5196 -0.5719
15128TIP3    H266800   2.583   6.087   0.643  0.1853 -0.6003 -0.9096
15129TIP3   OH266801   4.476   4.741   2.527 -0.5710 -0.2739 -0.4954
15129TIP3    H166802   4.499   4.824   2.484  0.0595 -1.5256 -2.6932
15129TIP3    H266803   4.383   4.750   2.548 -0.7759  0.6058 -1.6683
15130TIP3   OH266804   2.189   0.282   6.308 -0.3468 -0.3552  0.1168
15130TIP3    H166805   2.135   0.286   6.388 -0.7919  0.9558 -0.2308
15130TIP3    H266806   2.276   0.307   6.337 -0.7813  1.4608 -0.0037
15131TIP3   OH266807   0.278   3.853  15.640  0.1391  0.2733 -0.8194
15131TIP3    H166808   0.354   3.846  15.583 -0.0936  0.6701 -1.1877
15131TIP3    H266809   0.206   3.817  15.587  0.1136 -0.3502 -0.3772
15132TIP3   OH266810   1.263   1.812   5.546  0.0208  0.3063 -0.0777
15132TIP3    H166811   1.345   1.837   5.503 -0.1050  1.6634  0.4109
15132TIP3    H266812   1.223   1.749   5.487  1.5736 -0.6554 -0.1693
15133TIP3   OH266813   4.607   2.860   1.061  0.4265 -0.7632  0.4992
15133TIP3    H166814   4.629   2.769   1.041 -0.1980 -0.3378 -2.6247
15133TIP3    H266815   4.653   2.911   0.995 -0.6374  1.0480  1.0816
15134TIP3   OH266816   2.788   1.775   4.942  0.2497  0.2203  0.2234
15134TIP3    H166817   2.877   1.804   4.924 -0.8924  2.9669 -1.7088
15134TIP3    H266818   2.743   1.853   4.975 -1.3411 -1.2475  1.7575
15135TIP3   OH266819   2.870   5.964   5.391  0.1711  0.5299  0.3061
15135TIP3    H166820   2.783   5.928   5.372  0.3820  1.1503 -2.1385
15135TIP3    H266821   2.851   6.048   5.435 -0.4123  0.1288  0.8505
15136TIP3   OH266822   5.010   4.301   4.466  0.0515  0.6653 -0.1529
15136TIP3    H166823   4.952   4.364   4.510  0.8131  1.0923  0.2607
15136TIP3    H266824   5.066   4.267   4.536 -1.2779 -1.5771 -0.0757
15137TIP3   OH266825   4.039   3.596  15.733 -0.2244 -0.2320 -0.0189
15137TIP3    H166826   4.018   3.509  15.767  1.3131 -0.1615  1.2119
15137TIP3    H266827   4.129   3.588  15.702 -0.5941  0.5273 -1.3876
15138TIP3   OH266828   3.284   4.934   0.268 -0.1827  0.4927 -0.2648
15138TIP3    H166829   3.246   4.891   0.345  0.0432 -1.2683 -1.0715
15138TIP3    H266830   3.209   4.967   0.219 -0.8407 -2.5652 -1.6132
15139TIP3   OH266831   5.055   2.512   0.692 -0.1459 -0.2344 -0.4769
15139TIP3    H166832   5.108   2.500   0.613 -1.5756  1.5921 -1.8318
15139TIP3    H266833   5.108   2.569   0.748  0.9707 -1.7176  0.0264
15140TIP3   OH266834   3.423   0.766  16.856 -0.2793 -0.0065  0.3420
15140TIP3    H166835   3.467   0.699  16.804 -2.0614 -1.0329  0.0635
15140TIP3    H266836   3.347   0.791  16.803  0.3002  2.2145  0.4723
15141TIP3   OH266837   3.398   5.625  13.177  0.1769 -0.5049  0.1073
15141TIP3    H166838   3.490   5.602  13.167  0.3919  0.8615 -1.5287
15141TIP3    H266839   3.385   5.632  13.272  1.7493 -0.7117  0.3626
15142TIP3   OH266840   5.939   3.930  13.594 -0.2426  0.0826  0.3624
15142TIP3    H166841   5.875   4.000  13.580 -0.8735 -0.5233  0.1408
15142TIP3    H266842   5.915   3.892  13.679 -0.6007 -0.5673 -0.0173
15143TIP3   OH266843   6.613   2.103  13.177  0.0076 -0.0491 -0.8475
15143TIP3    H166844   6.649   2.036  13.120  0.3818  0.0452 -0.7228
15143TIP3    H266845   6.672   2.177  13.168 -0.2027  0.1392 -0.7081
15144TIP3   OH266846   6.649   5.449  16.743  0.7615  0.2842  0.2300
15144TIP3    H166847   6.556   5.436  16.762  0.6118  0.1592 -0.5440
15144TIP3    H266848   6.650   5.516  16.675  1.1815 -0.3272 -0.3849
15145TIP3   OH266849   6.759   4.341   1.264 -0.0654  0.1086 -0.0218
15145TIP3    H166850   6.740   4.304   1.178  1.6079  1.7936 -1.2181
15145TIP3    H266851   6.695   4.301   1.322 -1.9438 -0.3397 -2.2304
15146TIP3   OH266852   1.732   4.922  13.310 -0.7471 -0.1823  0.1294
15146TIP3    H166853   1.695   4.934  13.397 -4.5040  0.2853 -1.3359
15146TIP3    H266854   1.750   4.828  13.305  0.7832 -0.0365  1.7503
15147TIP3   OH266855   1.317   1.725   1.570  0.0623  0.5029 -0.2200
15147TIP3    H166856   1.411   1.739   1.560  0.1403  0.0933 -0.0780
15147TIP3    H266857   1.310   1.640   1.613 -0.3637  0.6667  0.0396
15148TIP3   OH266858   5.239   6.404  14.422  0.2607 -0.5749 -0.4551
15148TIP3    H166859   5.323   6.437  14.391 -0.1603 -0.8479 -1.9508
15148TIP3    H266860   5.183   6.482  14.426  0.8701 -0.1957  1.6622
15149TIP3   OH266861   2.230   2.528  12.100 -0.1581  0.3430 -0.0386
15149TIP3    H166862   2.205   2.439  12.077 -0.2222  0.8578 -2.0996
15149TIP3    H266863   2.273   2.563  12.022  0.4012  1.9317  0.9182
15150TIP3   OH266864   0.098   6.493   0.112  0.0605  0.6407 -0.0388
15150TIP3    H166865   0.181   6.447   0.120 -0.5257 -0.3490  0.6814
15150TIP3    H266866   0.105   6.542   0.031  1.3097  0.5053 -0.0280
15151TIP3   OH266867   4.788   2.540  17.063  0.2202  0.3084  0.7590
15151TIP3    H166868   4.805   2.448  17.042  0.8212  0.6992 -0.6222
15151TIP3    H266869   4.696   2.553  17.040  0.3408  0.2333  0.2177
15152TIP3   OH266870   3.266   4.156  16.315 -0.4755 -0.0233  0.3159
15152TIP3    H166871   3.331   4.096  16.278 -1.5184 -0.3677 -1.0425
15152TIP3    H266872   3.269   4.140  16.409 -0.2357 -1.7428  0.0530
15153TIP3   OH266873   4.345   1.896   5.388 -0.2595 -0.2994  0.6670
15153TIP3    H166874   4.256   1.931   5.390  0.5727  1.9851  1.8459
15153TIP3    H266875   4.374   1.897   5.479  1.0556 -0.7413  0.2807
15154TIP3   OH266876   4.288   1.576   3.075  0.3621  0.7371 -0.9110
15154TIP3    H166877   4.310   1.610   3.162 -1.3390 -1.0570  0.2937
15154TIP3    H266878   4.193   1.566   3.077  0.5889 -2.5821 -1.6720
15155TIP3   OH266879   5.824   4.330   4.627  0.4615  0.2203  0.1050
15155TIP3    H166880   5.735   4.365   4.636  1.1320  2.1028 -0.2423
15155TIP3    H266881   5.831   4.307   4.534 -0.2091 -1.6043  0.4613
15156TIP3   OH266882   1.040   2.269  16.655  0.1156 -0.4974  0.1658
15156TIP3    H166883   1.064   2.240  16.567  2.2978 -2.9129  1.3833
15156TIP3    H266884   1.023   2.188  16.703 -2.4933  0.8172  1.6460
15157TIP3   OH266885   3.572   1.999   0.767 -0.3196 -0.0921 -0.2942
15157TIP3    H166886   3.481   2.026   0.765 -0.1248  0.6305  0.1823
15157TIP3    H266887   3.573   1.914   0.722 -1.3640 -0.5820  0.5697
15158TIP3   OH266888   0.748   0.016   0.508  0.3410 -0.0578 -0.4889
15158TIP3    H166889   0.694   0.093   0.489  1.6843  0.5226 -2.2521
15158TIP3    H266890   0.692  -0.058   0.485 -0.6290  0.3876  0.3087
15159TIP3   OH266891   4.145   6.124   3.955 -0.2355 -0.2299 -0.7559
15159TIP3    H166892   4.059   6.083   3.966  0.2001 -1.2328 -0.9758
15159TIP3    H266893   4.126   6.212   3.921 -1.1640 -0.5019 -0.9560
15160TIP3   OH266894   4.909   5.412   3.040 -0.0406 -0.0238 -0.5299
15160TIP3    H166895   4.936   5.484   2.982 -0.5644 -0.6065 -1.5305
15160TIP3    H266896   4.818   5.432   3.063  0.5486  0.8841  1.1940
15161TIP3   OH266897   5.211   1.224  11.288 -0.1992  0.2940  0.3267
15161TIP3    H166898   5.251   1.265  11.364  2.4472  0.4735 -1.0526
15161TIP3    H266899   5.270   1.245  11.215 -2.0217 -0.7971 -1.5870
15162TIP3   OH266900   5.067   0.506   4.477 -0.0614 -0.1648  1.0528
15162TIP3    H166901   5.024   0.508   4.392  0.4018  0.0581  0.8242
15162TIP3    H266902   5.000   0.539   4.538 -0.6764 -1.1066  0.9109
15163TIP3   OH266903   4.081   4.159   4.629  0.5185 -0.0040 -0.2790
15163TIP3    H166904   4.171   4.188   4.642  0.0505  1.1907  0.4221
15163TIP3    H266905   4.027   4.234   4.654 -0.6897 -0.8036 -0.3768
15164TIP3   OH266906   3.528   6.590  12.361 -0.1286  0.4645  0.1829
15164TIP3    H166907   3.453   6.560  12.412  1.0103 -2.8779  0.1316
15164TIP3    H266908   3.596   6.607  12.427 -0.3237  1.6686  0.0964
15165TIP3   OH266909   0.568   2.294   5.452  0.3736 -1.0142 -0.2884
15165TIP3    H166910   0.607   2.379   5.433  1.0839 -1.7631 -2.4861
15165TIP3    H266911   0.474   2.312   5.461  0.2271 -0.2005 -2.6458
15166TIP3   OH266912   3.776   4.377  11.800  0.2683 -0.3863  0.3695
15166TIP3    H166913   3.843   4.310  11.799 -0.7411 -1.4143 -0.4402
15166TIP3    H266914   3.809   4.446  11.743  0.1866 -1.3487 -0.8680
15167TIP3   OH266915   1.389   5.936  11.566 -0.5312  0.3752 -0.0734
15167TIP3    H166916   1.369   5.972  11.652 -1.7780 -0.0218 -0.1876
15167TIP3    H266917   1.478   5.966  11.548  0.2235 -0.5261  1.8669
15168TIP3   OH266918   2.052   2.348   6.580  0.5571  0.6695  0.2249
15168TIP3    H166919   2.125   2.365   6.520 -0.0300 -1.5052 -1.2269
15168TIP3    H266920   1.977   2.334   6.523 -1.4307  4.0977  1.7147
15169TIP3   OH266921   0.214   1.003   0.684  0.4817 -0.3964  0.2352
15169TIP3    H166922   0.218   0.978   0.592 -0.6844 -1.5430  0.4464
15169TIP3    H266923   0.287   0.956   0.725  1.9644  1.3419 -0.3166
15170TIP3   OH266924   0.824   0.692  14.052  0.1737 -1.0955 -0.2889
15170TIP3    H166925   0.829   0.787  14.056 -2.5078 -0.8610 -0.7078
15170TIP3    H266926   0.732   0.672  14.065  0.5546 -3.6262 -0.8908
15171TIP3   OH266927   4.708   1.963  11.843  0.1892 -0.0750  0.4539
15171TIP3    H166928   4.795   1.973  11.805 -0.3288 -0.3131 -0.8506
15171TIP3    H266929   4.650   2.008  11.782 -0.7311 -0.8053  0.7661
15172TIP3   OH266930   3.153   2.402   4.607  0.2311  0.0540 -0.0812
15172TIP3    H166931   3.236   2.399   4.654  1.1787  0.0958 -1.6895
15172TIP3    H266932   3.170   2.359   4.524 -0.8488  1.5993 -1.1737
15173TIP3   OH266933   5.277   2.695  12.439  0.1355 -0.3303  0.2309
15173TIP3    H166934   5.230   2.685  12.356  0.6572  0.7339 -0.2235
15173TIP3    H266935   5.209   2.703  12.505 -0.5205  3.1763 -0.6227
15174TIP3   OH266936   4.373   3.022  14.227 -0.0195 -0.0151  0.1092
15174TIP3    H166937   4.317   3.100  14.227  1.7602  1.3768 -1.5631
15174TIP3    H266938   4.445   3.045  14.285  0.2396 -0.6638  0.0440
15175TIP3   OH266939   2.038   5.910  15.154  0.3378 -0.0947  0.3434
15175TIP3    H166940   2.034   5.971  15.227  1.0364  0.1845  0.1556
15175TIP3    H266941   2.106   5.946  15.096  0.0803 -0.5274 -0.2400
15176TIP3   OH266942   1.258   3.609  14.251 -0.2295  0.4544  0.1827
15176TIP3    H166943   1.260   3.636  14.159 -2.4368  0.3611  0.0525
15176TIP3    H266944   1.350   3.601  14.276  0.5773 -3.2998 -3.0952
15177TIP3   OH266945   3.291   0.196   4.635  0.2011  0.2828  0.1692
15177TIP3    H166946   3.238   0.252   4.692  1.4360  1.8714 -0.1616
15177TIP3    H266947   3.351   0.150   4.694 -1.0118 -0.9878  0.4719
15178TIP3   OH266948   2.035   0.768  14.936 -0.2432  0.5090  0.6119
15178TIP3    H166949   2.044   0.732  15.024 -0.9162 -1.3783 -0.0486
15178TIP3    H266950   1.988   0.851  14.948 -0.2798  0.3003  2.0162
15179TIP3   OH266951   5.351   0.135   5.021  0.3249  0.6840  0.2108
15179TIP3    H166952   5.329   0.227   5.037  0.1053  0.4368  1.3983
15179TIP3    H266953   5.380   0.133   4.930  0.3194  1.9284  0.1661
15180TIP3   OH266954   6.701   6.185   6.525  0.2227  0.3468 -0.4495
15180TIP3    H166955   6.610   6.169   6.501  0.0900 -1.3771  0.9733
15180TIP3    H266956   6.704   6.277   6.549 -0.6978  0.8936 -2.2834
15181TIP3   OH266957   1.230   0.724   0.123 -0.0913  0.6488 -0.2807
15181TIP3    H166958   1.310   0.684   0.157  0.8845  2.6890  0.0129
15181TIP3    H266959   1.241   0.722   0.028 -1.2205 -1.9401 -0.4221
15182TIP3   OH266960   6.679   3.769  15.264  0.2645 -0.5042  0.3404
15182TIP3    H166961   6.703   3.736  15.178  0.3076 -1.4649  0.7121
15182TIP3    H266962   6.590   3.801  15.254  0.3525 -0.4045 -0.1162
15183TIP3   OH266963   0.287   2.204  15.762  0.0664 -0.0422 -0.2617
15183TIP3    H166964   0.298   2.299  15.771  1.3663 -0.3660  2.4561
15183TIP3    H266965   0.366   2.176  15.716 -0.1534  0.1356 -0.7570
15184TIP3   OH266966   1.998   4.676  13.298 -0.0549 -0.4304 -0.3584
15184TIP3    H166967   2.024   4.640  13.214  0.0392  0.9395 -0.9378
15184TIP3    H266968   1.924   4.622  13.326 -0.9365 -0.1069 -1.9542
15185TIP3   OH266969   6.628   0.511   0.224 -0.5462 -0.1351 -0.2616
15185TIP3    H166970   6.610   0.549   0.310 -0.2265 -0.5401 -0.0133
15185TIP3    H266971   6.564   0.440   0.215  0.4436 -1.1247  0.3267
15186TIP3   OH266972   0.412   5.109   1.046  0.5570 -0.5650 -0.1448
15186TIP3    H166973   0.388   5.119   0.954  0.6145  1.8689  0.0519
15186TIP3    H266974   0.507   5.124   1.047  0.4832 -0.1253  0.3740
15187TIP3   OH266975   2.737   0.561   2.485 -0.1545  0.0899  0.4852
15187TIP3    H166976   2.688   0.539   2.406  1.2936 -0.1751 -0.3684
15187TIP3    H266977   2.723   0.654   2.498  1.1806  0.5744 -1.2519
15188TIP3   OH266978   0.722   2.100   0.065  0.1460  0.1278  0.8692
15188TIP3    H166979   0.756   2.187   0.086 -0.1167  0.6860 -0.8576
15188TIP3    H266980   0.775   2.070  -0.008 -1.3047 -0.1126 -0.1319
15189TIP3   OH266981   6.169   6.008   1.372  0.0950 -0.3159  0.4911
15189TIP3    H166982   6.170   6.050   1.286  1.0878 -1.5106 -0.1205
15189TIP3    H266983   6.159   6.080   1.434  1.4089  0.8023 -0.5198
15190TIP3   OH266984   4.843   0.245   1.330  0.1023 -0.1503  0.7753
15190TIP3    H166985   4.750   0.265   1.332  0.1426  0.0088  1.1680
15190TIP3    H266986   4.885   0.329   1.310  0.1992 -0.0761  1.2716
15191TIP3   OH266987   1.511   1.945   1.788  0.3012  0.1330  0.0266
15191TIP3    H166988   1.523   1.959   1.882 -1.1482  1.7866  0.0190
15191TIP3    H266989   1.433   1.890   1.782  0.2700  0.2013 -0.2150
15192TIP3   OH266990   1.514   5.919  12.010  0.7092  0.2503 -0.1684
15192TIP3    H166991   1.598   5.873  12.017  1.1467  1.3061  3.1916
15192TIP3    H266992   1.536   6.011  12.018 -0.7424  0.5403  1.0087
15193TIP3   OH266993   4.958   6.118   0.979  0.5543  0.0210  0.5769
15193TIP3    H166994   5.027   6.174   0.944  0.4697 -0.9242 -1.1863
15193TIP3    H266995   4.880   6.140   0.928 -0.2703  0.4352  1.9401
15194TIP3   OH266996   2.215   3.608  14.257 -0.4227 -0.1485  0.4585
15194TIP3    H166997   2.223   3.648  14.170 -2.5386  0.6317  0.5687
15194TIP3    H266998   2.284   3.542  14.259 -0.5710 -0.4611 -1.9710
15195TIP3   OH266999   5.945   5.113   3.314 -0.0732  0.4933  0.1600
15195TIP3    H167000   5.995   5.083   3.390  1.3814  1.5269 -0.3465
15195TIP3    H267001   6.010   5.154   3.257 -1.0450 -0.7157 -1.9164
15196TIP3   OH267002   3.786   5.647  14.050 -0.0941  0.1118 -0.4934
15196TIP3    H167003   3.690   5.650  14.051 -0.2122 -1.0828  2.7971
15196TIP3    H267004   3.807   5.562  14.011 -0.6409 -1.4841  2.4181
15197TIP3   OH267005   4.388   1.443  16.798  1.0419 -0.0539  0.1189
15197TIP3    H167006   4.400   1.488  16.882 -1.2857  0.9327 -0.0140
15197TIP3    H267007   4.303   1.401  16.804  1.0867 -0.4640 -1.5439
15198TIP3   OH267008   2.610   2.027   2.939  0.4068 -0.0858  0.1421
15198TIP3    H167009   2.645   2.108   2.902 -0.4189  0.0902 -0.2915
15198TIP3    H267010   2.569   1.982   2.864  0.0730 -0.4704  0.5453
15199TIP3   OH267011   6.697   5.423   0.730  0.2263 -0.5020 -0.0849
15199TIP3    H167012   6.788   5.452   0.740  0.5826 -1.2232 -1.0829
15199TIP3    H267013   6.688   5.348   0.788  0.3251 -0.5550 -0.1389
15200TIP3   OH267014   3.875   1.362  13.048  0.5755  0.9827  0.2304
15200TIP3    H167015   3.878   1.270  13.022 -0.0370  1.6999 -2.7514
15200TIP3    H267016   3.937   1.369  13.121  0.5033 -1.7908  0.6376
15201TIP3   OH267017   4.563   6.360  15.137  0.0569 -0.0082 -0.1097
15201TIP3    H167018   4.574   6.281  15.085 -1.2201 -2.9248  3.5832
15201TIP3    H267019   4.486   6.402  15.101 -0.5151 -1.6341 -0.8770
15202TIP3   OH267020   6.556   3.709   1.505 -0.6286  0.0769 -0.2041
15202TIP3    H167021   6.544   3.614   1.498  0.7683 -0.2238  1.0415
15202TIP3    H267022   6.651   3.722   1.507 -0.7826  1.5627 -0.8616
15203TIP3   OH267023   0.102   6.520  16.799 -0.3378 -0.1820 -0.5739
15203TIP3    H167024   0.085   6.483  16.885 -0.2030  0.7408 -0.1378
15203TIP3    H267025   0.023   6.500  16.748 -1.3607  1.1561  0.4273
15204TIP3   OH267026   6.221   6.461   0.459  0.3331 -0.3960  0.0480
15204TIP3    H167027   6.233   6.369   0.480  0.2768 -0.5896 -0.7396
15204TIP3    H267028   6.310   6.497   0.453  0.4095 -0.7385 -1.0730
15205TIP3   OH267029   1.296   2.921   6.230  0.0676 -0.0114 -0.7737
15205TIP3    H167030   1.381   2.941   6.190  0.9066 -3.0681 -0.7267
15205TIP3    H267031   1.318   2.889   6.317 -1.2845  0.4654 -0.2407
15206TIP3   OH267032   5.325   2.293  13.310  0.4118  0.0328 -0.6309
15206TIP3    H167033   5.300   2.383  13.331 -1.0775 -0.5058  0.1104
15206TIP3    H267034   5.397   2.274  13.370 -1.7453 -0.4437  2.0359
15207TIP3   OH267035   0.058   0.369   5.203  0.3498 -0.1885 -0.5602
15207TIP3    H167036   0.021   0.405   5.283 -3.0646 -3.0702 -0.6052
15207TIP3    H267037   0.148   0.401   5.202 -0.1543  1.9188  3.1157
15208TIP3   OH267038   6.428   5.240  13.057  0.2435 -0.7733  0.3296
15208TIP3    H167039   6.369   5.182  13.009 -0.1056 -1.2013  1.2564
15208TIP3    H267040   6.372   5.310  13.090  0.2439 -1.1540  1.1706
15209TIP3   OH267041   5.428   3.703  12.235 -0.1243 -0.2150 -0.2592
15209TIP3    H167042   5.350   3.655  12.261  0.8126 -1.1537  0.9306
15209TIP3    H267043   5.446   3.674  12.146 -0.9983 -0.1582 -0.4578
15210TIP3   OH267044   3.588   5.827  13.487 -0.1873 -0.0105  0.4093
15210TIP3    H167045   3.615   5.851  13.399  1.6071  0.3234  1.0156
15210TIP3    H267046   3.551   5.739  13.478 -1.3380  0.5658 -0.8750
15211TIP3   OH267047   0.486   4.818   5.179  0.3619  0.3147  0.2247
15211TIP3    H167048   0.572   4.857   5.162  0.2606  1.0260  1.2173
15211TIP3    H267049   0.460   4.855   5.264 -0.3378 -0.9082  0.5684
15212TIP3   OH267050   4.257   1.677  16.742 -0.8309  0.4499 -0.1957
15212TIP3    H167051   4.336   1.623  16.738 -1.1596 -0.0271 -0.3252
15212TIP3    H267052   4.208   1.654  16.663 -3.2071 -2.5557  1.8791
15213TIP3   OH267053   0.124   6.360   5.187  0.1057 -1.0626 -0.5214
15213TIP3    H167054   0.205   6.403   5.159 -1.2802  2.8618  0.7990
15213TIP3    H267055   0.132   6.354   5.282 -0.9337 -1.1425 -0.4340
15214TIP3   OH267056   2.579   4.733  12.025 -0.0804  0.0847  0.1634
15214TIP3    H167057   2.649   4.684  11.984 -1.9074 -0.9638 -1.9141
15214TIP3    H267058   2.514   4.746  11.956 -1.7717  1.3644  1.8498
15215TIP3   OH267059   6.462   2.266   3.190  0.3351  0.2962  0.8825
15215TIP3    H167060   6.524   2.223   3.130 -1.0910  1.0725 -1.2828
15215TIP3    H267061   6.480   2.360   3.179  0.4312  0.4355  2.1387
15216TIP3   OH267062   2.349   5.751   6.611 -0.6241  0.0193  0.2855
15216TIP3    H167063   2.264   5.730   6.651 -0.6382  0.9324  0.7491
15216TIP3    H267064   2.371   5.837   6.645 -0.6812  0.9028 -1.7787
15217TIP3   OH267065   2.820   0.301   1.357 -0.5746 -0.1601 -0.1398
15217TIP3    H167066   2.803   0.214   1.321  0.1516 -0.1728 -0.4673
15217TIP3    H267067   2.739   0.324   1.403 -0.4168 -1.4237  0.8217
15218TIP3   OH267068   1.010   2.739   2.505  0.9169 -0.0001 -0.1916
15218TIP3    H167069   1.099   2.732   2.469  1.2414  1.4377  0.2645
15218TIP3    H267070   1.023   2.746   2.600  0.2426 -0.7950 -0.0337
15219TIP3   OH267071   2.182   2.927   0.954 -0.2877 -0.0340 -0.2285
15219TIP3    H167072   2.147   2.838   0.966 -0.1279 -0.1733 -0.7397
15219TIP3    H267073   2.270   2.923   0.992 -1.2447  0.6698  2.2215
15220TIP3   OH267074   4.459   6.102  16.701 -0.2743 -0.2021  0.2393
15220TIP3    H167075   4.465   6.042  16.626  0.7814  2.0752 -1.6215
15220TIP3    H267076   4.457   6.044  16.778 -0.7888 -2.6283 -1.4799
15221TIP3   OH267077   3.359   2.665   4.418  0.3740  0.3436  0.7844
15221TIP3    H167078   3.384   2.573   4.433  0.0133  0.1201  0.0721
15221TIP3    H267079   3.336   2.698   4.504 -1.1805 -0.7620  0.8370
15222TIP3   OH267080   1.996   0.040  13.895 -0.3383  0.4350 -0.1202
15222TIP3    H167081   1.982   0.134  13.887  0.4215  0.5640 -0.0649
15222TIP3    H267082   1.942   0.002  13.826  0.5516  1.0374 -1.1977
15223TIP3   OH267083   1.417   5.484   4.384  0.5154 -0.1950 -0.0265
15223TIP3    H167084   1.449   5.572   4.367 -0.7290  0.2269 -0.2908
15223TIP3    H267085   1.353   5.495   4.455 -0.7037 -0.6504 -1.0291
15224TIP3   OH267086   4.653   5.355   4.004  0.1184  0.0250  0.3696
15224TIP3    H167087   4.728   5.413   4.010  0.8445 -0.9012  0.5801
15224TIP3    H267088   4.584   5.408   3.965  0.9929  0.7919 -0.1762
15225TIP3   OH267089   4.267   5.000  13.485 -0.4265 -0.3085 -0.0244
15225TIP3    H167090   4.247   4.917  13.530  0.3608 -0.8851 -0.7130
15225TIP3    H267091   4.275   5.064  13.556 -0.8947 -0.8491  0.5297
15226TIP3   OH267092   6.082   4.344  16.377  0.0898 -0.4802 -0.0496
15226TIP3    H167093   6.126   4.314  16.297 -0.4668  0.0916 -0.5775
15226TIP3    H267094   6.073   4.438  16.366 -2.0399 -0.6752 -0.3565
15227TIP3   OH267095   0.721   0.569   3.817  0.2259 -0.0700  0.4541
15227TIP3    H167096   0.719   0.663   3.833 -0.2062 -0.2993  1.8630
15227TIP3    H267097   0.712   0.561   3.722  1.1519  1.3262  0.2185
15228TIP3   OH267098   3.643   4.350   6.588 -0.1740 -0.3716  0.3021
15228TIP3    H167099   3.673   4.432   6.549 -0.6881 -0.8576 -1.2059
15228TIP3    H267100   3.579   4.376   6.654  0.6296  0.4843  0.7565
15229TIP3   OH267101   3.451   4.974   4.675 -0.2074  0.0249  0.6329
15229TIP3    H167102   3.440   5.041   4.742  0.4252 -0.3765  1.1478
15229TIP3    H267103   3.403   4.898   4.708 -0.8344  0.1781  0.0998
15230TIP3   OH267104   3.470   2.799  17.006 -0.4068 -0.1968 -0.2585
15230TIP3    H167105   3.393   2.768  16.957 -0.1850  0.5657 -1.1225
15230TIP3    H267106   3.514   2.858  16.945 -0.7889  1.8145  1.3030
15231TIP3   OH267107   2.661   3.793   1.652 -0.0237 -0.4905 -0.4875
15231TIP3    H167108   2.567   3.810   1.646  0.0962 -0.2180 -1.8768
15231TIP3    H267109   2.677   3.726   1.586  1.0622  0.8488 -1.6499
15232TIP3   OH267110   0.095   4.155  12.758 -0.0012  0.3700 -0.2722
15232TIP3    H167111   0.155   4.201  12.818  2.3248 -1.0933 -1.3439
15232TIP3    H267112   0.085   4.068  12.797  0.3192 -0.0973 -1.2153
15233TIP3   OH267113   4.521   2.203  15.130 -0.7138 -0.3579  0.2166
15233TIP3    H167114   4.459   2.172  15.065 -1.6211 -2.2842  1.8728
15233TIP3    H267115   4.509   2.298  15.133 -1.3911 -0.3634 -1.6223
15234TIP3   OH267116   1.447   5.927   1.169  0.3043  0.3995 -0.2744
15234TIP3    H167117   1.488   5.867   1.231 -1.3369 -0.3711  0.1037
15234TIP3    H267118   1.353   5.921   1.187 -0.0016  2.2452 -0.9838
15235TIP3   OH267119   4.475   0.605  13.073  0.4368  0.1118  0.4402
15235TIP3    H167120   4.474   0.618  13.168 -1.1147  0.1824  0.4353
15235TIP3    H267121   4.388   0.573  13.052  0.5416  0.7187 -1.0574
15236TIP3   OH267122   6.635   2.921   5.374  0.3177  0.3972  0.0144
15236TIP3    H167123   6.609   2.980   5.303  0.7149 -0.8881 -1.2511
15236TIP3    H267124   6.619   2.834   5.339  2.4236 -0.3328  0.7343
15237TIP3   OH267125   5.262   1.137  12.586  0.2122  0.4634 -0.1124
15237TIP3    H167126   5.252   1.143  12.681 -2.2987  0.1858 -0.2897
15237TIP3    H267127   5.340   1.083  12.573  0.1976 -0.0799  1.7774
15238TIP3   OH267128   2.407   1.686  15.215  0.4257 -0.1842  0.2150
15238TIP3    H167129   2.445   1.773  15.202  0.5031 -0.3426 -0.7038
15238TIP3    H267130   2.312   1.700  15.212  0.4356 -0.2582 -0.9808
15239TIP3   OH267131   3.663   1.439   0.427  0.7576 -0.4478 -0.0397
15239TIP3    H167132   3.738   1.462   0.482  1.8762 -2.4419 -0.6005
15239TIP3    H267133   3.697   1.371   0.368 -1.1578 -0.4543 -1.2178
15240TIP3   OH267134   4.547   3.555  13.149  0.8301 -0.3957  0.4819
15240TIP3    H167135   4.589   3.637  13.123 -0.5003  0.0063 -0.5499
15240TIP3    H267136   4.509   3.573  13.235 -1.0768  0.7526 -0.5329
15241TIP3   OH267137   6.454   4.577   5.036  0.2302  0.4967  0.3878
15241TIP3    H167138   6.388   4.586   5.105 -1.1314  0.4115 -0.8347
15241TIP3    H267139   6.491   4.665   5.026  0.3056  0.5472  1.0917
15242TIP3   OH267140   5.614   0.858   5.203  0.5360 -0.3023  0.4123
15242TIP3    H167141   5.639   0.899   5.120  0.2899 -1.1697 -0.1062
15242TIP3    H267142   5.618   0.764   5.185 -1.1570 -0.5022  0.8816
15243TIP3   OH267143   0.884   5.637  11.894 -0.7893 -0.3504  0.0356
15243TIP3    H167144   0.799   5.682  11.898 -1.2137 -1.0800 -0.5412
15243TIP3    H267145   0.905   5.633  11.801 -0.3722 -0.6381  0.1387
15244TIP3   OH267146   2.518   6.096  11.360 -0.1183 -0.2840 -0.4241
15244TIP3    H167147   2.441   6.039  11.353 -0.0770 -0.4603  0.4511
15244TIP3    H267148   2.487   6.171  11.411  0.1600 -0.1074 -0.5150
15245TIP3   OH267149   0.054   4.217   5.554 -0.3434  0.0166  0.3384
15245TIP3    H167150   0.056   4.312   5.549 -0.3255  0.0367  0.7332
15245TIP3    H267151  -0.030   4.192   5.516  0.3110  0.0978 -1.2411
15246TIP3   OH267152   2.412   0.415   1.801 -0.4074 -0.0470  0.3978
15246TIP3    H167153   2.411   0.339   1.743  0.4871 -0.0141  0.3367
15246TIP3    H267154   2.336   0.467   1.772 -0.2469 -0.2606 -0.4496
15247TIP3   OH267155   6.662   2.346   5.491 -0.4177 -0.6621  0.4325
15247TIP3    H167156   6.664   2.257   5.454 -2.2208  0.2320 -2.0779
15247TIP3    H267157   6.691   2.402   5.419  1.2449  0.7977  2.1496
15248TIP3   OH267158   4.013   2.785   4.617  0.3136 -0.7721  0.8844
15248TIP3    H167159   4.035   2.695   4.592  1.1007 -0.2267 -0.4803
15248TIP3    H267160   3.917   2.784   4.625  0.3105 -1.7267  0.8954
15249TIP3   OH267161   6.487   0.759  12.043  0.0519  0.2266  0.2921
15249TIP3    H167162   6.397   0.725  12.048  0.7899 -2.1030 -0.8222
15249TIP3    H267163   6.538   0.700  12.098  1.3692 -0.4218 -1.5328
15250TIP3   OH267164   1.175   1.852  13.030 -1.0386  0.2913  0.1951
15250TIP3    H167165   1.229   1.930  13.033 -2.6706  1.4427  1.7822
15250TIP3    H267166   1.146   1.839  13.120 -2.5650 -0.8578 -0.4143
15251TIP3   OH267167   4.111   0.199  15.208  0.6774 -0.2539 -0.1000
15251TIP3    H167168   4.096   0.177  15.300  3.6988  0.0642  0.5734
15251TIP3    H267169   4.104   0.115  15.162 -0.1203 -0.5285  0.5008
15252TIP3   OH267170   3.159   4.424   0.082 -0.2939 -0.0083 -0.5305
15252TIP3    H167171   3.068   4.441   0.105 -0.5195 -0.0722 -1.3314
15252TIP3    H267172   3.210   4.476   0.144 -0.7683 -2.2481  1.8955
15253TIP3   OH267173   4.323   1.184  13.727 -0.6265  0.0560 -0.5987
15253TIP3    H167174   4.335   1.276  13.749  4.0223 -0.2902 -0.6743
15253TIP3    H267175   4.329   1.138  13.811 -2.1653 -0.2916 -0.6464
15254TIP3   OH267176   3.845   5.417   2.003  0.2753  1.1747  0.1806
15254TIP3    H167177   3.842   5.341   1.945  0.3024  1.9217 -0.8076
15254TIP3    H267178   3.816   5.490   1.949 -2.1515  1.5030  1.7441
15255TIP3   OH267179   1.746   1.596   2.495  0.1623 -0.0265 -0.3198
15255TIP3    H167180   1.759   1.674   2.439 -1.0375  2.1696  2.2353
15255TIP3    H267181   1.821   1.597   2.555 -0.7708  0.2627  0.8801
15256TIP3   OH267182   0.360   1.500  15.728 -0.2671 -0.3789  1.0207
15256TIP3    H167183   0.343   1.467  15.817  0.8791 -0.5727  1.1847
15256TIP3    H267184   0.438   1.555  15.738 -1.4629  1.5041  0.5358
15257TIP3   OH267185   1.947   3.716  15.263 -0.1650  0.2053 -0.0343
15257TIP3    H167186   2.027   3.729  15.314  0.1591 -1.6592 -0.0263
15257TIP3    H267187   1.953   3.781  15.193  2.1157 -0.8391 -0.9125
15258TIP3   OH267188   1.822   3.925  12.084  0.6341  0.3732  0.0409
15258TIP3    H167189   1.827   3.883  12.169 -0.6203  0.3838  0.1382
15258TIP3    H267190   1.890   3.992  12.086  0.8814  0.1065  0.8798
15259TIP3   OH267191   3.291   1.698   0.762 -0.1530  0.4022 -0.7466
15259TIP3    H167192   3.371   1.649   0.742  0.9623  1.8887 -0.0882
15259TIP3    H267193   3.232   1.676   0.690  1.4349  0.5196 -2.1812
15260TIP3   OH267194   2.628   0.867  16.879  0.7741  0.1530 -0.2182
15260TIP3    H167195   2.668   0.817  16.808  0.0775  0.9121 -1.1714
15260TIP3    H267196   2.535   0.844  16.876  0.6797  0.4562  0.2313
15261TIP3   OH267197   2.882   3.290  16.426 -0.1560  0.5459 -0.5365
15261TIP3    H167198   2.924   3.300  16.340 -0.0151 -0.4420 -0.5919
15261TIP3    H267199   2.873   3.195  16.437 -1.0805  0.6989  0.1019
15262TIP3   OH267200   3.111   5.493   0.999  0.0877  0.8746 -0.2318
15262TIP3    H167201   3.176   5.428   0.973 -1.1675 -0.1191 -1.0141
15262TIP3    H267202   3.050   5.444   1.055 -2.2334  0.6283 -2.7404
15263TIP3   OH267203   1.341   3.770   1.340 -0.0173 -0.0148 -0.4092
15263TIP3    H167204   1.257   3.815   1.341  0.1826  0.3922 -0.9995
15263TIP3    H267205   1.406   3.840   1.343  0.3128 -0.3470  0.6327
15264TIP3   OH267206   0.665   0.500  13.803  0.3123  0.3880 -0.2804
15264TIP3    H167207   0.581   0.481  13.762  0.6333 -0.3882 -0.5984
15264TIP3    H267208   0.718   0.421  13.788  2.0332  1.8211 -2.5336
15265TIP3   OH267209   6.701   0.524   3.324  0.0511 -0.0470  0.3485
15265TIP3    H167210   6.607   0.534   3.307  0.1058 -2.2244 -1.7462
15265TIP3    H267211   6.742   0.593   3.272 -0.3310  0.8750  1.2244
15266TIP3   OH267212   3.897   6.753   1.499  0.1327 -0.0150 -0.0844
15266TIP3    H167213   3.904   6.698   1.421 -0.4240  1.2114 -1.0306
15266TIP3    H267214   3.970   6.725   1.555 -0.2838 -1.8739 -0.4044
15267TIP3   OH267215   1.784   2.334   3.374  0.4412 -0.4093  0.3226
15267TIP3    H167216   1.839   2.412   3.386  2.8599 -1.7124 -1.4049
15267TIP3    H267217   1.752   2.340   3.285  0.2981 -1.1720  0.3146
15268TIP3   OH267218   5.075   5.274  15.155 -0.1479  0.4053 -0.0085
15268TIP3    H167219   5.156   5.271  15.207 -0.4540 -0.1321  0.4427
15268TIP3    H267220   5.057   5.368  15.145  0.1739  0.5238  0.4572
15269TIP3   OH267221   0.948   0.742  16.023 -0.3335 -0.0098 -0.1947
15269TIP3    H167222   0.943   0.728  16.117 -0.6575  0.9277 -0.0634
15269TIP3    H267223   0.912   0.830  16.009  2.7478  1.2838 -0.8139
15270TIP3   OH267224   3.669   2.721   3.854  0.2135  0.3165  0.5680
15270TIP3    H167225   3.656   2.684   3.767  0.4418  1.3923  0.0565
15270TIP3    H267226   3.752   2.684   3.884  1.3637  1.7207 -0.6835
15271TIP3   OH267227   3.245   4.440   5.452 -0.3513 -0.3004  0.4305
15271TIP3    H167228   3.276   4.472   5.537 -0.5274  0.6857  0.1370
15271TIP3    H267229   3.214   4.519   5.407 -0.5943 -0.8663 -0.4082
15272TIP3   OH267230   6.399   4.124   6.229  0.2708 -0.2335 -0.1842
15272TIP3    H167231   6.309   4.129   6.259 -0.0110 -0.6471 -0.9326
15272TIP3    H267232   6.422   4.215   6.206 -0.1067 -0.1942 -0.4179
15273TIP3   OH267233   6.626   5.327   2.026  0.2442 -0.5322 -0.1456
15273TIP3    H167234   6.624   5.260   1.957 -1.8154 -0.6844  0.0049
15273TIP3    H267235   6.596   5.281   2.105  0.4229  0.1747  0.3423
15274TIP3   OH267236   4.244   0.680  11.307  0.2599  0.7684  0.0238
15274TIP3    H167237   4.210   0.757  11.262 -0.6631  0.4168  0.0989
15274TIP3    H267238   4.277   0.624  11.237 -0.7634  0.4192 -0.1824
15275TIP3   OH267239   1.593   1.884   4.310  0.0153  0.3671  0.8276
15275TIP3    H167240   1.671   1.880   4.365 -0.1675  1.4838  1.2039
15275TIP3    H267241   1.558   1.972   4.325 -2.6801 -0.8511  2.5719
15276TIP3   OH267242   3.239   1.044   3.550 -0.4750 -0.0348 -0.2961
15276TIP3    H167243   3.305   0.986   3.511  1.1517 -0.3119  2.5652
15276TIP3    H267244   3.291   1.111   3.595 -2.1932  0.3227  1.2388
15277TIP3   OH267245   2.328   4.359   2.438 -0.3961 -0.2429 -0.3989
15277TIP3    H167246   2.323   4.449   2.407  1.5454  0.2201  0.5141
15277TIP3    H267247   2.308   4.365   2.532  1.4664 -0.4557  0.0503
15278TIP3   OH267248   6.149   6.747  11.861 -0.6137  0.1515 -0.1584
15278TIP3    H167249   6.068   6.721  11.905  0.5242 -1.0004  1.3680
15278TIP3    H267250   6.124   6.758  11.769 -2.7142  0.9550  0.4518
15279TIP3   OH267251   4.626   4.308   1.995  0.0435  0.3327  0.0701
15279TIP3    H167252   4.576   4.228   2.011  0.5147 -0.4260 -1.9285
15279TIP3    H267253   4.716   4.285   2.019 -0.1240  0.9163  1.3364
15280TIP3   OH267254   3.810   1.897   5.251 -0.0451 -0.1260  0.0988
15280TIP3    H167255   3.798   1.991   5.262 -0.0274 -0.0792 -0.2792
15280TIP3    H267256   3.901   1.887   5.224 -0.4629 -0.1174 -1.4012
15281TIP3   OH267257   2.528   4.235   6.666  0.2847 -0.3809  0.0173
15281TIP3    H167258   2.504   4.327   6.680 -0.1316 -0.2178 -1.5909
15281TIP3    H267259   2.446   4.193   6.637  0.3727 -1.3611  1.1129
15282TIP3   OH267260   5.552   3.163   3.722 -0.4559  0.3142  0.1889
15282TIP3    H167261   5.637   3.143   3.683 -0.7154  0.1682 -0.3027
15282TIP3    H267262   5.521   3.240   3.675 -0.6670  0.2757  0.2607
15283TIP3   OH267263   3.955   5.558   0.376 -0.1043  0.0038 -0.2778
15283TIP3    H167264   3.875   5.529   0.332 -0.2261  1.0249 -0.7573
15283TIP3    H267265   3.950   5.517   0.462 -0.0649 -1.7016 -1.0410
15284TIP3   OH267266   1.810   3.237   0.538 -0.3797 -0.5174  0.1540
15284TIP3    H167267   1.719   3.262   0.553 -0.2929  0.7311 -1.1446
15284TIP3    H267268   1.838   3.293   0.466  1.0929 -1.6646 -0.2011
15285TIP3   OH267269   6.690   2.221   3.422  0.4880  0.4287  0.3016
15285TIP3    H167270   6.712   2.310   3.447 -0.2448  0.6013  0.3654
15285TIP3    H267271   6.607   2.203   3.468 -0.6958  0.6095 -1.6592
15286TIP3   OH267272   6.611   4.288   4.610 -0.2482  0.1300 -0.7539
15286TIP3    H167273   6.696   4.266   4.571  0.5549  1.0149  0.4102
15286TIP3    H267274   6.633   4.350   4.680 -2.0039  1.5731 -1.4046
15287TIP3   OH267275   3.917   3.968  17.118 -0.3866  0.2395 -0.3479
15287TIP3    H167276   3.875   4.032  17.062 -1.3632  1.9070  2.1306
15287TIP3    H267277   3.848   3.907  17.142 -0.3273  0.3760  0.1813
15288TIP3   OH267278   5.548   5.748  15.013 -0.1780 -0.1387 -0.0030
15288TIP3    H167279   5.543   5.665  15.059  0.1463  0.9913  2.1971
15288TIP3    H267280   5.624   5.740  14.956 -0.7931 -1.6954 -0.6600
15289TIP3   OH267281   6.509   3.171  15.152 -0.2020 -0.3161 -0.5714
15289TIP3    H167282   6.443   3.101  15.153 -0.7855  0.2221 -0.3400
15289TIP3    H267283   6.484   3.228  15.225 -0.1623  0.5175 -1.1999
15290TIP3   OH267284   4.537   4.602   3.999  0.3046  0.0116 -0.1523
15290TIP3    H167285   4.557   4.685   3.955 -1.2804 -0.0222 -1.0346
15290TIP3    H267286   4.619   4.575   4.039  1.2771  1.1617 -1.2900
15291TIP3   OH267287   1.199   6.322   2.611  0.1984 -0.2345 -0.2735
15291TIP3    H167288   1.169   6.400   2.564  0.6303  1.5564  2.2259
15291TIP3    H267289   1.139   6.253   2.582 -0.3476  1.0271 -2.4117
15292TIP3   OH267290   2.982   3.290  16.838 -0.5575  0.3418  0.3246
15292TIP3    H167291   2.911   3.291  16.902 -2.0784 -1.8569 -1.2164
15292TIP3    H267292   2.939   3.302  16.753  0.7724 -1.7814 -0.7347
15293TIP3   OH267293   4.814   2.466  15.507  0.2837 -0.4814  0.5691
15293TIP3    H167294   4.871   2.402  15.551  0.6636 -0.2401  0.4288
15293TIP3    H267295   4.725   2.434  15.524  0.4438 -0.6395  1.1349
15294TIP3   OH267296   3.884   2.909   1.287  0.4367 -0.3164  0.6565
15294TIP3    H167297   3.958   2.888   1.344  0.7085  1.1105  0.8472
15294TIP3    H267298   3.913   2.984   1.235 -0.8442  0.2165  0.6682
15295TIP3   OH267299   1.951   4.600  13.880  0.2344 -0.0893 -0.0437
15295TIP3    H167300   2.003   4.678  13.900 -2.0413  1.9043 -1.5015
15295TIP3    H267301   1.973   4.579  13.789  0.6520 -1.0655  0.2615
15296TIP3   OH267302   2.138   3.056  14.710 -0.1594  0.4514  0.7927
15296TIP3    H167303   2.187   3.115  14.767  0.2973 -0.0306  0.9083
15296TIP3    H267304   2.075   3.112  14.665  0.5202  1.0926  0.6179
15297TIP3   OH267305   3.659   1.922   1.262  0.3976  0.2929  0.1233
15297TIP3    H167306   3.605   1.956   1.333  1.5936  4.0839 -0.5569
15297TIP3    H267307   3.608   1.849   1.226 -0.9991 -0.7063  3.7181
15298TIP3   OH267308   6.524   1.146   4.965  0.0676 -0.0476 -0.1914
15298TIP3    H167309   6.567   1.120   4.883 -1.1600 -0.2641 -0.7791
15298TIP3    H267310   6.433   1.160   4.942  0.0603  1.8048  0.7467
15299TIP3   OH267311   1.710   0.526   1.265 -0.1993 -0.5379 -0.5420
15299TIP3    H167312   1.795   0.485   1.254  0.4814  1.0177 -1.4730
15299TIP3    H267313   1.648   0.467   1.222  0.5184 -1.3166 -0.5160
15300TIP3   OH267314   1.110   1.777   0.470 -0.2069 -0.2059  0.4927
15300TIP3    H167315   1.115   1.683   0.487  1.5655 -0.1331  0.6084
15300TIP3    H267316   1.112   1.817   0.557 -1.0422 -0.0406  0.4480
15301TIP3   OH267317   5.750   1.162   6.461  0.1175 -0.0155 -0.2757
15301TIP3    H167318   5.841   1.134   6.471  0.5493  1.2305 -0.4685
15301TIP3    H267319   5.706   1.088   6.420  1.3178 -0.1989 -1.2790
15302TIP3   OH267320   5.718   4.042  13.825  0.5627 -0.0374 -0.1554
15302TIP3    H167321   5.675   3.975  13.878  1.5530 -0.4910  0.0962
15302TIP3    H267322   5.680   4.031  13.738 -0.6472  0.3253  0.3127
15303TIP3   OH267323   5.298   5.828  12.820 -0.5489  0.6112 -0.1757
15303TIP3    H167324   5.210   5.792  12.807  0.0836 -0.7685 -0.9485
15303TIP3    H267325   5.288   5.891  12.891 -1.4503 -2.3294  2.5142
15304TIP3   OH267326   6.648   4.879  15.718 -0.3445 -0.2152  0.6542
15304TIP3    H167327   6.578   4.884  15.653  0.1093  1.8367  0.2305
15304TIP3    H267328   6.620   4.939  15.788  0.1526 -0.7779  1.3542
15305TIP3   OH267329   3.644   5.821  16.380  0.4875 -0.5989 -0.5199
15305TIP3    H167330   3.713   5.844  16.318  0.3903 -0.2171 -0.4849
15305TIP3    H267331   3.571   5.792  16.325  0.6001 -0.8115 -0.5606
15306TIP3   OH267332   1.481   5.037   4.726  0.2795 -0.3433 -0.2238
15306TIP3    H167333   1.499   4.948   4.697  1.9692 -0.0201 -0.2529
15306TIP3    H267334   1.414   5.027   4.794  0.2754 -1.6025 -0.3964
15307TIP3   OH267335   5.370   4.896  15.422 -0.3185 -1.2088 -0.4548
15307TIP3    H167336   5.294   4.950  15.443  0.3562 -0.6332  0.5954
15307TIP3    H267337   5.372   4.893  15.326  0.0396  1.2802 -0.5967
15308TIP3   OH267338   6.067   3.122   4.149 -0.3898 -0.3721 -0.2310
15308TIP3    H167339   6.014   3.051   4.111  0.1002 -1.1496  0.5003
15308TIP3    H267340   6.031   3.202   4.110 -0.2981 -1.0807 -1.8754
15309TIP3   OH267341   2.824   1.225   0.161 -0.0481  0.4417 -0.5233
15309TIP3    H167342   2.853   1.292   0.224 -0.4763  1.8217 -1.7240
15309TIP3    H267343   2.903   1.174   0.142  0.5446  1.2692 -0.3555
15310TIP3   OH267344   5.076   4.876  15.985  0.0130 -0.5535  0.5720
15310TIP3    H167345   5.116   4.829  16.059  0.2958 -0.8704  0.2197
15310TIP3    H267346   4.982   4.871  16.003  0.0530 -1.0432  0.6731
15311TIP3   OH267347   3.152   1.490   4.170  0.0890 -0.0756 -0.0817
15311TIP3    H167348   3.177   1.400   4.190 -1.1460 -0.1013  1.4432
15311TIP3    H267349   3.110   1.522   4.249 -0.1223  1.6281 -0.8406
15312TIP3   OH267350   0.831   2.815  15.432 -0.0431 -0.0974  0.3042
15312TIP3    H167351   0.754   2.758  15.428  0.7538 -1.1819 -0.1013
15312TIP3    H267352   0.806   2.885  15.492 -1.5232 -0.1423 -0.2052
15313TIP3   OH267353   3.516   3.422   0.838  0.1538 -0.3198 -0.1146
15313TIP3    H167354   3.603   3.413   0.876 -0.3645 -0.3437  1.0847
15313TIP3    H267355   3.456   3.389   0.904 -0.9084  1.2767 -0.2118
15314TIP3   OH267356   3.513   6.167  15.648 -0.3695 -0.1128  0.0883
15314TIP3    H167357   3.499   6.075  15.625  4.3093 -1.4308  1.4621
15314TIP3    H267358   3.570   6.200  15.579  1.0784  0.5381  1.5434
15315TIP3   OH267359   0.415   5.859   5.097 -0.0813  1.0655  0.8829
15315TIP3    H167360   0.384   5.887   5.011 -0.6678  2.1169  1.4180
15315TIP3    H267361   0.356   5.787   5.121  0.4938  0.3232  0.1468
15316TIP3   OH267362   2.364   3.887  16.779 -0.7283  0.1111 -0.1042
15316TIP3    H167363   2.459   3.878  16.773 -0.7637 -0.6089  0.3420
15316TIP3    H267364   2.345   3.967  16.730  0.0737  0.0994 -0.4532
15317TIP3   OH267365   2.018   5.895   0.691  0.4902  0.6930 -0.0378
15317TIP3    H167366   2.000   5.817   0.640  0.5454  0.0930  0.8377
15317TIP3    H267367   2.113   5.900   0.696  0.5058  1.3102 -0.8229
15318TIP3   OH267368   5.192   3.510  14.792  0.1550 -0.2730  0.5543
15318TIP3    H167369   5.212   3.572  14.721 -0.5010  0.2390  0.8112
15318TIP3    H267370   5.111   3.468  14.764  0.1515 -0.4125  0.7790
15319TIP3   OH267371   0.002   3.499  11.647  0.0428 -0.1871  0.1847
15319TIP3    H167372   0.098   3.506  11.647  0.1514 -0.7574 -2.0140
15319TIP3    H267373  -0.016   3.416  11.603 -1.4327  1.1156 -1.8706
15320TIP3   OH267374   1.385   2.026  12.127  0.1114  1.0849 -0.2369
15320TIP3    H167375   1.430   2.110  12.119  0.6118  0.6973 -1.9642
15320TIP3    H267376   1.398   2.001  12.218  0.9015  2.3666  0.0306
15321TIP3   OH267377   2.307   3.358   0.249  0.1627 -0.4551 -0.4679
15321TIP3    H167378   2.234   3.297   0.244  1.0251 -1.4914 -0.8686
15321TIP3    H267379   2.378   3.306   0.288  0.3404  0.8674  1.0626
15322TIP3   OH267380   4.380   6.591  15.434 -0.5459  0.3506  0.3391
15322TIP3    H167381   4.472   6.610  15.419 -0.0069 -0.2816  2.4333
15322TIP3    H267382   4.340   6.676  15.453  0.1794  0.3909  1.8706
15323TIP3   OH267383   0.994   1.707  14.834  0.0938 -0.1639 -0.9052
15323TIP3    H167384   0.903   1.711  14.804  0.4612  0.1884 -1.9886
15323TIP3    H267385   1.032   1.791  14.808  0.8843 -0.5308 -0.9484
15324TIP3   OH267386   6.307   4.286   5.679 -0.3630 -0.1413 -0.0533
15324TIP3    H167387   6.247   4.267   5.606 -1.1234  1.5353  0.0972
15324TIP3    H267388   6.392   4.298   5.637 -0.8493  1.1012 -0.7441
15325TIP3   OH267389   5.196   6.248  13.687  0.4950  0.2608  0.6030
15325TIP3    H167390   5.212   6.155  13.706  0.3942  0.4571  1.7222
15325TIP3    H267391   5.189   6.289  13.773  1.4729  1.4778  0.1354
15326TIP3   OH267392   2.666   4.527   2.788 -0.1813  0.2211 -0.4366
15326TIP3    H167393   2.707   4.613   2.795  1.1525 -0.4105 -0.3019
15326TIP3    H267394   2.712   4.484   2.717  0.4162 -1.0546  0.6917
15327TIP3   OH267395   2.600   0.362  14.340 -0.4062  0.4595  0.3544
15327TIP3    H167396   2.529   0.370  14.405 -0.0822  1.7525  0.5651
15327TIP3    H267397   2.660   0.433  14.360 -0.3481  0.9675 -1.4471
15328TIP3   OH267398   0.072   2.449   5.296 -0.5455  0.1788  0.7447
15328TIP3    H167399   0.158   2.422   5.328 -1.1786 -2.0584  0.7034
15328TIP3    H267400   0.090   2.503   5.219  0.8148 -1.4651 -0.1446
15329TIP3   OH267401   5.259   6.341   0.078 -0.0511 -0.3855 -0.1954
15329TIP3    H167402   5.262   6.263   0.132 -1.8088  0.2076  0.8401
15329TIP3    H267403   5.236   6.412   0.139  1.1337  0.8861 -1.1580
15330TIP3   OH267404   6.096   4.997  14.871  0.3036  0.5369  0.3090
15330TIP3    H167405   6.136   5.063  14.814 -2.5902  1.5213 -0.7697
15330TIP3    H267406   6.138   5.010  14.956  0.6185  3.0513 -0.1471
15331TIP3   OH267407   2.394   0.651   4.399  0.3720 -0.2184  0.2494
15331TIP3    H167408   2.464   0.714   4.420  1.4028 -0.6415 -1.7005
15331TIP3    H267409   2.405   0.633   4.306 -1.3393 -1.5719  0.2619
15332TIP3   OH267410   3.677   5.842   1.193 -0.5454 -0.2192  0.3753
15332TIP3    H167411   3.764   5.875   1.212 -0.3870 -0.7743  0.6419
15332TIP3    H267412   3.628   5.919   1.164  0.2772 -0.0696 -0.6712
15333TIP3   OH267413   5.947   4.632  15.207  0.0284 -0.3278 -0.3157
15333TIP3    H167414   5.957   4.630  15.302  0.1614 -0.4149 -0.3312
15333TIP3    H267415   5.853   4.630  15.193  0.0163 -0.6131 -0.1926
15334TIP3   OH267416   0.626   3.308   6.145  0.7371 -0.6808  0.0810
15334TIP3    H167417   0.534   3.316   6.172  0.6193 -0.3308 -0.3945
15334TIP3    H267418   0.629   3.226   6.096 -0.0082  0.6294 -2.4003
15335TIP3   OH267419   5.345   4.715  15.002  0.1595 -0.0721 -0.3348
15335TIP3    H167420   5.398   4.702  14.923  3.2266  0.8500  1.4010
15335TIP3    H267421   5.360   4.637  15.054  0.5752  0.5883  0.5657
15336TIP3   OH267422   5.868   3.610  15.875  0.1721 -0.4945  0.2195
15336TIP3    H167423   5.806   3.599  15.803  1.3232 -0.0690 -0.8837
15336TIP3    H267424   5.876   3.704  15.886  1.8919 -0.4736 -0.8489
15337TIP3   OH267425   1.578   0.709  15.087 -0.0121 -0.0605  0.1581
15337TIP3    H167426   1.672   0.693  15.078  0.2811  1.3643  0.4394
15337TIP3    H267427   1.544   0.631  15.130  0.7207 -1.3793 -1.5360
15338TIP3   OH267428   2.160   0.556   0.663  0.3436  0.6375  0.2232
15338TIP3    H167429   2.117   0.483   0.708  0.2209  1.3898  1.3740
15338TIP3    H267430   2.179   0.522   0.576 -0.3217 -0.5436  0.5071
15339TIP3   OH267431   2.047   6.770  14.146 -0.3614  0.3286  0.3297
15339TIP3    H167432   2.010   6.802  14.064  0.9079  3.2360  0.7794
15339TIP3    H267433   2.110   6.703  14.120  0.8692  2.0076 -1.2383
15340TIP3   OH267434   4.690   4.189  17.036  0.8624  0.5721  0.6166
15340TIP3    H167435   4.638   4.270  17.031 -0.5964 -0.3822 -1.1786
15340TIP3    H267436   4.764   4.205  16.979  1.2672  1.0769  1.2693
15341TIP3   OH267437   3.053   4.326   3.369 -0.4693  0.3185 -0.0507
15341TIP3    H167438   3.065   4.287   3.282 -0.1412  0.0205  0.1223
15341TIP3    H267439   3.093   4.262   3.429  4.0483  2.7721 -0.0456
15342TIP3   OH267440   2.049   2.177  12.203 -0.1333 -0.2232 -0.3119
15342TIP3    H167441   2.093   2.234  12.266 -1.3664  2.1965 -1.5161
15342TIP3    H267442   2.108   2.176  12.127  0.3129 -1.3715  0.0198
15343TIP3   OH267443   0.391   2.439  15.854  0.0081 -0.0322 -0.4699
15343TIP3    H167444   0.459   2.374  15.869  0.1096  0.3403  0.7712
15343TIP3    H267445   0.371   2.474  15.941 -0.4041  1.2246 -1.0419
15344TIP3   OH267446   3.554   1.429  15.396  0.1428 -0.3550  0.0245
15344TIP3    H167447   3.648   1.414  15.384  0.2031 -1.1132  1.3309
15344TIP3    H267448   3.515   1.342  15.394 -0.7907  0.0366 -2.1790
15345TIP3   OH267449   0.775   0.146  16.378 -0.1793 -0.0358 -0.4045
15345TIP3    H167450   0.709   0.189  16.324 -0.5085 -0.4935 -0.3690
15345TIP3    H267451   0.851   0.205  16.376 -0.5663  0.4564 -0.4965
15346TIP3   OH267452   2.818   0.796  14.297  0.0693  0.2022 -0.3370
15346TIP3    H167453   2.811   0.890  14.312 -0.6398 -0.0121  0.7861
15346TIP3    H267454   2.742   0.759  14.342 -0.6481 -0.7686 -2.2458
15347TIP3   OH267455   4.680   5.353  11.547 -0.5552 -0.2039 -0.0097
15347TIP3    H167456   4.699   5.297  11.472  2.6183  0.5458  0.0764
15347TIP3    H267457   4.738   5.428  11.536 -0.8805  0.5381  2.5670
15348TIP3   OH267458   5.627   3.402   1.965  0.1635 -0.1495  0.2232
15348TIP3    H167459   5.570   3.479   1.971 -1.0410 -0.9419 -0.6346
15348TIP3    H267460   5.608   3.352   2.045 -1.5189 -1.1551 -0.7530
15349TIP3   OH267461   2.665   0.880  12.846 -0.1058  0.2473 -0.0548
15349TIP3    H167462   2.723   0.934  12.792 -0.6104  0.8156 -0.0447
15349TIP3    H267463   2.669   0.920  12.933  1.4811 -1.2691  0.6173
15350TIP3   OH267464   0.237   1.021  14.443  0.4817 -0.4973  0.2183
15350TIP3    H167465   0.144   1.011  14.421  0.4324 -1.6628  0.8849
15350TIP3    H267466   0.253   0.953  14.508  1.9838 -0.7421 -0.3828
15351TIP3   OH267467   3.075   0.482  16.129  0.3568  0.1944 -0.8772
15351TIP3    H167468   3.156   0.524  16.103  0.1008  1.7179  0.5724
15351TIP3    H267469   3.006   0.542  16.099 -0.1078  0.0168 -0.1970
15352TIP3   OH267470   0.035   2.155   4.457 -0.0862  0.0496 -0.0444
15352TIP3    H167471   0.124   2.130   4.484 -0.3834 -0.1268  0.7970
15352TIP3    H267472   0.013   2.230   4.512 -0.8192 -0.5027  0.4354
15353TIP3   OH267473   2.155   5.902   2.077  0.5651 -0.1534  0.2962
15353TIP3    H167474   2.170   5.814   2.111  3.6562  0.2125  0.1620
15353TIP3    H267475   2.190   5.960   2.145 -0.3143  0.9415 -0.1483
15354TIP3   OH267476   3.285   5.524   1.363 -0.4692  0.5284  1.0513
15354TIP3    H167477   3.373   5.561   1.367  0.2575 -0.6725 -1.6293
15354TIP3    H267478   3.286   5.469   1.285 -3.2831 -0.4121  1.5785
15355TIP3   OH267479   5.017   5.629   2.884  0.1026 -0.3794  0.0591
15355TIP3    H167480   5.112   5.614   2.890  0.5109  1.3469 -1.2654
15355TIP3    H267481   4.990   5.582   2.805 -0.2786 -1.3330  0.7388
15356TIP3   OH267482   3.353   5.526  13.875  0.1111 -0.3938  0.5719
15356TIP3    H167483   3.441   5.560  13.859  0.5334 -1.3558  0.7593
15356TIP3    H267484   3.299   5.604  13.889  0.3486  0.3967 -2.2042
15357TIP3   OH267485   5.503   6.286   5.570 -0.1932  0.2618 -0.4068
15357TIP3    H167486   5.522   6.356   5.633 -0.0350 -0.3535  0.2406
15357TIP3    H267487   5.414   6.305   5.539 -0.0159  0.9465 -0.5012
15358TIP3   OH267488   2.958   4.353  14.955 -0.3073  0.0646  0.6182
15358TIP3    H167489   2.915   4.433  14.985  0.2151  0.2093  1.0018
15358TIP3    H267490   2.995   4.315  15.034 -0.1530 -0.3140  0.3664
15359TIP3   OH267491   5.646   3.882  15.777  0.5127  0.6529  0.3423
15359TIP3    H167492   5.584   3.826  15.730  0.9037  0.5571 -0.0733
15359TIP3    H267493   5.595   3.958  15.805 -0.3159 -0.4515  1.9710
15360TIP3   OH267494   1.062   4.652  13.362 -0.1127 -0.0177  0.1514
15360TIP3    H167495   1.118   4.661  13.285  1.7852 -1.5817  1.2435
15360TIP3    H267496   0.976   4.630  13.327  0.0187  1.8937 -1.5737
15361TIP3   OH267497   3.857   1.367   0.238  0.6119  0.0159  0.3918
15361TIP3    H167498   3.931   1.398   0.289  0.1054  0.4402  0.8864
15361TIP3    H267499   3.856   1.273   0.251  1.5930 -0.1149 -0.3444
15362TIP3   OH267500   1.172   2.382  16.234 -0.4963  0.0215 -0.2096
15362TIP3    H167501   1.131   2.464  16.205  2.1519  1.5720  0.1201
15362TIP3    H267502   1.221   2.351  16.159  2.5176  1.4961  1.0061
15363TIP3   OH267503   0.502   1.534   0.643 -0.4382 -0.0472 -0.0326
15363TIP3    H167504   0.541   1.617   0.672 -1.4629 -0.0588  1.5153
15363TIP3    H267505   0.562   1.501   0.576  0.7162  1.2746  0.3042
15364TIP3   OH267506   2.634   0.264  16.283  0.0342  0.9542 -0.3132
15364TIP3    H167507   2.650   0.244  16.375 -2.0594  0.2546 -0.0397
15364TIP3    H267508   2.540   0.251  16.272  0.5329 -1.3578 -3.1077
15365TIP3   OH267509   4.154   4.785   0.104  0.3110 -0.6100 -0.2087
15365TIP3    H167510   4.211   4.707   0.102  0.3253 -0.6307 -2.8202
15365TIP3    H267511   4.127   4.792   0.195  2.1051 -2.3604  0.5530
15366TIP3   OH267512   3.399   5.250  13.954  0.5525  0.5402  0.3376
15366TIP3    H167513   3.432   5.214  13.872 -0.1678  0.4870  0.0618
15366TIP3    H267514   3.399   5.345  13.940  0.3685  0.5274  0.2523
15367TIP3   OH267515   4.128   2.485   3.380  0.3695  0.6781 -0.2125
15367TIP3    H167516   4.072   2.562   3.375 -0.7924 -0.0684  0.7518
15367TIP3    H267517   4.088   2.430   3.447  0.4781 -1.3003 -1.6791
15368TIP3   OH267518   0.578   0.187  11.221 -0.2480 -0.0090  0.0182
15368TIP3    H167519   0.505   0.165  11.163  1.2238  1.2090 -2.4465
15368TIP3    H267520   0.536   0.228  11.297 -2.1572  0.7831 -1.3685
15369TIP3   OH267521   4.224   5.112   5.632  0.2685 -0.3836  0.2869
15369TIP3    H167522   4.278   5.064   5.695 -0.3264 -1.2431  0.1657
15369TIP3    H267523   4.230   5.203   5.659  2.4107 -0.3273 -0.1961
15370TIP3   OH267524   1.970   1.724  12.662 -0.1244 -0.2205 -0.3091
15370TIP3    H167525   2.037   1.781  12.624 -1.3586  0.5652 -1.4058
15370TIP3    H267526   1.981   1.733  12.757  0.3542  1.0750 -0.4745
15371TIP3   OH267527   4.635   4.833  15.439  0.2284  0.5225  0.2374
15371TIP3    H167528   4.664   4.920  15.412  0.4541  1.3769  2.9353
15371TIP3    H267529   4.542   4.845  15.460 -0.0547 -0.2149 -0.5534
15372TIP3   OH267530   2.149   3.913  12.330 -0.6790  0.2662 -0.2117
15372TIP3    H167531   2.126   3.906  12.237  0.0823  1.6765 -0.5343
15372TIP3    H267532   2.065   3.908  12.376 -0.9700 -1.6929 -0.8525
15373TIP3   OH267533   4.203   0.530  16.494  0.0418 -0.2709 -0.0372
15373TIP3    H167534   4.248   0.474  16.557  0.5248 -0.4107 -0.4984
15373TIP3    H267535   4.271   0.587  16.458 -0.2858  0.0248 -0.2007
15374TIP3   OH267536   3.184   0.111   3.486 -0.0561  0.9075  0.0760
15374TIP3    H167537   3.274   0.127   3.456  0.1784  0.1285  0.3447
15374TIP3    H267538   3.154   0.037   3.434  0.1948 -0.1611  1.3882
15375TIP3   OH267539   0.152   5.770   0.623 -0.4701  0.1953  0.6643
15375TIP3    H167540   0.083   5.763   0.557  0.0576  1.0592  0.0002
15375TIP3    H267541   0.143   5.690   0.676 -0.7607 -0.6232 -0.5774
15376TIP3   OH267542   4.381   1.212   4.784 -0.0159  0.1323  0.2197
15376TIP3    H167543   4.321   1.229   4.856  0.6311 -1.0252  1.0638
15376TIP3    H267544   4.447   1.280   4.791  0.6868 -0.6386  1.4693
15377TIP3   OH267545   5.896   5.412  13.900  0.6827 -0.1044 -0.3854
15377TIP3    H167546   5.914   5.451  13.986  0.6115 -1.8226  0.4489
15377TIP3    H267547   5.813   5.366  13.912  0.5216 -0.1086 -1.4661
15378TIP3   OH267548   5.513   2.388   3.818  0.5120 -0.2406 -0.2753
15378TIP3    H167549   5.429   2.344   3.834 -0.5094  1.8938  0.5882
15378TIP3    H267550   5.495   2.449   3.746  0.9170  1.2180  0.8173
15379TIP3   OH267551   1.714   3.815   0.651  0.3760 -0.5049 -0.3272
15379TIP3    H167552   1.761   3.779   0.576  0.4807 -0.0913 -0.4621
15379TIP3    H267553   1.631   3.847   0.614  0.1491 -0.8841 -0.1561
15380TIP3   OH267554   2.281   3.868  14.120  0.5058  0.1846 -0.1312
15380TIP3    H167555   2.281   3.926  14.196  2.3208 -1.3211  1.1395
15380TIP3    H267556   2.345   3.907  14.060 -0.0886  0.7747 -0.3883
15381TIP3   OH267557   0.693   2.371  14.139 -0.5157 -0.0389 -0.3335
15381TIP3    H167558   0.672   2.369  14.233  2.5824 -1.3528  0.4635
15381TIP3    H267559   0.746   2.451  14.129  0.0146 -0.4382 -0.7425
15382TIP3   OH267560   3.487   0.379   5.283  0.0334  0.3372  0.1883
15382TIP3    H167561   3.408   0.328   5.263  0.0733  0.7044 -0.9770
15382TIP3    H267562   3.506   0.359   5.374  0.7739 -2.7248 -0.5553
15383TIP3   OH267563   2.974   1.439   2.028  0.2309 -0.1436  0.2514
15383TIP3    H167564   3.035   1.448   2.101 -0.6913 -0.9005  1.1481
15383TIP3    H267565   2.998   1.357   1.986  0.1388 -0.1969  0.3031
15384TIP3   OH267566   1.809   5.041   5.978  0.2551 -0.3313  0.1538
15384TIP3    H167567   1.734   4.984   5.994 -1.1922  1.4954  0.3690
15384TIP3    H267568   1.810   5.100   6.053  0.1260  1.4462 -1.1580
15385TIP3   OH267569   5.416   4.778  14.231 -0.1350  0.0389  0.2202
15385TIP3    H167570   5.452   4.866  14.226  0.6565 -0.3480 -2.0250
15385TIP3    H267571   5.437   4.738  14.147  1.3744 -3.0192  1.8728
15386TIP3   OH267572   5.200   4.022   1.944  0.4830 -0.9261 -0.3473
15386TIP3    H167573   5.186   4.039   2.038 -3.2123  3.1398 -1.3142
15386TIP3    H267574   5.279   4.071   1.922 -0.7828  1.4618  0.0860
15387TIP3   OH267575   2.086   4.465  11.035 -0.9747  0.6916  0.0625
15387TIP3    H167576   2.075   4.542  10.979  1.7988  0.4143 -1.0244
15387TIP3    H267577   2.050   4.393  10.982 -1.9373  0.9669  0.3264
15388TIP3   OH267578   5.388   0.132  14.976  0.1091  0.8682 -0.2539
15388TIP3    H167579   5.302   0.132  15.019  0.3015 -1.4244  0.2652
15388TIP3    H267580   5.447   0.169  15.042 -0.2621  1.1605 -0.0815
15389TIP3   OH267581   1.651   6.202   4.286 -0.3032  0.1505 -0.9709
15389TIP3    H167582   1.656   6.284   4.336 -3.4104 -1.2827  2.1124
15389TIP3    H267583   1.737   6.193   4.246  1.6676  2.7705  2.1782
15390TIP3   OH267584   5.014   5.664   3.224  0.1986 -1.0599 -0.9408
15390TIP3    H167585   4.919   5.675   3.220 -0.1740 -3.6828 -1.1263
15390TIP3    H267586   5.047   5.709   3.147 -0.9036 -0.3923 -1.0497
15391TIP3   OH267587   1.145   0.901  13.603  0.5551 -0.3236 -0.2765
15391TIP3    H167588   1.198   0.895  13.523 -1.7587  0.0979 -1.9285
15391TIP3    H267589   1.061   0.863  13.580 -1.1805  2.3731  1.0129
15392TIP3   OH267590   0.594   2.922   4.572 -0.1503  0.1243 -0.4787
15392TIP3    H167591   0.559   2.835   4.593  0.2764 -0.0963 -0.6709
15392TIP3    H267592   0.633   2.912   4.485 -1.2083  0.8378 -1.0483
15393TIP3   OH267593   5.241   0.365   4.634 -0.6573 -0.6163 -0.0548
15393TIP3    H167594   5.216   0.417   4.710  1.8037  2.9186 -1.3849
15393TIP3    H267595   5.179   0.389   4.566  0.5096  0.7633 -0.6859
15394TIP3   OH267596   6.553   2.468   0.246  0.1732 -0.3569 -0.2361
15394TIP3    H167597   6.519   2.502   0.329 -1.6529 -0.8184 -0.7389
15394TIP3    H267598   6.500   2.390   0.229  0.0653  0.0782 -2.1211
15395TIP3   OH267599   5.849   3.600   1.852  0.2192 -0.0838 -0.1718
15395TIP3    H167600   5.878   3.616   1.941  0.8071  0.6326 -0.4828
15395TIP3    H267601   5.809   3.513   1.855  1.4901 -0.6650  0.4836
15396TIP3   OH267602   0.095   1.901   0.748  0.4853  0.1055 -0.7942
15396TIP3    H167603  -0.000   1.908   0.754  0.5498 -0.0922  1.1069
15396TIP3    H267604   0.115   1.811   0.772  1.1262 -0.1093 -2.0339
15397TIP3   OH267605   4.181   5.153  12.127 -0.4266 -0.3389  0.2039
15397TIP3    H167606   4.191   5.226  12.066 -1.4683  0.4135  0.9049
15397TIP3    H267607   4.103   5.107  12.095  0.6685 -1.6381 -0.7016
15398TIP3   OH267608   4.116   4.208   2.689 -0.0299 -0.3834 -0.5734
15398TIP3    H167609   4.185   4.184   2.627 -0.1781  0.4358 -1.0610
15398TIP3    H267610   4.034   4.193   2.641 -0.1337  0.7411 -0.7707
15399TIP3   OH267611   2.150   4.938  16.050  0.0215  0.8060 -0.1269
15399TIP3    H167612   2.084   4.890  15.999 -0.3175 -0.3168  1.2839
15399TIP3    H267613   2.231   4.890  16.036 -0.1167  0.3645  0.5182
15400TIP3   OH267614   2.151   3.500  12.170  0.1681 -0.1852 -0.2649
15400TIP3    H167615   2.101   3.573  12.133  2.1951  1.9696  0.9958
15400TIP3    H267616   2.104   3.422  12.141 -3.7838  1.6077  0.6558
15401TIP3   OH267617   6.220   5.533  14.945 -0.5802  0.3093 -0.4281
15401TIP3    H167618   6.208   5.451  14.993 -2.3020 -0.4008 -1.9376
15401TIP3    H267619   6.144   5.586  14.968  0.1891  1.2420  0.0281
15402TIP3   OH267620   0.048   4.638  14.231  0.1068  0.1085  0.1031
15402TIP3    H167621   0.016   4.548  14.239  0.8474 -0.1372  0.4587
15402TIP3    H267622   0.096   4.639  14.148 -0.5227  0.3831 -0.2645
15403TIP3   OH267623   5.623   5.726   3.086 -0.1345  0.8110  0.6232
15403TIP3    H167624   5.692   5.662   3.069 -0.8112  0.0636  0.6156
15403TIP3    H267625   5.571   5.728   3.006 -0.4601  0.9303  0.8313
15404TIP3   OH267626   5.014   6.337   2.567 -0.2792 -0.5255  0.3449
15404TIP3    H167627   5.098   6.354   2.525  0.0060  0.3897  1.2612
15404TIP3    H267628   5.024   6.372   2.656 -2.2707  1.4486 -0.1204
15405TIP3   OH267629   0.330   4.047  15.910  0.1069  0.8147  0.2107
15405TIP3    H167630   0.248   4.041  15.960 -0.8744  1.8977 -1.2014
15405TIP3    H267631   0.316   3.990  15.835  1.4434 -0.5225  0.9136
15406TIP3   OH267632   6.699   3.888  13.374  0.0429  0.0084 -0.4016
15406TIP3    H167633   6.697   3.812  13.431  1.0214 -0.5498 -1.0867
15406TIP3    H267634   6.660   3.858  13.292  0.7404  0.1387 -0.7891
15407TIP3   OH267635   5.765   4.925  13.313  0.5312  0.6173  0.4514
15407TIP3    H167636   5.803   4.992  13.257  0.2035  1.2437  0.9564
15407TIP3    H267637   5.670   4.935  13.301  0.4881 -0.5198 -0.3313
15408TIP3   OH267638   6.511   5.626  12.815  0.2176 -0.1777  0.0822
15408TIP3    H167639   6.511   5.711  12.771  1.3554 -0.1662  0.0776
15408TIP3    H267640   6.457   5.570  12.759  0.0262  0.3593 -0.2757
15409TIP3   OH267641   5.339   6.632   6.080 -0.2022  0.0612  0.1835
15409TIP3    H167642   5.389   6.709   6.052 -0.3867 -0.5790 -2.1102
15409TIP3    H267643   5.406   6.570   6.108  0.0065  0.6171  0.9769
15410TIP3   OH267644   3.680   5.139   5.014  0.7356 -0.2151 -0.1623
15410TIP3    H167645   3.689   5.207   5.081 -1.5340 -0.9087  0.9798
15410TIP3    H267646   3.590   5.149   4.983  0.7349 -1.9205 -0.8267
15411TIP3   OH267647   0.484   6.483  13.187  0.3048 -0.1801 -0.0348
15411TIP3    H167648   0.404   6.535  13.191  0.3366 -0.2201  2.4871
15411TIP3    H267649   0.554   6.545  13.208  0.4177 -0.9769  2.2452
15412TIP3   OH267650   2.133   3.485   1.715  0.5826 -0.5301  0.0862
15412TIP3    H167651   2.123   3.487   1.620 -0.2128 -2.3194  0.0893
15412TIP3    H267652   2.064   3.426   1.746  0.3127  0.6268  1.8655
15413TIP3   OH267653   4.041   0.823  15.144  0.3431  0.1215  0.5553
15413TIP3    H167654   4.004   0.904  15.107  0.2656 -0.1270  0.0756
15413TIP3    H267655   4.057   0.844  15.236  0.0071  0.5758  0.5162
15414TIP3   OH267656   3.214   5.273   1.752  0.2044 -0.3321 -0.4319
15414TIP3    H167657   3.184   5.361   1.774  0.2527  0.0314 -1.7122
15414TIP3    H267658   3.281   5.287   1.685  2.0383 -1.2189  1.1373
15415TIP3   OH267659   4.648   4.450   2.902  0.8193 -0.2875 -0.2148
15415TIP3    H167660   4.663   4.529   2.849 -0.6037 -0.8317 -1.4803
15415TIP3    H267661   4.623   4.383   2.839  0.3757 -1.3181  1.0253
15416TIP3   OH267662   2.956   0.575  12.403 -0.1844  0.0310  0.2628
15416TIP3    H167663   3.023   0.523  12.448  0.6725  0.2312 -0.7515
15416TIP3    H267664   3.000   0.658  12.382 -0.4798 -0.1647 -1.1855
15417TIP3   OH267665   0.263   1.678  12.648  0.2906 -0.2668 -0.1425
15417TIP3    H167666   0.318   1.739  12.598  1.8121 -1.0781  0.4852
15417TIP3    H267667   0.239   1.728  12.726 -1.2916  0.6680 -1.1832
15418TIP3   OH267668   2.386   4.240   1.314 -0.0618  0.2101  0.4521
15418TIP3    H167669   2.358   4.256   1.224 -0.7296 -1.4457  0.3236
15418TIP3    H267670   2.481   4.238   1.310 -0.0973 -1.1063 -0.4958
15419TIP3   OH267671   3.446   1.803   1.806 -0.3766  0.1473 -0.0282
15419TIP3    H167672   3.435   1.791   1.712 -1.7279 -0.8272  0.2205
15419TIP3    H267673   3.420   1.894   1.822  0.0655  0.3804 -0.6143
15420TIP3   OH267674   4.935   0.193   4.270  0.0692 -0.1554  0.5495
15420TIP3    H167675   4.878   0.176   4.345 -0.1956 -1.2769  0.1087
15420TIP3    H267676   5.023   0.170   4.302 -0.0184 -0.4677  0.5643
15421TIP3   OH267677   6.613   3.094  11.247  0.7078 -0.2183  0.2207
15421TIP3    H167678   6.519   3.078  11.243  0.5207  0.4218  1.5599
15421TIP3    H267679   6.643   3.041  11.321  1.1312  0.7309  0.7409
15422TIP3   OH267680   3.367   3.452  11.864  0.4145  0.0069 -0.2618
15422TIP3    H167681   3.372   3.466  11.958  0.0958  1.8090 -0.4803
15422TIP3    H267682   3.425   3.519  11.826 -2.9050  2.4457 -1.4881
15423TIP3   OH267683   4.789   4.406  14.322 -0.6638  0.2151 -0.2388
15423TIP3    H167684   4.864   4.407  14.262 -0.2397  1.5411  0.2752
15423TIP3    H267685   4.719   4.451  14.273 -0.7678 -0.0033 -0.2899
15424TIP3   OH267686   5.987   1.462   0.203 -0.0597 -0.7736  0.5356
15424TIP3    H167687   6.002   1.369   0.219 -2.1986 -1.0536  1.2472
15424TIP3    H267688   5.968   1.467   0.109  1.2578 -0.8312  0.2402
15425TIP3   OH267689   5.516   0.221  12.879 -0.2663  0.0107 -0.2474
15425TIP3    H167690   5.541   0.313  12.881  0.3726 -0.1650  0.2630
15425TIP3    H267691   5.490   0.201  12.969  0.8085 -0.6179 -0.0512
15426TIP3   OH267692   5.639   2.394   6.573  0.2977 -0.7720 -0.2034
15426TIP3    H167693   5.584   2.445   6.632  0.4127  1.2238 -1.7373
15426TIP3    H267694   5.695   2.342   6.632 -0.9821 -0.4284  1.3912
15427TIP3   OH267695   2.331   2.324   4.044  0.8204 -0.1194 -0.2106
15427TIP3    H167696   2.303   2.387   3.977  0.2674  1.5446  1.4941
15427TIP3    H267697   2.417   2.356   4.072  1.3798 -1.2274 -0.5906
15428TIP3   OH267698   2.631   2.535   2.630 -0.0237 -0.2254  0.4221
15428TIP3    H167699   2.554   2.487   2.659 -0.7220  0.2971 -0.4842
15428TIP3    H267700   2.673   2.565   2.711 -0.3258 -1.1857  0.9466
15429TIP3   OH267701   3.733   3.361   0.654  0.1830  0.5511  1.0030
15429TIP3    H167702   3.664   3.427   0.651 -0.0988  0.3047  1.7173
15429TIP3    H267703   3.734   3.323   0.567 -0.3278  0.8189  0.8785
15430TIP3   OH267704   0.898   2.483   0.744  0.4168  0.2473  0.4034
15430TIP3    H167705   0.887   2.416   0.812 -1.2728 -0.2393 -0.2946
15430TIP3    H267706   0.850   2.559   0.777 -0.3467  0.0337 -0.1892
15431TIP3   OH267707   2.863   1.357  16.322  0.3215  0.0326 -0.2815
15431TIP3    H167708   2.907   1.384  16.403  0.8198 -0.0069 -0.5318
15431TIP3    H267709   2.786   1.414  16.316 -0.3315 -0.7008  0.7762
15432TIP3   OH267710   4.289   0.161  16.734  0.2633 -0.3644  0.4480
15432TIP3    H167711   4.304   0.067  16.743 -0.1136 -0.4337  0.3860
15432TIP3    H267712   4.194   0.169  16.724  0.3463 -0.0220 -0.1043
15433TIP3   OH267713   1.249   2.110   5.148 -0.1648  0.0364 -0.4307
15433TIP3    H167714   1.206   2.142   5.227  0.6385 -0.7712  0.3701
15433TIP3    H267715   1.242   2.182   5.085 -1.2100  0.5227  0.2185
15434TIP3   OH267716   5.800   4.906   0.129  0.7616  0.0657  0.1303
15434TIP3    H167717   5.728   4.918   0.191 -0.1987  0.1384 -0.9661
15434TIP3    H267718   5.791   4.978   0.067  1.5589 -0.1421 -0.2486
15435TIP3   OH267719   4.408   6.148  15.599 -0.1567 -0.7379  0.5682
15435TIP3    H167720   4.407   6.213  15.528 -1.5233 -0.3395  0.9062
15435TIP3    H267721   4.475   6.085  15.573  0.8257  0.5048 -0.0437
15436TIP3   OH267722   4.054   3.394   3.754 -0.7010 -0.4369  0.1404
15436TIP3    H167723   4.044   3.302   3.730  2.0812 -0.3652 -1.6859
15436TIP3    H267724   4.119   3.394   3.824  0.2855  0.2024 -0.7547
15437TIP3   OH267725   1.185   2.151   4.162  0.0295  0.3263  0.2763
15437TIP3    H167726   1.269   2.170   4.203  0.8776 -0.9778 -0.7646
15437TIP3    H267727   1.203   2.154   4.068 -0.9353 -0.5627  0.0470
15438TIP3   OH267728   3.511   0.683  15.566  0.3665 -0.2491 -0.4444
15438TIP3    H167729   3.583   0.723  15.614 -0.1889  1.3038 -0.8401
15438TIP3    H267730   3.463   0.633  15.633  0.2797  0.9050  0.3905
15439TIP3   OH267731   4.068   1.916  15.818 -0.0791  0.0481  0.2097
15439TIP3    H167732   4.046   1.963  15.738 -0.0453  1.8983  1.2317
15439TIP3    H267733   4.095   1.984  15.879 -0.0811 -1.3102  1.7974
15440TIP3   OH267734   1.714   5.207   1.287  0.1210  0.3463  0.4477
15440TIP3    H167735   1.753   5.120   1.298  3.0348  1.3798 -0.8959
15440TIP3    H267736   1.753   5.260   1.356 -0.0676  1.0784  0.0039
15441TIP3   OH267737   6.143   0.024  12.641 -0.4570 -0.6417  0.7725
15441TIP3    H167738   6.096   0.104  12.667 -0.6034 -0.3496 -0.3140
15441TIP3    H267739   6.166   0.039  12.549  0.0297 -1.6142  0.7231
15442TIP3   OH267740   6.638   1.738  16.158 -0.0554  0.1073 -0.3739
15442TIP3    H167741   6.728   1.732  16.126 -0.2128 -0.5464 -0.7057
15442TIP3    H267742   6.625   1.658  16.209 -1.3076 -1.2219 -2.5942
15443TIP3   OH267743   4.912   2.231  16.785  0.1441 -0.5083  0.6192
15443TIP3    H167744   4.920   2.321  16.817  0.8490 -1.1036  2.2381
15443TIP3    H267745   4.830   2.230  16.736 -0.6152  0.6683  1.8137
15444TIP3   OH267746   1.672   2.676  12.811 -0.3392 -0.4886  0.0484
15444TIP3    H167747   1.726   2.597  12.818  1.0399  0.5241  1.8540
15444TIP3    H267748   1.606   2.667  12.880 -0.1263 -0.0647  0.3183
15445TIP3   OH267749   5.772   2.406   3.027 -0.7685 -0.0140  0.0746
15445TIP3    H167750   5.744   2.349   3.098 -0.0772 -2.2408 -1.3597
15445TIP3    H267751   5.857   2.372   3.001  0.7298  3.0403  0.5306
15446TIP3   OH267752   0.749   2.403  13.044 -0.8868 -0.6518  0.3919
15446TIP3    H167753   0.667   2.435  13.083 -0.6374  2.7877 -1.4868
15446TIP3    H267754   0.817   2.439  13.101 -0.5955  2.8581 -1.8480
15447TIP3   OH267755   4.851   6.225  14.807 -0.3729  0.2053 -0.3314
15447TIP3    H167756   4.931   6.217  14.859 -0.3981  0.0219 -0.3209
15447TIP3    H267757   4.780   6.208  14.870 -0.3320 -2.9318 -0.9948
15448TIP3   OH267758   4.764   1.460  12.395  0.2774 -0.5072  0.2204
15448TIP3    H167759   4.671   1.444  12.381 -0.0783  1.6025 -0.0995
15448TIP3    H267760   4.801   1.373  12.412 -1.2165 -1.8395 -2.6313
15449TIP3   OH267761   5.256   5.338   4.394 -0.1901  0.3743  0.4625
15449TIP3    H167762   5.206   5.338   4.312  0.8283 -1.8176 -0.2233
15449TIP3    H267763   5.208   5.278   4.451 -1.6122  2.8318  2.0569
15450TIP3   OH267764   1.044   6.000   0.180 -0.4236  0.4034 -0.2264
15450TIP3    H167765   0.985   6.075   0.182 -2.0248 -0.8058  0.4220
15450TIP3    H267766   1.088   6.002   0.265  1.0686  1.7149 -0.9835
15451TIP3   OH267767   0.038   4.866  14.728  0.2189  0.4057  0.0474
15451TIP3    H167768  -0.006   4.805  14.668 -0.5297  0.8849  0.0950
15451TIP3    H267769   0.130   4.841  14.724  0.0986  0.0613 -0.8622
15452TIP3   OH267770   2.408   4.756  16.890 -0.2191  0.4225 -0.0658
15452TIP3    H167771   2.363   4.802  16.819  1.8021  0.7963 -1.1999
15452TIP3    H267772   2.341   4.742  16.956 -2.1458  0.3166 -1.9189
15453TIP3   OH267773   3.103   3.329  11.500  0.0571 -0.1602 -0.6042
15453TIP3    H167774   3.171   3.263  11.513 -0.3366 -0.2245  1.3890
15453TIP3    H267775   3.090   3.367  11.586 -1.3016  0.9859 -1.2856
15454TIP3   OH267776   6.093   2.571  13.132  0.0423 -0.1240  0.3202
15454TIP3    H167777   6.176   2.603  13.168  0.2179 -0.0137 -0.1751
15454TIP3    H267778   6.111   2.479  13.111  0.2648  0.0900 -0.4551
15455TIP3   OH267779   3.469   3.983  12.409 -0.2621  0.0969  0.0439
15455TIP3    H167780   3.527   3.950  12.478 -1.2199 -0.8477  0.4271
15455TIP3    H267781   3.397   4.025  12.456  0.3047  1.6515 -0.4333
15456TIP3   OH267782   6.338   5.567   1.267 -0.4794  0.1121 -0.3087
15456TIP3    H167783   6.248   5.536   1.253 -0.9596  2.1185 -2.3753
15456TIP3    H267784   6.363   5.530   1.351 -2.8506 -1.3955 -0.1591
15457TIP3   OH267785   3.700   2.009  11.522 -0.7135 -0.4439  0.6357
15457TIP3    H167786   3.714   1.930  11.470 -3.8585 -1.1902  0.7197
15457TIP3    H267787   3.742   1.990  11.606  1.4367 -0.6054 -0.4105
15458TIP3   OH267788   4.150   0.965   0.586 -0.6312 -0.3545 -0.5495
15458TIP3    H167789   4.172   1.046   0.633 -1.0050  0.4421 -1.6901
15458TIP3    H267790   4.234   0.919   0.577 -0.3072  0.1878 -0.3874
15459TIP3   OH267791   3.496   6.081   1.439 -0.1025 -0.0360 -1.1183
15459TIP3    H167792   3.578   6.057   1.481 -0.0318 -0.3596 -1.4336
15459TIP3    H267793   3.455   6.142   1.500 -1.4277 -2.7220  0.9084
15460TIP3   OH267794   2.388   0.603   3.703  0.6115 -0.9734 -0.0991
15460TIP3    H167795   2.371   0.601   3.797 -0.8813  0.9979 -0.2491
15460TIP3    H267796   2.354   0.520   3.670  0.3855 -1.3293  0.9931
15461TIP3   OH267797   1.908   1.795  16.461  0.3460  0.4896  0.0740
15461TIP3    H167798   1.832   1.758  16.416  0.8225 -0.0584 -0.3049
15461TIP3    H267799   1.899   1.890  16.450  0.0799  0.3964 -0.5870
15462TIP3   OH267800   4.942   2.130  14.910  0.6982  0.1385  0.0931
15462TIP3    H167801   4.875   2.145  14.977  0.8791 -0.0124  0.3125
15462TIP3    H267802   4.906   2.062  14.854  0.5017  0.3391 -0.0243
15463TIP3   OH267803   6.486   5.782  11.717  0.4565  1.0597 -0.0579
15463TIP3    H167804   6.461   5.729  11.793 -0.4556 -0.2681 -1.2430
15463TIP3    H267805   6.457   5.871  11.739  0.7725  0.8355  1.3935
15464TIP3   OH267806   4.490   0.825  12.916  0.1725 -0.1540  0.1833
15464TIP3    H167807   4.483   0.738  12.954  1.1587  0.3155  1.5397
15464TIP3    H267808   4.549   0.815  12.842  0.7599 -0.5393  0.6950
15465TIP3   OH267809   4.542   2.592   3.783  0.5554 -0.0815  0.0167
15465TIP3    H167810   4.625   2.641   3.786  0.0654  0.7534  1.8600
15465TIP3    H267811   4.479   2.654   3.746  0.7456 -0.7813 -1.5701
15466TIP3   OH267812   6.745   3.907   0.816  0.7715  0.2881  0.0899
15466TIP3    H167813   6.821   3.903   0.758 -0.7767 -1.0269 -1.9915
15466TIP3    H267814   6.671   3.924   0.758 -0.6535  0.7281  1.9327
15467TIP3   OH267815   4.909   0.507  15.729 -0.4286  0.3697 -0.0057
15467TIP3    H167816   4.826   0.521  15.774  0.2569 -0.0767  1.4544
15467TIP3    H267817   4.898   0.550  15.644 -2.6120 -0.7984 -0.3831
15468TIP3   OH267818   5.959   4.153   3.072  0.9015  0.1261 -0.6942
15468TIP3    H167819   5.962   4.248   3.062 -2.1205  0.6969  2.3533
15468TIP3    H267820   5.903   4.123   3.000 -0.7488  1.1030  0.1333
15469TIP3   OH267821   3.430   1.867   3.080  0.5470 -0.6950 -0.1169
15469TIP3    H167822   3.482   1.787   3.081  0.8073 -0.5244  0.3953
15469TIP3    H267823   3.471   1.922   3.013  1.4629 -0.2839  0.7617
15470TIP3   OH267824   1.646   2.074  13.059 -0.4106  0.2700  0.1332
15470TIP3    H167825   1.700   2.153  13.065  0.3002 -0.1692 -0.4736
15470TIP3    H267826   1.694   2.009  13.110  0.9966 -0.8640 -2.4649
15471TIP3   OH267827   4.921   4.292  11.452  0.1210 -0.3340 -0.4501
15471TIP3    H167828   5.003   4.262  11.412  0.5101  1.3262 -1.0051
15471TIP3    H267829   4.854   4.267  11.388  0.2742 -1.0799 -0.3270
15472TIP3   OH267830   6.504   3.546  15.350  0.2707 -0.5345 -0.5284
15472TIP3    H167831   6.577   3.602  15.326 -0.0194 -0.2628 -0.7825
15472TIP3    H267832   6.427   3.602  15.341  0.0591 -0.7294  0.0235
15473TIP3   OH267833   0.274   2.136   4.520 -0.4936 -0.0273  0.0708
15473TIP3    H167834   0.264   2.126   4.615  1.1643  2.4410  0.6163
15473TIP3    H267835   0.361   2.103   4.501  0.7411  2.8652  0.1629
15474TIP3   OH267836   2.063   2.618   5.524  0.1134  0.2176  0.5973
15474TIP3    H167837   2.102   2.659   5.601  1.0454 -0.7631  0.6695
15474TIP3    H267838   2.032   2.691   5.471  0.7045  0.9627  1.2553
15475TIP3   OH267839   5.917   2.703   4.727 -0.1011  0.6977  0.4863
15475TIP3    H167840   5.901   2.704   4.821  1.5040  1.3996  0.7920
15475TIP3    H267841   5.953   2.789   4.708  0.1953  0.3384 -0.6484
15476TIP3   OH267842   3.266   2.010   1.891 -0.1388  0.5452  0.4765
15476TIP3    H167843   3.274   1.997   1.986  0.4561 -1.3825  0.2041
15476TIP3    H267844   3.198   2.076   1.881 -0.7920  0.1788  2.2245
15477TIP3   OH267845   0.474   0.178   5.850 -0.7851  0.1677 -0.0840
15477TIP3    H167846   0.541   0.127   5.897  0.6572  1.4805 -0.6117
15477TIP3    H267847   0.486   0.267   5.882  1.5636  1.5457 -4.1111
15478TIP3   OH267848   0.204   3.194  12.507 -0.6866  0.3317 -0.1335
15478TIP3    H167849   0.176   3.218  12.595  0.5772  0.3471  0.2802
15478TIP3    H267850   0.255   3.269  12.476 -0.2603 -0.0833 -0.4673
15479TIP3   OH267851   6.545   6.551   0.892 -0.2000 -0.1120  0.1573
15479TIP3    H167852   6.580   6.628   0.936 -0.8788 -0.1905  0.8561
15479TIP3    H267853   6.481   6.515   0.953 -1.3077 -0.1259 -0.9537
15480TIP3   OH267854   5.173   4.489  16.936  0.6689 -0.2216  0.0795
15480TIP3    H167855   5.200   4.404  16.902  0.4489 -0.4055  0.3562
15480TIP3    H267856   5.223   4.553  16.885 -0.7212 -0.4074 -1.5729
15481TIP3   OH267857   5.595   3.801   1.988 -0.7694  0.3936 -0.2580
15481TIP3    H167858   5.510   3.757   1.994 -0.5972  0.2459  2.0808
15481TIP3    H267859   5.658   3.734   2.015 -0.4097  1.6701  2.4657
15482TIP3   OH267860   5.065   1.729  14.347 -0.7643  0.0149 -0.2528
15482TIP3    H167861   5.147   1.692  14.379 -0.6239  0.7666  0.2923
15482TIP3    H267862   5.051   1.687  14.263  0.1225 -0.2124 -0.3014
15483TIP3   OH267863   3.122   5.595  14.301  0.3568  0.0381 -0.1574
15483TIP3    H167864   3.183   5.533  14.261 -1.1726 -1.9978  0.5351
15483TIP3    H267865   3.160   5.614  14.387 -1.3340 -3.6796  1.6190
15484TIP3   OH267866   1.389   2.411   5.107 -0.4307  0.2915  0.0887
15484TIP3    H167867   1.433   2.391   5.190 -0.2100  0.8294  0.1019
15484TIP3    H267868   1.447   2.474   5.064 -1.4754  1.5084  0.3938
15485TIP3   OH267869   2.311   0.526  13.312  0.1649 -0.1525  0.3716
15485TIP3    H167870   2.310   0.620  13.333  1.6828  0.2469 -1.1274
15485TIP3    H267871   2.314   0.483  13.397 -2.4996  1.0429  1.1755
15486TIP3   OH267872   5.724   6.066   3.356 -0.7438  0.6952  0.3492
15486TIP3    H167873   5.676   6.044   3.436 -1.1587  0.6210  0.0834
15486TIP3    H267874   5.798   6.118   3.386  0.0133 -0.6870  0.9476
15487TIP3   OH267875   2.001   6.446  15.948 -0.4809 -0.6300  0.1638
15487TIP3    H167876   1.944   6.504  15.999  0.5307  1.0164 -0.5328
15487TIP3    H267877   2.076   6.430  16.005 -0.3190 -0.4895 -0.0114
15488TIP3   OH267878   6.010   4.776   5.935  0.4049 -0.7078  0.6607
15488TIP3    H167879   6.043   4.717   6.003  1.5581  0.2682  0.9671
15488TIP3    H267880   6.067   4.760   5.860 -0.0611 -0.8576  0.3310
15489TIP3   OH267881   5.392   2.629  13.764  0.0491 -0.0886 -0.2800
15489TIP3    H167882   5.317   2.632  13.704  0.3959  0.9428 -0.6862
15489TIP3    H267883   5.454   2.693  13.728  1.4560 -1.4465 -0.3717
15490TIP3   OH267884   4.106   5.271  14.663  0.3356  0.5737  0.1256
15490TIP3    H167885   4.079   5.180  14.658 -1.4421  1.0919 -0.4014
15490TIP3    H267886   4.101   5.293  14.756  0.2987  0.2826  0.1925
15491TIP3   OH267887   2.608   0.058   5.277 -0.1100  0.4548 -0.5630
15491TIP3    H167888   2.655   0.024   5.354 -1.2864 -1.0443 -0.4604
15491TIP3    H267889   2.644   0.008   5.204 -0.9562 -0.1466 -0.5844
15492TIP3   OH267890   4.274   2.830   0.903 -0.5325  0.4381  0.2551
15492TIP3    H167891   4.196   2.775   0.910 -0.4220  0.1920 -0.4149
15492TIP3    H267892   4.299   2.847   0.994 -0.1789 -1.1825  0.4809
15493TIP3   OH267893   0.277   3.951  14.333  0.6873 -0.2385  0.0524
15493TIP3    H167894   0.291   4.035  14.377  1.2153 -0.8418  1.0751
15493TIP3    H267895   0.356   3.900  14.352 -0.3251 -1.5824  0.8835
15494TIP3   OH267896   5.803   5.266  11.292 -0.2245  0.2513  0.5636
15494TIP3    H167897   5.837   5.296  11.208 -0.7130 -1.3573 -0.2312
15494TIP3    H267898   5.838   5.178  11.304 -0.9979  0.0505  1.5584
15495TIP3   OH267899   3.081   5.257  16.524  0.0166 -0.9347 -0.0251
15495TIP3    H167900   3.009   5.297  16.475  2.3613  2.4948 -1.0787
15495TIP3    H267901   3.137   5.331  16.548  2.6401 -3.2729  1.7278
15496TIP3   OH267902   1.290   0.678  13.745 -0.5772 -0.2703  0.2712
15496TIP3    H167903   1.354   0.626  13.697 -1.4437 -2.2142  1.0958
15496TIP3    H267904   1.225   0.703  13.680 -0.6104 -1.0160  0.0079
15497TIP3   OH267905   6.026   5.826  15.982 -0.0432  0.0672 -0.2915
15497TIP3    H167906   5.996   5.882  15.910 -0.7341  2.0176  1.4376
15497TIP3    H267907   6.077   5.884  16.038  0.7233 -1.4880  0.6786
15498TIP3   OH267908   4.529   6.453   1.440 -0.1600  0.3163 -0.4878
15498TIP3    H167909   4.523   6.363   1.472  2.0325  0.0380 -0.6999
15498TIP3    H267910   4.617   6.481   1.464  0.4343  1.2195 -3.3653
15499TIP3   OH267911   5.401   2.861   0.840 -0.3502  0.2286 -0.2458
15499TIP3    H167912   5.470   2.922   0.813 -0.1338  1.0542  1.9285
15499TIP3    H267913   5.331   2.918   0.872 -1.0656 -0.6532 -0.2141
15500TIP3   OH267914   1.567   2.390   2.871  0.0662  0.1188 -0.0982
15500TIP3    H167915   1.562   2.483   2.851 -0.2436  0.1973  0.3426
15500TIP3    H267916   1.548   2.347   2.787 -2.1146  0.4433  0.1705
15501TIP3   OH267917   0.407   3.553   0.616  0.3138 -0.3949  0.0835
15501TIP3    H167918   0.435   3.504   0.539 -0.9027  0.0573 -0.6839
15501TIP3    H267919   0.474   3.535   0.682  0.9316 -1.4809 -0.8015
15502TIP3   OH267920   6.517   2.884  12.243  0.1594  0.1837 -0.2302
15502TIP3    H167921   6.479   2.858  12.159 -0.9593 -0.9624  0.6209
15502TIP3    H267922   6.528   2.979  12.235 -0.2265  0.1399 -1.5452
15503TIP3   OH267923   4.839   2.336   1.002 -0.0018  0.4647  0.0105
15503TIP3    H167924   4.872   2.283   0.929 -0.7496 -0.8840  0.6035
15503TIP3    H267925   4.770   2.389   0.963 -1.3810 -1.2696 -0.0579
15504TIP3   OH267926   3.259   4.208  12.350  0.2079  0.0629 -0.4073
15504TIP3    H167927   3.272   4.206  12.444 -1.0420  0.5159 -0.2118
15504TIP3    H267928   3.194   4.276  12.335  0.0813 -0.2785 -1.5599
15505TIP3   OH267929   0.711   3.306   0.350  0.1634  0.0902  0.3320
15505TIP3    H167930   0.631   3.345   0.313  0.1391 -0.0980  0.1843
15505TIP3    H267931   0.742   3.371   0.413 -0.9835 -0.5157  1.5831
15506TIP3   OH267932   6.164   1.866   5.642  0.2627 -0.0497 -0.3143
15506TIP3    H167933   6.118   1.933   5.692  0.3120  0.6211 -1.1353
15506TIP3    H267934   6.183   1.797   5.705 -0.2162  0.4972  0.4422
15507TIP3   OH267935   4.190   0.563  14.097 -0.0013  0.5027  0.8829
15507TIP3    H167936   4.106   0.549  14.141 -1.4648 -1.7867 -2.2180
15507TIP3    H267937   4.255   0.524  14.155 -1.3670  0.3705  2.3836
15508TIP3   OH267938   3.134   2.153  14.884 -0.6664 -0.2402 -0.5296
15508TIP3    H167939   3.224   2.183  14.894 -0.8981  0.1859  0.3158
15508TIP3    H267940   3.116   2.102  14.963 -0.2769 -2.7053 -1.9197
15509TIP3   OH267941   6.384   0.261  16.825 -0.4018 -0.1941  0.1919
15509TIP3    H167942   6.472   0.227  16.810  0.1584  0.1770  2.4046
15509TIP3    H267943   6.326   0.196  16.784  0.8363 -1.1779 -0.0604
15510TIP3   OH267944   3.453   3.460  16.894 -0.0111  0.4516 -0.7004
15510TIP3    H167945   3.496   3.451  16.979 -0.7482  3.6853  0.1374
15510TIP3    H267946   3.388   3.389  16.892 -0.4627  0.7133  1.7716
15511TIP3   OH267947   4.034   5.949  11.728 -0.3797  0.2977 -0.2729
15511TIP3    H167948   3.991   6.018  11.677  0.1864  2.0062  1.4128
15511TIP3    H267949   4.059   5.883  11.664 -2.1231  1.0356 -1.7903
15512TIP3   OH267950   0.023   0.442   5.493  0.0711  0.5103 -0.2151
15512TIP3    H167951   0.083   0.510   5.462 -0.9165  1.4222 -0.1497
15512TIP3    H267952  -0.055   0.489   5.521 -0.5550 -0.6374  0.0220
15513TIP3   OH267953   5.949   1.258   4.517 -0.2861  0.4265 -0.5855
15513TIP3    H167954   5.860   1.265   4.552 -0.1348  0.3429 -0.1767
15513TIP3    H267955   5.972   1.166   4.528 -0.5648  0.2067 -1.7317
15514TIP3   OH267956   4.007   5.137   0.598 -0.0286 -0.5730  0.0799
15514TIP3    H167957   3.943   5.068   0.615 -0.3239 -0.3010  0.0880
15514TIP3    H267958   4.080   5.117   0.657  0.8629 -2.1444 -1.4923
15515TIP3   OH267959   6.315   6.196   6.178 -0.1329  0.2282 -0.3926
15515TIP3    H167960   6.325   6.203   6.083  2.5071 -2.5551 -0.4759
15515TIP3    H267961   6.403   6.208   6.213 -0.8968  0.3152  1.6720
15516TIP3   OH267962   5.258   5.523  12.951  0.4770 -0.1940  0.2631
15516TIP3    H167963   5.308   5.550  13.028 -0.3858  2.1310  0.0946
15516TIP3    H267964   5.318   5.540  12.877 -0.6235  3.3278 -0.0094
15517TIP3   OH267965   0.070   3.556   0.561 -0.3584 -0.2706 -0.0448
15517TIP3    H167966   0.047   3.615   0.489 -1.8864  2.2324  2.3227
15517TIP3    H267967   0.148   3.595   0.600  1.1409 -2.2361 -0.9066
15518TIP3   OH267968   3.185   6.329   4.883 -0.2921 -0.4359  0.3776
15518TIP3    H167969   3.244   6.399   4.911 -0.1536  0.0545 -1.1036
15518TIP3    H267970   3.129   6.369   4.817  0.0345 -1.7863 -0.7701
15519TIP3   OH267971   4.389   5.110  13.748  0.0863  0.4138  0.6070
15519TIP3    H167972   4.462   5.136  13.692  1.1632 -1.1243  1.2085
15519TIP3    H267973   4.351   5.193  13.778  0.2013  1.2487 -1.4388
15520TIP3   OH267974   2.062   3.841   0.634  0.1915  0.0896 -0.0230
15520TIP3    H167975   2.011   3.837   0.715  1.5706 -0.1106  0.8579
15520TIP3    H267976   2.100   3.754   0.625 -1.0124 -0.3105 -1.6281
15521TIP3   OH267977   0.962   6.142  16.909  0.5177 -0.1323  0.0546
15521TIP3    H167978   1.013   6.217  16.940  1.7957 -0.6406 -0.7497
15521TIP3    H267979   0.927   6.102  16.989  2.6144 -0.6238  0.7684
15522TIP3   OH267980   0.436   4.914   1.853  0.2737  0.1328 -0.1561
15522TIP3    H167981   0.526   4.905   1.823  0.3751 -0.7035  0.3475
15522TIP3    H267982   0.394   4.969   1.788  0.8333 -0.5060 -1.0808
15523TIP3   OH267983   2.432   5.362  10.553  1.0895 -0.0180  0.0306
15523TIP3    H167984   2.357   5.316  10.590  0.7299  1.9521  1.9817
15523TIP3    H267985   2.505   5.301  10.563 -0.0218 -1.6537 -1.1728
15524TIP3   OH267986   1.331   4.723   1.337 -0.4970  0.2983  0.0508
15524TIP3    H167987   1.365   4.764   1.417  0.8499  3.9779 -2.1598
15524TIP3    H267988   1.407   4.681   1.298 -1.0142 -0.9196  0.2937
15525TIP3   OH267989   1.600   1.982   2.059  0.7788 -0.3665 -0.0341
15525TIP3    H167990   1.640   1.898   2.084 -0.5353 -1.1421 -0.3830
15525TIP3    H267991   1.574   2.022   2.142  2.7904  0.4480  0.2345
15526TIP3   OH267992   4.112   1.366  16.876  0.0036 -0.0911  0.9111
15526TIP3    H167993   4.120   1.273  16.895 -1.9880 -0.6559 -0.6194
15526TIP3    H267994   4.101   1.408  16.961  0.3992 -1.3251  1.5816
15527TIP3   OH267995   4.196   5.429  17.026  0.1287 -0.1427 -0.2576
15527TIP3    H167996   4.127   5.364  17.039 -0.2399  0.3423  0.2838
15527TIP3    H267997   4.243   5.400  16.948 -0.9869 -0.2135 -0.9105
15528TIP3   OH267998   0.122   0.518  11.707  0.3033 -0.3947 -0.5859
15528TIP3    H167999   0.099   0.542  11.797 -0.1957 -2.3253 -0.1582
15528TIP3    H268000   0.214   0.494  11.711  0.7279  1.0914 -0.9567
15529TIP3   OH268001   3.028   4.797   0.099  0.1158 -0.2311  0.0044
15529TIP3    H168002   2.993   4.708   0.099 -0.0716 -0.1595  0.3052
15529TIP3    H268003   3.118   4.787   0.069  1.5120 -1.0860  3.8711
15530TIP3   OH268004   6.223   5.134  12.644  0.2622 -0.4039  0.0081
15530TIP3    H168005   6.143   5.180  12.618  1.3852  1.0348 -1.1919
15530TIP3    H268006   6.214   5.046  12.607 -0.5948 -0.1305 -0.4614
15531TIP3   OH268007   4.218   5.085  11.036  0.3536  0.1064 -1.1425
15531TIP3    H168008   4.197   5.163  10.985  0.5559  0.2016 -1.0806
15531TIP3    H268009   4.267   5.118  11.112 -1.5789  0.1969  0.1362
15532TIP3   OH268010   5.921   4.596   4.681 -0.3438 -0.7745  0.1176
15532TIP3    H168011   5.929   4.503   4.702 -2.6291 -0.7847  1.2497
15532TIP3    H268012   5.838   4.604   4.635  0.5685  0.5262 -1.4261
15533TIP3   OH268013   6.406   4.947   0.184 -0.0706 -0.4063  0.1791
15533TIP3    H168014   6.458   4.914   0.257 -0.7753 -2.0217 -0.0160
15533TIP3    H268015   6.463   5.010   0.141  1.2584 -1.2118  0.7023
15534TIP3   OH268016   6.744   5.912   6.532 -0.8371  0.1682 -0.0847
15534TIP3    H168017   6.728   6.004   6.511 -1.6643  0.2664  0.9003
15534TIP3    H268018   6.686   5.863   6.473  0.2774  0.2130 -1.2583
15535TIP3   OH268019   3.767   1.244  15.130  0.1062  0.2531 -0.0946
15535TIP3    H168020   3.841   1.197  15.090  0.4305  0.2826  0.4564
15535TIP3    H268021   3.695   1.232  15.069  1.2516  2.5328 -2.0661
15536TIP3   OH268022   6.314   1.873   2.599  0.1120  0.3722  0.0650
15536TIP3    H168023   6.279   1.787   2.574 -0.0924 -0.4678  2.8436
15536TIP3    H268024   6.245   1.911   2.654  0.4216  2.1347 -0.7008
15537TIP3   OH268025   2.360   2.819   5.192 -0.1359 -0.1987  0.2869
15537TIP3    H168026   2.399   2.736   5.219  1.6281  0.2775 -0.6117
15537TIP3    H268027   2.331   2.860   5.273  0.9344 -0.7678  0.9738
15538TIP3   OH268028   6.518   4.509   1.987  0.1529  0.2341 -0.1000
15538TIP3    H168029   6.532   4.418   2.012 -0.0265  0.3791  0.5590
15538TIP3    H268030   6.605   4.548   1.988  0.3919 -0.2157 -1.5951
15539TIP3   OH268031   6.451   5.137  17.103 -0.0052 -0.5012  0.6388
15539TIP3    H168032   6.359   5.147  17.078  0.7895 -0.2513 -2.7123
15539TIP3    H268033   6.466   5.043  17.101  0.0305 -0.4882  0.1845
15540TIP3   OH268034   5.504   2.594   2.275  0.3226  0.3626  0.0739
15540TIP3    H168035   5.505   2.646   2.194 -0.7855 -1.0126 -0.8789
15540TIP3    H268036   5.562   2.520   2.256  0.3559  0.2354  0.6690
15541TIP3   OH268037   5.858   4.109  12.359 -0.6361 -0.1774 -0.0757
15541TIP3    H168038   5.891   4.022  12.336 -0.0063  0.3814 -1.4288
15541TIP3    H268039   5.765   4.106  12.338 -1.2600 -1.3326  2.4605
15542TIP3   OH268040   5.969   5.059   5.408  0.2903 -0.5089 -0.3921
15542TIP3    H168041   5.949   5.152   5.392 -0.5382 -0.9590 -2.2221
15542TIP3    H268042   6.059   5.048   5.378  0.8192 -0.0689  0.9547
15543TIP3   OH268043   0.028   5.879   6.212  0.1282 -0.5699 -0.4148
15543TIP3    H168044   0.070   5.958   6.245  0.0436 -0.7046  0.0311
15543TIP3    H268045  -0.036   5.856   6.280  1.9367 -2.4703  0.7465
15544TIP3   OH268046   2.148   6.565  11.497  0.0185  0.2506 -0.1231
15544TIP3    H168047   2.126   6.550  11.405 -1.9138  0.8593  0.1942
15544TIP3    H268048   2.064   6.585  11.539  1.3121  4.0167  1.0106
15545TIP3   OH268049   2.006   4.486   1.464  0.1290  0.8410 -0.4475
15545TIP3    H168050   2.042   4.398   1.455  0.1242  0.5805  1.7563
15545TIP3    H268051   1.913   4.476   1.446 -0.0074  0.2422  0.5426
15546TIP3   OH268052   3.897   2.699   3.552 -0.2601  0.6270  0.1528
15546TIP3    H168053   3.944   2.644   3.615 -1.3106  1.7995  2.0868
15546TIP3    H268054   3.804   2.684   3.573 -0.6890  0.4113 -1.7341
15547TIP3   OH268055   4.357   6.567  13.344 -0.3191 -0.0400 -0.1921
15547TIP3    H168056   4.409   6.504  13.294 -1.5184 -2.7222  1.6860
15547TIP3    H268057   4.266   6.544  13.324 -0.9791  3.6808 -2.3839
15548TIP3   OH268058   3.619   2.737   1.005 -0.8301 -0.1095  0.1566
15548TIP3    H168059   3.667   2.689   1.072 -0.1766  2.1155  1.4103
15548TIP3    H268060   3.537   2.763   1.049 -1.0663  0.1148 -0.4080
15549TIP3   OH268061   1.790   5.828  15.803 -0.0246  0.0362  0.1408
15549TIP3    H168062   1.744   5.789  15.878 -0.1710  1.5540  0.8653
15549TIP3    H268063   1.721   5.866  15.749  0.2355  0.7512  0.3045
15550TIP3   OH268064   5.556   0.962   2.474 -0.0481 -0.3514 -0.7578
15550TIP3    H168065   5.552   1.057   2.461 -1.2231 -0.0822  1.2046
15550TIP3    H268066   5.563   0.926   2.385 -2.6479  1.4498 -1.8102
15551TIP3   OH268067   4.478   5.804   6.146 -0.0727 -0.5207  0.5569
15551TIP3    H168068   4.462   5.812   6.240  0.4093 -0.0252  0.6061
15551TIP3    H268069   4.486   5.710   6.131  0.1440 -0.5887  1.0684
15552TIP3   OH268070   4.846   1.194   5.659  0.3957  0.1363 -0.4749
15552TIP3    H168071   4.900   1.263   5.697  0.7748 -0.0580 -0.6565
15552TIP3    H268072   4.840   1.128   5.727 -0.2733  0.5102 -0.1668
15553TIP3   OH268073   3.349   1.365  11.958  0.4648  0.3759 -0.2834
15553TIP3    H168074   3.327   1.305  11.887 -0.2233  1.7678 -1.3062
15553TIP3    H268075   3.269   1.416  11.973  0.8846  0.7459  0.8515
15554TIP3   OH268076   1.796   3.948  15.471  0.2152 -0.5653  0.1349
15554TIP3    H168077   1.758   3.949  15.559  0.4755 -2.0466  0.2959
15554TIP3    H268078   1.890   3.944  15.485  0.2261 -2.5671 -0.1229
15555TIP3   OH268079   1.653   1.537  11.687 -0.3323  0.0622  0.3095
15555TIP3    H168080   1.600   1.551  11.766 -0.1101 -1.0587  0.6841
15555TIP3    H268081   1.741   1.566  11.711 -0.2156 -0.4813  0.5622
15556TIP3   OH268082   4.505   2.184   1.350 -0.5161 -0.1250 -0.0359
15556TIP3    H168083   4.571   2.170   1.282  0.7960  1.1592  0.8995
15556TIP3    H268084   4.537   2.134   1.425 -1.7944 -1.2872 -0.2209
15557TIP3   OH268085   2.729   6.432  12.375  0.1218  0.7174 -0.1160
15557TIP3    H168086   2.687   6.508  12.416 -0.1256  0.3179  0.3839
15557TIP3    H268087   2.773   6.387  12.447  0.9313  0.8065 -0.5384
15558TIP3   OH268088   3.856   0.906  16.303  0.3903 -0.4852 -0.0116
15558TIP3    H168089   3.870   0.867  16.389 -0.5254 -0.5166  0.1385
15558TIP3    H268090   3.773   0.869  16.273  0.2033  0.2720 -0.4723
15559TIP3   OH268091   4.582   0.712  11.598  0.0872  0.2397  0.3268
15559TIP3    H168092   4.487   0.703  11.608  0.1893  0.3495  1.7115
15559TIP3    H268093   4.616   0.623  11.604 -0.0781 -0.1533 -2.9669
15560TIP3   OH268094   5.228   2.717  15.838  0.1727 -0.2463 -0.0296
15560TIP3    H168095   5.189   2.744  15.754  0.1308  1.6519  0.5410
15560TIP3    H268096   5.260   2.628  15.822 -0.9052 -0.3835 -1.6899
15561TIP3   OH268097   5.170   3.764   1.842  0.1996  0.1619 -0.1767
15561TIP3    H168098   5.163   3.846   1.891 -3.1590 -1.0232  1.6578
15561TIP3    H268099   5.238   3.714   1.887  0.1674  0.7963  0.5950
15562TIP3   OH268100   4.559   0.185   4.152 -0.0198 -0.1759  0.2467
15562TIP3    H168101   4.501   0.136   4.095 -0.0006  0.1196 -0.0292
15562TIP3    H268102   4.639   0.134   4.156 -0.4460 -0.8163  0.9836
15563TIP3   OH268103   0.585   5.518  13.423  0.4577 -0.1842  0.3184
15563TIP3    H168104   0.617   5.533  13.334  0.7846  1.3424  0.6579
15563TIP3    H268105   0.553   5.428  13.422  1.3412 -0.5200 -1.0683
15564TIP3   OH268106   2.149   3.340   5.397 -0.0219 -0.2419 -0.2311
15564TIP3    H168107   2.065   3.311   5.363  0.3061 -0.8127 -0.5728
15564TIP3    H268108   2.179   3.268   5.452 -0.8577  0.9296  1.8881
15565TIP3   OH268109   2.410   4.590   2.883  0.2037 -0.0412  0.9410
15565TIP3    H168110   2.402   4.527   2.954 -0.1296  0.3259  1.2350
15565TIP3    H268111   2.502   4.586   2.858 -0.2333 -2.3117 -0.6078
15566TIP3   OH268112   2.437   3.833  11.461  0.4236  0.4008  0.1053
15566TIP3    H168113   2.497   3.899  11.496  0.7075  0.5163 -0.5740
15566TIP3    H268114   2.473   3.812  11.375  0.2291 -0.5089  0.2392
15567TIP3   OH268115   5.759   1.520   5.395 -0.2552  0.5372 -0.1446
15567TIP3    H168116   5.817   1.595   5.386  0.0898  0.0411 -3.0908
15567TIP3    H268117   5.781   1.463   5.321 -1.3069 -1.9256  1.3028
15568TIP3   OH268118   2.262   4.657   4.968  0.6865  0.0182 -0.7114
15568TIP3    H168119   2.313   4.684   5.044 -0.0659 -1.6206  0.4274
15568TIP3    H268120   2.172   4.682   4.990  0.6449  0.8618 -1.7332
15569TIP3   OH268121   6.350   3.329   0.933 -0.4287  0.2259 -0.7632
15569TIP3    H168122   6.422   3.268   0.916 -0.6573  0.1500 -1.4859
15569TIP3    H268123   6.379   3.412   0.896 -0.3728  0.4054 -0.3218
15570TIP3   OH268124   6.418   3.139   5.997  0.3827  0.0417  0.0225
15570TIP3    H168125   6.490   3.144   5.934  0.3551  0.7891  0.0424
15570TIP3    H268126   6.436   3.209   6.060  0.6155 -0.9226  1.0709
15571TIP3   OH268127   4.740   2.338   0.607  0.4288  0.0412 -0.1020
15571TIP3    H168128   4.775   2.288   0.681  2.4310 -1.8337 -2.1850
15571TIP3    H268129   4.728   2.426   0.642  0.2117 -1.0046  2.7285
15572TIP3   OH268130   6.312   0.002   4.898  0.0896  0.3042  0.1770
15572TIP3    H168131   6.372  -0.021   4.827 -1.8934 -1.0485 -1.1619
15572TIP3    H268132   6.295   0.095   4.884  0.3964  0.2613 -0.5996
15573TIP3   OH268133   6.625   3.052   2.428  0.6988 -0.2338 -0.6805
15573TIP3    H168134   6.710   3.052   2.472 -0.3832 -2.3817  1.6967
15573TIP3    H268135   6.565   3.089   2.493 -0.3161  0.7497 -2.1170
15574TIP3   OH268136   6.193   3.255   6.175 -0.1456 -0.2199 -0.5051
15574TIP3    H168137   6.131   3.198   6.219  0.1409 -0.5034 -0.4606
15574TIP3    H268138   6.139   3.320   6.129 -0.4459  0.6666  1.0208
15575TIP3   OH268139   0.969   1.456   1.228 -1.1103  0.1157  0.2772
15575TIP3    H168140   0.992   1.372   1.188 -1.2058  1.5681 -3.1945
15575TIP3    H268141   0.874   1.459   1.226 -1.0903  0.5944 -0.3686
15576TIP3   OH268142   0.862   2.783   1.690 -0.3186 -0.3371  0.1391
15576TIP3    H168143   0.799   2.782   1.762 -0.1206 -0.1006  0.3141
15576TIP3    H268144   0.810   2.803   1.612 -0.6780 -1.4264  0.0790
15577TIP3   OH268145   2.948   0.044   6.503  0.5851 -0.0480  0.8993
15577TIP3    H168146   2.923   0.136   6.503  1.8493  0.3278  1.7649
15577TIP3    H268147   2.941   0.017   6.412  2.9070  1.7135  0.1056
15578TIP3   OH268148   4.087   1.093   5.840 -0.0458  0.5188  0.0262
15578TIP3    H168149   4.053   1.080   5.929  1.2205 -0.3734  0.4211
15578TIP3    H268150   4.011   1.120   5.789 -0.8836  0.6796  1.2993
15579TIP3   OH268151   6.077   5.665  16.555 -0.0995  0.1270 -0.5520
15579TIP3    H168152   6.075   5.738  16.617 -0.5536 -1.0389  0.8666
15579TIP3    H268153   6.170   5.646  16.543  0.0194  0.9366 -0.9346
15580TIP3   OH268154   2.798   6.194   2.310 -0.5372  0.0766  0.0036
15580TIP3    H168155   2.762   6.166   2.225  0.5527  1.5335 -1.0006
15580TIP3    H268156   2.725   6.240   2.352 -1.4262 -1.6134  0.3815
15581TIP3   OH268157   6.723   6.629  10.898  0.3098 -0.5003  0.4517
15581TIP3    H168158   6.743   6.671  10.815 -0.0256 -1.0903  0.0630
15581TIP3    H268159   6.628   6.614  10.895  0.6461 -2.8601 -0.2032
15582TIP3   OH268160   2.839   5.534  13.326  0.7230  0.0916  0.0650
15582TIP3    H168161   2.820   5.628  13.330 -0.2074 -0.0720 -0.1790
15582TIP3    H268162   2.792   5.497  13.400  1.0048 -0.1980  0.1012
15583TIP3   OH268163   4.692   4.923  11.803 -0.6313  0.4600  0.3975
15583TIP3    H168164   4.720   4.845  11.853  1.2935  0.1432 -1.0682
15583TIP3    H268165   4.771   4.976  11.797  0.3657 -1.0920 -5.1414
15584TIP3   OH268166   5.234   5.149  10.889 -0.0035 -0.5567 -0.5497
15584TIP3    H168167   5.256   5.209  10.817 -0.6115  0.4484  0.0881
15584TIP3    H268168   5.150   5.110  10.862 -0.0664 -0.4303 -0.5360
15585TIP3   OH268169   5.783   0.005  15.035 -0.1979 -0.1015 -0.0112
15585TIP3    H168170   5.760  -0.083  15.064  1.0301 -0.0919  1.0648
15585TIP3    H268171   5.758   0.007  14.942 -0.2951 -1.5613 -0.0346
15586TIP3   OH268172   0.580   0.151   3.149  0.6588  0.1554  0.5714
15586TIP3    H168173   0.675   0.147   3.163  0.6881 -2.6263  0.0816
15586TIP3    H268174   0.568   0.122   3.058 -0.6622  0.8793  0.4847
15587TIP3   OH268175   5.614   3.561  11.263 -0.5260  0.3587  0.1097
15587TIP3    H168176   5.657   3.490  11.311 -1.4784 -0.7431 -0.6102
15587TIP3    H268177   5.635   3.544  11.171  0.8341  2.1441  0.0335
15588TIP3   OH268178   1.866   6.146  12.055  0.3964 -0.4546 -0.4366
15588TIP3    H168179   1.797   6.190  12.104  1.2840  0.7198 -0.1891
15588TIP3    H268180   1.851   6.170  11.964  0.2402 -0.5368 -0.4325
15589TIP3   OH268181   3.932   4.990   1.560 -0.8234 -0.8596  0.1751
15589TIP3    H168182   3.841   5.008   1.586 -1.0736 -0.9767 -0.5746
15589TIP3    H268183   3.975   4.963   1.641 -0.9905  0.9302  0.9130
15590TIP3   OH268184   1.134   4.325  12.778  0.3371 -0.4072  0.2910
15590TIP3    H168185   1.200   4.389  12.751 -1.0172  1.0254  0.2346
15590TIP3    H268186   1.182   4.263  12.833  1.6907  0.7042  0.4207
15591TIP3   OH268187   5.575   1.797  12.111 -0.0736  0.1665 -0.1355
15591TIP3    H168188   5.640   1.757  12.169 -1.3884  0.5899  1.7104
15591TIP3    H268189   5.493   1.754  12.134 -0.8094  1.1024 -0.9486
15592TIP3   OH268190   3.847   3.593  16.213 -0.2273  0.7762 -0.1975
15592TIP3    H168191   3.767   3.541  16.209  0.0410  0.4079 -1.1953
15592TIP3    H268192   3.826   3.666  16.271 -1.0331  0.2627  0.1697
15593TIP3   OH268193   4.558   5.526  13.961 -0.4012 -0.5066  0.0254
15593TIP3    H168194   4.470   5.504  13.992 -0.4650 -2.7133 -1.5156
15593TIP3    H268195   4.553   5.515  13.866  0.9729  1.6127 -0.3595
15594TIP3   OH268196   2.492   3.613  16.451 -0.8869 -0.2207 -0.2882
15594TIP3    H168197   2.586   3.624  16.436 -1.0294 -1.3794 -2.2870
15594TIP3    H268198   2.487   3.545  16.519 -0.2961  0.2893  0.2827
15595TIP3   OH268199   4.384   6.733   1.583 -0.2743  0.2075 -0.2525
15595TIP3    H168200   4.414   6.715   1.673 -1.2033 -1.1997 -0.1907
15595TIP3    H268201   4.445   6.685   1.528  0.4646  1.3014 -0.4066
15596TIP3   OH268202   5.679   0.139   5.090  0.1641 -0.1101 -0.0307
15596TIP3    H168203   5.625   0.095   5.024 -0.7434 -0.7647  1.1044
15596TIP3    H268204   5.662   0.232   5.077  1.8471 -0.0374 -2.2548
15597TIP3   OH268205   3.902   3.888   3.137  0.2033 -0.0197  0.0916
15597TIP3    H168206   3.822   3.867   3.089 -1.3459  1.1485  2.0455
15597TIP3    H268207   3.935   3.967   3.094  0.5216 -0.6563 -0.8920
15598TIP3   OH268208   4.086   3.550   0.111  0.0203  0.6620  0.3266
15598TIP3    H168209   4.101   3.598   0.192  2.5155 -0.0105  0.3344
15598TIP3    H268210   4.013   3.492   0.131  0.2711  0.8454  1.9371
15599TIP3   OH268211   0.513   3.939  16.540  0.4983 -0.7615  0.5610
15599TIP3    H168212   0.606   3.949  16.521  0.0817 -0.7915 -1.7796
15599TIP3    H268213   0.498   3.845  16.536  0.1627 -0.6804 -0.3008
15600TIP3   OH268214   3.184   0.732  14.142  0.2943  0.0005  0.2543
15600TIP3    H168215   3.096   0.700  14.124 -0.2779 -0.8608  3.8120
15600TIP3    H268216   3.186   0.821  14.105 -1.5094 -0.4783 -1.1316
15601TIP3   OH268217   2.112   6.522  16.888  0.1526  0.4474  0.2678
15601TIP3    H168218   2.160   6.577  16.950 -1.5347  2.4524 -0.0595
15601TIP3    H268219   2.062   6.584  16.835 -3.2464 -1.4056  0.9826
15602TIP3   OH268220   1.759   3.082  14.264 -0.1076  0.5511  0.0587
15602TIP3    H168221   1.705   3.141  14.318 -2.3651 -0.3844 -1.0556
15602TIP3    H268222   1.728   2.994  14.286  1.1084 -0.0436 -0.5243
15603TIP3   OH268223   6.450   1.811  10.852 -0.1018  0.3934 -0.0697
15603TIP3    H168224   6.514   1.850  10.912  1.1798  0.3959 -1.3720
15603TIP3    H268225   6.381   1.877  10.845 -0.3041  0.3681  1.4147
15604TIP3   OH268226   1.582   4.289   0.307  0.1722  0.0795  0.4894
15604TIP3    H168227   1.554   4.379   0.288 -1.6443 -0.5515 -0.0013
15604TIP3    H268228   1.625   4.260   0.226  0.7600  0.4857  0.6477
15605TIP3   OH268229   5.122   4.645   1.343 -0.0536 -0.4099 -0.3459
15605TIP3    H168230   5.209   4.615   1.318 -0.3596 -0.4934 -1.3887
15605TIP3    H268231   5.123   4.739   1.323  0.4318  0.0077  1.5318
15606TIP3   OH268232   2.917   1.169  15.708  0.0960  0.3661 -0.1848
15606TIP3    H168233   3.005   1.168  15.746 -0.3232 -1.1773  0.8111
15606TIP3    H268234   2.858   1.180  15.783 -0.6675 -1.0713 -0.5336
15607TIP3   OH268235   2.938   4.567  13.616  0.0443 -0.0079 -0.4515
15607TIP3    H168236   2.920   4.520  13.697 -0.1936 -0.8747 -0.9985
15607TIP3    H268237   3.033   4.573  13.612  0.1099 -1.1445 -0.7660
15608TIP3   OH268238   2.329   5.002   0.513 -0.6451 -0.1149 -0.2032
15608TIP3    H168239   2.303   4.920   0.471 -2.1929  0.0228  0.4218
15608TIP3    H268240   2.422   5.012   0.492 -0.6332 -1.6180 -0.9493
15609TIP3   OH268241   2.805   1.091  14.287  0.2913  0.4037 -0.2479
15609TIP3    H168242   2.877   1.144  14.321  1.1134 -0.2487 -0.9355
15609TIP3    H268243   2.758   1.149  14.227 -0.6838  1.3034  1.3078
15610TIP3   OH268244   4.532   4.334   0.705  0.2249 -0.4732 -0.2388
15610TIP3    H168245   4.590   4.260   0.686 -0.8806 -1.3118 -0.4167
15610TIP3    H268246   4.577   4.382   0.774  1.7825 -0.3371 -1.2936
15611TIP3   OH268247   3.723   5.287   0.814 -0.0307 -0.2720  0.1216
15611TIP3    H168248   3.810   5.327   0.815  1.3251 -2.9282  2.1520
15611TIP3    H268249   3.664   5.356   0.784  2.9092  1.2395 -2.7495
15612TIP3   OH268250   5.626   5.132   6.219  0.0208 -0.1142  0.0484
15612TIP3    H168251   5.659   5.042   6.212 -0.2792 -0.2635  0.5180
15612TIP3    H268252   5.539   5.123   6.257 -0.3933  0.3111 -0.7842
15613TIP3   OH268253   5.859   6.431  11.823  0.4322 -0.4559 -0.2978
15613TIP3    H168254   5.938   6.376  11.820  1.3302  0.7897 -0.1423
15613TIP3    H268255   5.850   6.465  11.734 -1.2195 -2.2746 -0.9154
15614TIP3   OH268256   6.170   5.358  13.002  0.1289  0.1953 -0.6554
15614TIP3    H168257   6.222   5.387  12.928 -0.2034 -0.0837 -1.0073
15614TIP3    H268258   6.091   5.321  12.962 -0.2650  0.4686 -0.1428
15615TIP3   OH268259   0.295   4.335   3.342  0.7196 -0.1757  0.2605
15615TIP3    H168260   0.245   4.414   3.360  0.1474 -0.5787  0.4919
15615TIP3    H268261   0.374   4.344   3.394  0.5673  0.1565  0.4354
15616TIP3   OH268262   2.172   5.711   2.490  0.1910  0.2983  0.6374
15616TIP3    H168263   2.153   5.797   2.453 -0.7030 -0.0707  0.2037
15616TIP3    H268264   2.197   5.657   2.415 -2.8570 -0.7971  0.2707
15617TIP3   OH268265   1.011   5.112  12.945  0.1041  0.4860  0.9155
15617TIP3    H168266   1.069   5.135  12.873 -2.0636 -2.1673 -1.9285
15617TIP3    H268267   0.941   5.177  12.940 -1.1995 -0.9666 -0.9820
15618TIP3   OH268268   1.137   5.179  10.769  0.0799 -0.1269  0.0593
15618TIP3    H168269   1.205   5.238  10.736  2.8312 -1.2939  3.1617
15618TIP3    H268270   1.059   5.235  10.776  1.3307  1.9285 -1.3022
15619TIP3   OH268271   4.555   3.706  15.668  0.4541 -0.2356 -0.5890
15619TIP3    H168272   4.638   3.724  15.712  0.7101  2.4370 -1.9849
15619TIP3    H268273   4.577   3.701  15.575 -0.7666 -0.9130 -0.8758
15620TIP3   OH268274   1.186   1.627  14.452  0.1564 -0.2059  0.6842
15620TIP3    H168275   1.239   1.609  14.530  0.9233  0.1841  0.2666
15620TIP3    H268276   1.150   1.714  14.466  0.7895  0.1191  0.3458
15621TIP3   OH268277   2.832   2.786  13.910  0.1285 -0.2875 -0.0766
15621TIP3    H168278   2.800   2.715  13.965 -0.1837 -0.9957 -1.1514
15621TIP3    H268279   2.926   2.789  13.927  0.0129 -0.3897  0.6076
15622TIP3   OH268280   1.503   4.619   3.379 -0.0945  0.2051 -0.1457
15622TIP3    H168281   1.442   4.571   3.435  2.5275 -0.2262  2.5868
15622TIP3    H268282   1.555   4.551   3.337  1.5538  0.5203  1.2753
15623TIP3   OH268283   3.429   1.589   1.333  0.1961 -0.1745  0.0061
15623TIP3    H168284   3.437   1.659   1.268 -0.8304 -0.4908 -0.4703
15623TIP3    H268285   3.349   1.543   1.310 -0.0372 -0.4759  1.3238
15624TIP3   OH268286   2.979   5.022  13.732 -0.2707  0.2046 -0.5203
15624TIP3    H168287   2.967   4.927  13.742 -0.1444  0.2525  0.1858
15624TIP3    H268288   2.890   5.056  13.720 -0.3869  0.0653 -0.0778
15625TIP3   OH268289   2.858   5.344   1.957  0.0672 -0.0983 -0.2092
15625TIP3    H168290   2.807   5.319   2.034  1.2576 -0.5714  0.4568
15625TIP3    H268291   2.854   5.440   1.956  2.2753  0.1205  2.0943
15626TIP3   OH268292   5.815   6.003   0.333  0.1721 -0.5481 -0.6171
15626TIP3    H168293   5.728   5.989   0.370  0.2460  0.3512 -0.0971
15626TIP3    H268294   5.801   6.000   0.238 -0.3359 -0.8793 -0.5403
15627TIP3   OH268295   5.229   3.678   5.963 -0.0717  0.2904  0.1887
15627TIP3    H168296   5.205   3.654   5.873 -0.4503 -0.5515  0.5050
15627TIP3    H268297   5.252   3.595   6.005  0.7147  0.7457  0.7007
15628TIP3   OH268298   0.823   6.477  14.459  0.1155  0.1299 -0.1567
15628TIP3    H168299   0.897   6.436  14.412 -0.8211 -0.5463 -1.0822
15628TIP3    H268300   0.764   6.506  14.390 -0.0202  1.6079  0.5543
15629TIP3   OH268301   6.109   0.399  14.128  0.7819  0.5025  0.0794
15629TIP3    H168302   6.171   0.470  14.147  1.2838  0.6327 -1.8318
15629TIP3    H268303   6.029   0.443  14.102  0.6095  0.3446  0.3362
15630TIP3   OH268304   6.304   5.437  14.672  0.2491 -0.2424  0.0199
15630TIP3    H168305   6.274   5.478  14.753  1.5733  0.5331  0.1437
15630TIP3    H268306   6.384   5.485  14.649 -1.0966  0.8843 -2.7719
15631TIP3   OH268307   1.531   2.729   0.165 -0.7015  0.2025 -0.1285
15631TIP3    H168308   1.533   2.721   0.260 -3.3150 -0.0912 -0.0186
15631TIP3    H268309   1.623   2.721   0.138  0.1319  0.5090  2.3494
15632TIP3   OH268310   4.116   3.427   4.956 -0.3476  0.5383  0.4419
15632TIP3    H168311   4.143   3.345   4.915 -0.3093  1.0102 -0.5018
15632TIP3    H268312   4.037   3.452   4.909 -0.6826  0.7628  1.1041
15633TIP3   OH268313   1.744   2.134   2.739  0.4763  0.0785 -0.4266
15633TIP3    H168314   1.783   2.151   2.825 -0.0663  0.6521 -0.2878
15633TIP3    H268315   1.777   2.047   2.715  0.0643 -0.4180  0.7007
15634TIP3   OH268316   0.030   4.412   2.538  0.5742  0.1882  0.0535
15634TIP3    H168317   0.083   4.334   2.555  1.1643  0.8488  1.5121
15634TIP3    H268318   0.008   4.444   2.626 -3.5843 -0.8683 -0.4216
15635TIP3   OH268319   3.293   1.429  13.089  0.1125  0.2384  0.0349
15635TIP3    H168320   3.324   1.374  13.160  0.1406  0.3434  0.1039
15635TIP3    H268321   3.348   1.406  13.015 -1.3359 -1.5020 -0.5891
15636TIP3   OH268322   4.727   6.759  13.099  0.3109 -0.2912  0.3285
15636TIP3    H168323   4.732   6.670  13.133 -1.0518 -0.3278  0.5173
15636TIP3    H268324   4.633   6.779  13.100  0.5293  0.8618 -0.4411
15637TIP3   OH268325   6.634   0.654  12.258 -0.0323 -0.0970  0.0907
15637TIP3    H168326   6.576   0.609  12.319 -0.5225  1.4362  0.7978
15637TIP3    H268327   6.691   0.585  12.223 -0.1135 -1.1012  1.8502
15638TIP3   OH268328   6.615   3.179  17.262 -0.5292 -0.2829  0.6245
15638TIP3    H168329   6.637   3.114  17.196  1.0385  0.1613  0.6573
15638TIP3    H268330   6.675   3.161  17.335  1.2406  2.2075 -0.0567
15639TIP3   OH268331   1.487   5.364   5.320 -0.4800  0.3311  0.6807
15639TIP3    H168332   1.520   5.297   5.380 -1.2548  0.0547  0.8093
15639TIP3    H268333   1.449   5.431   5.377  1.6687  1.7108  0.6540
15640TIP3   OH268334   5.634   6.490  11.292 -0.2471  0.0243 -0.1720
15640TIP3    H168335   5.599   6.501  11.204  0.8829 -0.7154 -0.7285
15640TIP3    H268336   5.693   6.564  11.304  0.1692 -0.2809 -0.3254
15641TIP3   OH268337   1.751   0.763   2.517 -0.0944  0.3349  0.0479
15641TIP3    H168338   1.712   0.850   2.532 -1.2172  0.5788 -3.4764
15641TIP3    H268339   1.845   0.780   2.514 -0.3486  1.9186 -2.3829
15642TIP3   OH268340   0.012   3.781  11.943  0.2662  0.5818  0.6412
15642TIP3    H168341  -0.049   3.849  11.974 -0.3519 -0.0219  0.7714
15642TIP3    H268342   0.008   3.787  11.848  0.2893  0.7890  0.6517
15643TIP3   OH268343   1.983   2.474   3.705 -0.0431  0.3387 -0.7581
15643TIP3    H168344   2.032   2.404   3.748  0.7839 -0.5517 -2.9524
15643TIP3    H268345   1.892   2.459   3.730  0.3893 -0.0975  0.6422
15644TIP3   OH268346   6.481   4.708   1.483  0.3744 -0.3121  0.1434
15644TIP3    H168347   6.415   4.751   1.538 -2.4498 -2.2651 -1.4988
15644TIP3    H268348   6.499   4.626   1.528 -1.9463 -1.9188 -1.6348
15645TIP3   OH268349   3.056   2.482   5.284 -0.7826 -0.1571 -0.3389
15645TIP3    H168350   3.058   2.388   5.270 -2.9223 -0.2878 -0.1312
15645TIP3    H268351   2.988   2.514   5.224  0.5257  1.4052 -1.0689
15646TIP3   OH268352   0.850   5.165   0.737  0.3244  0.4222 -0.5950
15646TIP3    H168353   0.893   5.169   0.822 -0.3840  2.6197 -0.2572
15646TIP3    H268354   0.877   5.081   0.700  0.7100 -0.5648  1.7343
15647TIP3   OH268355   1.876   3.845   0.872  0.1253 -0.5631  0.1728
15647TIP3    H168356   1.811   3.789   0.916 -1.5998 -0.0637 -1.5710
15647TIP3    H268357   1.829   3.879   0.795  1.9558  1.1908 -0.2394
15648TIP3   OH268358   5.354   0.545  12.460  0.3807 -0.0264 -0.3620
15648TIP3    H168359   5.419   0.575  12.524  0.5718  0.4393 -0.7665
15648TIP3    H268360   5.289   0.616  12.458  0.0747 -0.3025 -0.2624
15649TIP3   OH268361   3.656   0.566   3.020 -0.8342 -0.6504  0.2050
15649TIP3    H168362   3.610   0.489   3.053  1.0864 -3.0232 -2.2757
15649TIP3    H268363   3.613   0.586   2.937 -0.8304  0.5346  0.4706
15650TIP3   OH268364   4.464   0.969   4.897  0.1714 -0.0664  0.4356
15650TIP3    H168365   4.559   0.973   4.887  0.0847 -0.2647 -0.5392
15650TIP3    H268366   4.433   1.052   4.861 -0.0998 -0.4497 -0.2260
15651TIP3   OH268367   0.518   4.682   2.699  0.4194  0.6699  0.1325
15651TIP3    H168368   0.511   4.777   2.694 -0.9738  0.8392  3.0847
15651TIP3    H268369   0.563   4.665   2.782  0.8534 -1.2583 -0.4352
15652TIP3   OH268370   2.146   0.278   1.462  0.3367 -0.3502  0.4610
15652TIP3    H168371   2.133   0.186   1.438 -1.6320  0.0475 -0.2280
15652TIP3    H268372   2.145   0.324   1.378  1.4190  0.3005  0.7933
15653TIP3   OH268373   2.389   4.366  10.626  0.0945  0.2538 -0.2752
15653TIP3    H168374   2.335   4.288  10.639 -1.0760  0.4204 -3.2313
15653TIP3    H268375   2.477   4.338  10.649 -0.8833 -0.4642  3.2627
15654TIP3   OH268376   5.394   2.731   4.577  0.3402 -0.2738 -0.1056
15654TIP3    H168377   5.481   2.708   4.545 -0.1153 -1.2558 -0.6818
15654TIP3    H268378   5.376   2.818   4.541  2.2854  1.3460  2.4763
15655TIP3   OH268379   0.497   1.588  14.935  0.2454 -0.6162 -0.5893
15655TIP3    H168380   0.455   1.668  14.903  1.4177 -0.4233 -1.7659
15655TIP3    H268381   0.431   1.520  14.926  0.4974 -0.5719 -3.5442
15656TIP3   OH268382   0.075   2.071  15.863 -0.0097  0.0313 -0.3380
15656TIP3    H168383   0.154   2.107  15.822  0.6665 -0.6819  0.2881
15656TIP3    H268384   0.108   2.023  15.940 -0.9089 -1.3310 -0.7567
15657TIP3   OH268385   6.719   4.787   4.381  0.1436 -0.0390 -0.0377
15657TIP3    H168386   6.753   4.876   4.381 -0.7521  0.3484  1.5979
15657TIP3    H268387   6.635   4.793   4.428  0.0546 -1.7222  0.0891
15658TIP3   OH268388   3.216   5.496  16.586  0.2498 -0.2820  0.8524
15658TIP3    H168389   3.215   5.525  16.677  1.7240  0.7206  0.5898
15658TIP3    H268390   3.281   5.553  16.544 -0.4775 -0.6558 -0.8524
15659TIP3   OH268391   0.843   1.911  14.333 -0.4805  0.0327 -0.0785
15659TIP3    H168392   0.795   1.879  14.409 -0.0977  0.0605  0.1775
15659TIP3    H268393   0.776   1.933  14.269 -0.7579 -2.0677 -0.5779
15660TIP3   OH268394   1.227   6.647   3.776 -0.1625  0.5590 -0.3000
15660TIP3    H168395   1.182   6.563   3.779  1.5879 -0.4336 -0.3253
15660TIP3    H268396   1.228   6.677   3.867  1.0841 -0.5345  0.0798
15661TIP3   OH268397   0.330   0.540   2.005 -0.5895 -0.8927 -0.0143
15661TIP3    H168398   0.396   0.592   1.958  1.0012 -3.3239 -0.6064
15661TIP3    H268399   0.323   0.459   1.956 -2.1532 -1.7678  1.5290
15662TIP3   OH268400   4.126   1.630  15.733  0.7708 -0.2480  0.0956
15662TIP3    H168401   4.111   1.714  15.776 -0.0384 -0.5882  0.4962
15662TIP3    H268402   4.179   1.580  15.794 -0.8297 -0.9318  0.9821
15663TIP3   OH268403   4.587   4.819   5.310  0.7037  0.1467 -0.1478
15663TIP3    H168404   4.512   4.852   5.359  1.0137  1.2023 -0.3499
15663TIP3    H268405   4.550   4.756   5.249  0.0468  0.3025  0.0777
15664TIP3   OH268406   0.494   2.371  13.945  0.6326 -0.2078  0.4473
15664TIP3    H168407   0.539   2.405  13.868  1.5199  0.2673  1.1597
15664TIP3    H268408   0.563   2.356  14.009 -0.0172 -1.2107  0.9353
15665TIP3   OH268409   1.692   1.812   5.796 -0.0673  0.6005  0.0461
15665TIP3    H168410   1.624   1.878   5.778 -1.3737 -0.1556  1.8359
15665TIP3    H268411   1.646   1.728   5.792  1.1333 -0.0616 -0.2677
15666TIP3   OH268412   3.988   2.376   2.282 -0.0251 -0.3159  0.2432
15666TIP3    H168413   3.913   2.363   2.224 -0.2554  0.0106  0.4582
15666TIP3    H268414   3.963   2.332   2.363 -0.4814  0.7501  0.7071
15667TIP3   OH268415   4.423   5.989   5.021  0.3823 -0.0275  0.2846
15667TIP3    H168416   4.402   5.913   5.075  1.3546  0.2301  1.0464
15667TIP3    H268417   4.339   6.016   4.984 -0.2508 -0.3916  1.4141
15668TIP3   OH268418   5.401   5.777  16.297 -0.1347 -1.0233 -0.1876
15668TIP3    H168419   5.335   5.726  16.343 -0.6980 -0.9784 -0.9248
15668TIP3    H268420   5.431   5.842  16.361 -2.1466  0.1830 -0.3856
15669TIP3   OH268421   6.177   3.788   6.628  0.1555 -0.6557  0.4283
15669TIP3    H168422   6.178   3.840   6.708  3.1328 -1.0306  0.7349
15669TIP3    H268423   6.176   3.852   6.557 -0.5533 -0.3055  0.7404
15670TIP3   OH268424   4.160   3.684   2.931  0.1279  0.0568  0.5592
15670TIP3    H168425   4.091   3.639   2.980  1.0383 -1.3546  0.6107
15670TIP3    H268426   4.203   3.740   2.995  0.0771 -0.3227  0.9311
15671TIP3   OH268427   0.182   3.689   3.939 -0.3580 -0.3997 -0.0685
15671TIP3    H168428   0.213   3.600   3.960 -0.3486 -0.2203  0.7022
15671TIP3    H268429   0.258   3.745   3.958 -1.1935  0.0806  2.1162
15672TIP3   OH268430   4.880   3.219   1.413  0.1505 -0.0813  0.0551
15672TIP3    H168431   4.911   3.152   1.473 -0.5740  0.2197  0.7848
15672TIP3    H268432   4.787   3.199   1.399 -0.0070  0.5978  0.0656
15673TIP3   OH268433   0.001   3.300   5.292  0.4606 -0.3903  0.2810
15673TIP3    H168434   0.079   3.285   5.346  1.3390 -0.5357 -0.9853
15673TIP3    H268435  -0.050   3.364   5.341  1.7254  0.2457  0.8030
15674TIP3   OH268436   1.829   1.457  15.229  0.5391  0.2035 -0.2713
15674TIP3    H168437   1.783   1.493  15.153 -0.3557  1.7843  0.9613
15674TIP3    H268438   1.905   1.412  15.192 -0.6995 -0.4414 -2.2046
15675TIP3   OH268439   5.929   3.968  15.223 -0.0563 -0.1938 -0.0091
15675TIP3    H168440   5.922   4.064  15.221 -1.8894 -0.2970 -1.6664
15675TIP3    H268441   6.001   3.951  15.284  1.4827  2.2734 -0.9510
15676TIP3   OH268442   4.550   5.715   5.048  0.6328  0.2663  0.0567
15676TIP3    H168443   4.606   5.741   5.121  1.2620 -0.5541 -0.1219
15676TIP3    H268444   4.467   5.691   5.090  0.7136  0.5945  0.4132
15677TIP3   OH268445   2.815   5.441   1.324  0.4018 -0.1815 -0.0592
15677TIP3    H168446   2.860   5.526   1.327 -1.2675  0.8393 -1.6922
15677TIP3    H268447   2.737   5.454   1.378 -0.2634 -0.4045 -0.9490
15678TIP3   OH268448   5.500   0.382  12.150 -0.0595  0.8461  0.3168
15678TIP3    H168449   5.448   0.303  12.139  2.8492 -0.9559 -2.0239
15678TIP3    H268450   5.483   0.433  12.071  2.3492 -0.2889 -1.0330
15679TIP3   OH268451   6.355   6.769   1.835  0.0706 -0.0251  0.8917
15679TIP3    H168452   6.374   6.850   1.883  0.2763 -1.3338  3.1933
15679TIP3    H268453   6.339   6.704   1.904 -1.5533 -1.6241 -0.8734
15680TIP3   OH268454   3.459   3.291  13.374  0.1496  0.0709  0.0445
15680TIP3    H168455   3.440   3.244  13.292 -1.7396  1.0243 -0.1022
15680TIP3    H268456   3.444   3.227  13.443  0.3900 -0.3374 -0.2761
15681TIP3   OH268457   0.103   2.105   2.823  0.1760  0.2490 -0.2491
15681TIP3    H168458   0.060   2.124   2.739 -1.7379  1.0617  0.8625
15681TIP3    H268459   0.089   2.011   2.835  0.4096  0.1368 -0.7839
15682TIP3   OH268460   0.391   0.485   0.266  0.0786 -0.2794  0.7299
15682TIP3    H168461   0.354   0.411   0.315  1.1491 -1.6363 -0.4380
15682TIP3    H268462   0.327   0.501   0.196 -1.2248  1.3658  2.1996
15683TIP3   OH268463   1.271   0.043  15.002  0.9064  0.5716  0.2320
15683TIP3    H168464   1.279   0.035  14.907 -1.8684 -0.7404 -0.0070
15683TIP3    H268465   1.254   0.135  15.017 -0.9275  0.4638 -0.8607
15684TIP3   OH268466   4.205   4.268   5.781 -0.0624  0.3740 -0.3794
15684TIP3    H168467   4.118   4.292   5.813  0.7850  3.3160  0.0632
15684TIP3    H268468   4.242   4.214   5.850 -0.6616  1.2021  0.6202
15685TIP3   OH268469   3.127   3.090   1.854 -0.1419 -0.0824 -0.0642
15685TIP3    H168470   3.172   3.034   1.791 -1.9059 -1.6298 -0.0267
15685TIP3    H268471   3.094   3.030   1.921 -0.1074  1.2845  1.2402
15686TIP3   OH268472   5.438   0.224  13.386  0.5441  0.4655  0.0883
15686TIP3    H168473   5.372   0.291  13.406 -1.3926 -0.5830 -2.3015
15686TIP3    H268474   5.432   0.163  13.460  1.5336  2.2277  1.7263
15687TIP3   OH268475   3.365   4.348   5.868  0.0629  0.2341 -0.6305
15687TIP3    H168476   3.337   4.258   5.852  2.2273 -0.0797 -3.2872
15687TIP3    H268477   3.460   4.342   5.876  0.0368  1.9419  2.4486
15688TIP3   OH268478   4.575   3.767  16.853 -0.5962 -0.5414 -0.1822
15688TIP3    H168479   4.547   3.777  16.944  0.0851 -2.0613  0.2222
15688TIP3    H268480   4.527   3.835  16.806 -1.1579  0.1042  1.2661
15689TIP3   OH268481   2.714   3.456   2.495  0.1982  0.1352 -0.4836
15689TIP3    H168482   2.658   3.379   2.495  0.6121 -0.1688 -0.0230
15689TIP3    H268483   2.761   3.451   2.412  0.9348 -0.6340 -0.0320
15690TIP3   OH268484   2.464   0.884  14.729  0.0286  0.1672  0.4117
15690TIP3    H168485   2.526   0.858  14.661  1.7315 -0.8113  2.2627
15690TIP3    H268486   2.388   0.828  14.715 -0.5756  1.4065 -1.9081
15691TIP3   OH268487   1.458   5.204  12.737  0.4844  0.8974  0.6188
15691TIP3    H168488   1.412   5.147  12.676  0.0503  2.5946 -0.7026
15691TIP3    H268489   1.407   5.285  12.737  1.4211  1.5173  1.9714
15692TIP3   OH268490   3.810   4.249  13.721  0.1700 -0.2947  0.7859
15692TIP3    H168491   3.722   4.264  13.755  0.3388  1.0587  0.6909
15692TIP3    H268492   3.797   4.206  13.636 -0.5257  1.9313 -0.2992
15693TIP3   OH268493   2.576   4.297   2.256  0.2772 -1.0608  0.2483
15693TIP3    H168494   2.558   4.343   2.174 -0.7324 -0.4498  0.7869
15693TIP3    H268495   2.538   4.353   2.323  0.8381 -1.6955  1.1113
15694TIP3   OH268496   3.537   3.785   4.640 -0.0156  0.0656  0.9721
15694TIP3    H168497   3.626   3.815   4.656  0.8061 -1.1004 -1.0371
15694TIP3    H268498   3.546   3.691   4.625 -1.5380 -0.0084  0.3368
15695TIP3   OH268499   0.757   0.602  12.470  0.4209  0.5240  0.0780
15695TIP3    H168500   0.736   0.529  12.412  1.5182  0.8357 -0.7414
15695TIP3    H268501   0.711   0.582  12.552  1.7995 -1.7834  0.3602
15696TIP3   OH268502   5.474   2.671   0.178 -0.2673  0.2607 -0.4345
15696TIP3    H168503   5.508   2.691   0.091 -0.1750  0.0390 -0.4498
15696TIP3    H268504   5.386   2.709   0.179 -0.6252 -0.5439 -0.9444
15697TIP3   OH268505   0.768   3.100  12.531 -0.3866  0.6243  0.2627
15697TIP3    H168506   0.679   3.064  12.539 -0.5462  1.2430  1.4505
15697TIP3    H268507   0.802   3.101  12.620  1.1378 -0.3450 -0.2653
15698TIP3   OH268508   1.634   2.424   5.283 -0.5147 -0.3915 -0.6625
15698TIP3    H168509   1.576   2.458   5.351  1.1296  1.5055 -0.0919
15698TIP3    H268510   1.628   2.487   5.211  0.7119 -0.1889 -0.6234
15699TIP3   OH268511   1.074   3.393  15.809 -0.3724  0.3779  0.6110
15699TIP3    H168512   1.162   3.396  15.770 -1.0310  0.9389 -0.9038
15699TIP3    H268513   1.038   3.480  15.792 -0.6716  0.6987  2.6256
15700TIP3   OH268514   4.419   4.841   0.008 -0.1900  0.3583 -0.8885
15700TIP3    H168515   4.331   4.867   0.034 -1.0081 -2.2786 -0.6934
15700TIP3    H268516   4.477   4.887   0.068 -1.7091 -1.0420  1.8217
15701TIP3   OH268517   1.360   3.446  13.587  0.0547 -0.1405 -0.1542
15701TIP3    H168518   1.428   3.380  13.588  0.4910  0.3020  0.7116
15701TIP3    H268519   1.283   3.403  13.624  0.3267 -0.1825  0.3692
15702TIP3   OH268520   1.149   0.450   0.439 -0.7652  0.0554  0.0094
15702TIP3    H168521   1.123   0.435   0.348 -1.9244 -0.9625  0.4868
15702TIP3    H268522   1.242   0.428   0.442 -0.3703  1.3946 -1.2005
15703TIP3   OH268523   2.670   2.831  16.170 -0.3798 -0.3979 -0.8114
15703TIP3    H168524   2.709   2.781  16.099  1.6253 -0.6546  0.4020
15703TIP3    H268525   2.707   2.919  16.162 -0.6032 -0.2671 -0.4487
15704TIP3   OH268526   4.325   3.351  11.928  0.5601 -0.4804 -0.4106
15704TIP3    H168527   4.242   3.347  11.976 -0.5813 -0.8186 -2.3006
15704TIP3    H268528   4.331   3.442  11.899  0.4740 -0.6312 -0.9012
15705TIP3   OH268529   4.166   6.165  12.188 -0.3383 -0.2441  0.0570
15705TIP3    H168530   4.170   6.096  12.121  0.8117 -0.3707  0.2369
15705TIP3    H268531   4.115   6.127  12.259 -1.1013 -0.3071 -0.5055
15706TIP3   OH268532   2.619   1.762  14.316 -0.5509 -0.4792  0.3279
15706TIP3    H168533   2.646   1.850  14.342  0.0175 -0.5953  0.1444
15706TIP3    H268534   2.621   1.764  14.220  2.1017 -1.4552  0.2755
15707TIP3   OH268535   2.588   3.854   6.396  0.6825 -0.0321  0.0739
15707TIP3    H168536   2.581   3.844   6.301 -0.0658 -0.4606  0.1639
15707TIP3    H268537   2.646   3.784   6.424 -1.9390 -2.2601  0.3184
15708TIP3   OH268538   2.681   2.718   2.067  0.0189  0.1727  0.2655
15708TIP3    H168539   2.604   2.715   2.124 -1.8906  0.0625 -2.1236
15708TIP3    H268540   2.727   2.798   2.092 -1.3727  0.7233  1.1805
15709TIP3   OH268541   0.567   2.611   1.082  0.2122 -0.3105  0.5860
15709TIP3    H168542   0.634   2.547   1.060  1.5032  1.3303 -0.4465
15709TIP3    H268543   0.512   2.617   1.004 -0.4767 -0.7964  1.0147
15710TIP3   OH268544   6.147   6.167  12.812  0.4960 -0.2139  1.3319
15710TIP3    H168545   6.164   6.236  12.877 -0.3371  0.4102  0.9099
15710TIP3    H268546   6.233   6.144  12.778  0.7099  1.4533  0.6506
15711TIP3   OH268547   2.015   1.181  12.652 -0.5330  0.1132  0.4582
15711TIP3    H168548   2.050   1.156  12.737 -0.3041 -1.3734 -0.0470
15711TIP3    H268549   2.040   1.273  12.642  0.4360 -0.0193  1.5017
15712TIP3   OH268550   5.585   5.258  15.729  0.8731  0.0436 -0.0335
15712TIP3    H168551   5.515   5.303  15.683 -0.7934 -1.0247  1.3284
15712TIP3    H268552   5.585   5.296  15.817  2.1527  0.1515 -0.0549
15713TIP3   OH268553   5.454   0.978  15.009 -0.0504 -0.2875 -0.5405
15713TIP3    H168554   5.422   1.054  15.058 -2.2896 -0.3351 -1.7593
15713TIP3    H268555   5.471   1.012  14.921 -1.0284 -1.1221 -1.0866
15714TIP3   OH268556   3.483   6.648  16.414 -0.5308 -0.2091  0.4979
15714TIP3    H168557   3.545   6.711  16.379  0.2963 -0.5919  1.2363
15714TIP3    H268558   3.518   6.563  16.386 -2.0879 -0.3530 -1.2248
15715TIP3   OH268559   1.504   1.431  12.849 -0.3953 -0.0091  0.0662
15715TIP3    H168560   1.594   1.464  12.853 -0.4854  0.1115  1.7123
15715TIP3    H268561   1.450   1.505  12.875 -0.8461 -0.4901  0.5397
15716TIP3   OH268562   4.324   6.168   4.495  0.1903  0.1011 -0.5724
15716TIP3    H168563   4.283   6.253   4.509 -2.2711 -1.3006  1.9161
15716TIP3    H268564   4.287   6.137   4.413  2.0525  1.8380 -2.1481
15717TIP3   OH268565   0.029   2.938   3.783 -0.5542  0.1411 -0.2040
15717TIP3    H168566   0.086   2.962   3.856 -0.2831 -2.8422  0.7149
15717TIP3    H268567  -0.057   2.969   3.808 -0.1230  0.7883  0.5047
15718TIP3   OH268568   5.112   5.675  16.871 -0.2524 -0.4158 -0.0075
15718TIP3    H168569   5.076   5.590  16.896 -0.5378 -0.2195  0.2522
15718TIP3    H268570   5.191   5.685  16.926 -0.3977 -0.3709  0.1947
15719TIP3   OH268571   3.327   2.247  12.791 -0.0473 -0.1859  0.4174
15719TIP3    H168572   3.372   2.329  12.773 -1.2112 -0.0309 -2.2480
15719TIP3    H268573   3.388   2.198  12.847  2.1334  1.1512 -0.6432
15720TIP3   OH268574   1.547   3.553  14.712 -0.5614 -0.3314 -0.2475
15720TIP3    H168575   1.457   3.544  14.742  0.0238 -2.7170  1.0868
15720TIP3    H268576   1.574   3.463  14.690  1.9356  0.0425  0.8579
15721TIP3   OH268577   1.348   5.174  17.056 -0.1787  0.2070 -0.2976
15721TIP3    H168578   1.417   5.141  17.115 -0.4894  1.6439  0.9264
15721TIP3    H268579   1.321   5.257  17.095 -1.1013  0.7288 -1.9658
15722TIP3   OH268580   2.425   5.952   2.902  0.9085  0.7744 -0.7384
15722TIP3    H168581   2.508   5.907   2.918 -0.3401 -0.9279  1.4249
15722TIP3    H268582   2.426   6.026   2.963  0.5556  0.3238 -0.1743
15723TIP3   OH268583   6.259   3.987   1.851 -0.4033  0.2514  0.5685
15723TIP3    H168584   6.178   3.935   1.859  0.3078 -0.8608  0.8251
15723TIP3    H268585   6.241   4.067   1.899 -1.8243  0.6292 -0.5162
15724TIP3   OH268586   0.686   2.578   2.816  0.0697  0.1387  0.0365
15724TIP3    H168587   0.700   2.547   2.906 -1.0183  1.0931  0.5510
15724TIP3    H268588   0.699   2.673   2.821  0.2297  0.1720 -0.8747
15725TIP3   OH268589   4.234   5.981   0.637 -0.2069 -0.3717  0.8348
15725TIP3    H168590   4.245   5.932   0.556 -0.2291  1.0809 -0.0805
15725TIP3    H268591   4.313   5.960   0.688 -0.3371 -1.5271  0.5815
15726TIP3   OH268592   4.819   5.831   5.493 -0.4595 -0.0225 -0.4878
15726TIP3    H168593   4.769   5.854   5.415 -0.7276  1.4133  0.0602
15726TIP3    H268594   4.910   5.846   5.469 -0.6416  2.2344 -0.0349
15727TIP3   OH268595   4.063   5.769   1.453  0.6857 -0.4753  0.2595
15727TIP3    H168596   4.078   5.685   1.411 -0.5663 -0.1877 -0.8435
15727TIP3    H268597   4.109   5.764   1.537 -1.2773 -3.1542  1.3078
15728TIP3   OH268598   0.096   1.426  17.009 -0.1674 -0.7244  0.0860
15728TIP3    H168599   0.183   1.451  16.977  0.7729 -2.8014  0.8902
15728TIP3    H268600   0.093   1.331  17.000 -0.2733 -1.4292  4.8706
15729TIP3   OH268601   4.981   6.389  15.675  0.1858 -0.8546 -0.2981
15729TIP3    H168602   5.006   6.297  15.665  1.5339 -0.6230  0.7072
15729TIP3    H268603   5.020   6.415  15.759 -2.0521  0.0224  0.5558
15730TIP3   OH268604   1.212   3.664   5.281 -0.2439  0.4462  0.3501
15730TIP3    H168605   1.250   3.659   5.369  0.9917 -0.8132 -0.2188
15730TIP3    H268606   1.194   3.574   5.257  3.6816  0.1208 -2.4055
15731TIP3   OH268607   3.631   1.232  14.878 -0.2828 -0.0867 -0.0776
15731TIP3    H168608   3.565   1.264  14.816 -0.2393 -2.3006 -1.3921
15731TIP3    H268609   3.694   1.185  14.824 -0.1496 -1.9872  1.5866
15732TIP3   OH268610   1.912   5.596  17.012  0.3782 -0.4210 -0.2441
15732TIP3    H168611   1.880   5.516  16.971 -0.8681  0.0161 -0.1375
15732TIP3    H268612   1.938   5.568  17.100 -1.3714 -0.4758  0.2912
15733TIP3   OH268613   4.155   3.606   0.656 -0.7324 -0.1744 -0.0203
15733TIP3    H168614   4.095   3.643   0.592 -0.3088 -0.4616 -0.5978
15733TIP3    H268615   4.115   3.523   0.682 -1.2840  0.3011  0.6714
15734TIP3   OH268616   4.418   0.716  16.654 -0.6574 -0.0089 -0.2912
15734TIP3    H168617   4.408   0.624  16.632 -0.4311  0.3351 -1.9369
15734TIP3    H268618   4.458   0.716  16.741 -1.3848 -1.4384  0.0676
15735TIP3   OH268619   4.089   5.487   1.354  0.8280 -0.4041 -0.0165
15735TIP3    H168620   4.136   5.406   1.335  1.7784  0.6927 -2.8087
15735TIP3    H268621   3.997   5.463   1.351  1.1008 -1.5512  0.2529
15736TIP3   OH268622   4.623   1.427   1.980  1.3360  0.8540 -0.2739
15736TIP3    H168623   4.567   1.428   1.902  1.1974 -2.1206 -0.3285
15736TIP3    H268624   4.670   1.344   1.974  1.0231  0.3268  3.0077
15737TIP3   OH268625   5.632   1.097  17.209  0.7873  0.0923  0.3333
15737TIP3    H168626   5.558   1.099  17.270  1.4078  0.2366  1.0820
15737TIP3    H268627   5.591   1.102  17.122 -0.2035 -1.6063  0.6454
15738TIP3   OH268628   1.805   5.542   3.343  0.3429 -0.3044  0.5189
15738TIP3    H168629   1.884   5.488   3.339  0.5504  0.0814 -1.3988
15738TIP3    H268630   1.832   5.627   3.310 -0.6459  0.1487  0.8505
15739TIP3   OH268631   6.273   3.125   2.574  0.3177 -0.4548  0.5735
15739TIP3    H168632   6.350   3.148   2.625  0.5079 -0.3318  0.2355
15739TIP3    H268633   6.279   3.030   2.563  0.1730 -0.5081  0.9428
15740TIP3   OH268634   6.761   6.098   0.065  0.2892 -0.1510 -0.3981
15740TIP3    H168635   6.731   6.188   0.078 -3.6222 -1.5512  2.0400
15740TIP3    H268636   6.837   6.089   0.122  0.3186  1.3916 -0.1586
15741TIP3   OH268637   1.188   1.842  12.091  0.6286  0.3519 -0.2223
15741TIP3    H168638   1.255   1.910  12.091  1.5636 -0.5565 -0.6867
15741TIP3    H268639   1.231   1.765  12.128 -0.4614  0.0344  0.4336
15742TIP3   OH268640   5.614   4.533   2.307 -0.6605  0.0095  0.6063
15742TIP3    H168641   5.545   4.485   2.353 -0.1950 -0.8337  0.4374
15742TIP3    H268642   5.567   4.583   2.240 -1.2886  0.8371  1.6269
15743TIP3   OH268643   6.553   1.002   3.960 -0.3111  0.1410 -0.1060
15743TIP3    H168644   6.612   0.926   3.953  0.7701  0.5422  3.0003
15743TIP3    H268645   6.557   1.042   3.873 -0.0817 -2.6965 -1.5477
15744TIP3   OH268646   5.593   0.138   2.296  0.2859 -0.2827 -0.4957
15744TIP3    H168647   5.606   0.077   2.369  0.1843  0.7338  0.4053
15744TIP3    H268648   5.674   0.131   2.245  0.7252 -0.3940  0.1951
15745TIP3   OH268649   3.098   6.404   4.256  0.1950 -0.1503 -0.5276
15745TIP3    H168650   3.170   6.387   4.194  0.3734 -1.0854 -0.0816
15745TIP3    H268651   3.019   6.396   4.203  0.3356 -1.1694 -0.6104
15746TIP3   OH268652   5.807   6.046  11.972  0.0449  0.0809  0.3115
15746TIP3    H168653   5.818   6.061  11.878 -2.7651  0.3916 -0.0469
15746TIP3    H268654   5.769   6.128  12.005  1.2240  0.0688  1.7948
15747TIP3   OH268655   1.189   4.046  11.119  0.2096 -0.2312 -0.5204
15747TIP3    H168656   1.244   4.051  11.197 -0.3997 -0.5927 -0.0613
15747TIP3    H268657   1.251   4.034  11.047  0.7361 -0.6120 -0.0147
15748TIP3   OH268658   2.693   3.018  14.167  0.0705 -0.1141 -0.2528
15748TIP3    H168659   2.721   3.073  14.093  2.2322 -2.3893 -1.2945
15748TIP3    H268660   2.653   2.941  14.125  1.5899 -1.5787  0.8821
15749TIP3   OH268661   5.514   0.449   3.737  0.2285  0.3528 -0.3074
15749TIP3    H168662   5.491   0.360   3.709  0.7973  0.0458  0.1710
15749TIP3    H268663   5.536   0.495   3.657  1.6084 -0.4402 -0.4102
15750TIP3   OH268664   4.428   3.045   3.187  0.4095 -0.0696 -0.3733
15750TIP3    H168665   4.427   3.049   3.091  0.2397 -3.9024 -0.7021
15750TIP3    H268666   4.340   3.015   3.210  0.9886 -0.9083  0.8099
15751TIP3   OH268667   3.121   0.370  14.356 -0.4678 -0.0339  0.4302
15751TIP3    H168668   3.078   0.352  14.440  2.2882 -1.2101  1.7172
15751TIP3    H268669   3.179   0.444  14.374  0.2391 -0.3679 -0.3977
15752TIP3   OH268670   4.604   6.691  16.812 -0.6148  0.2118 -0.5650
15752TIP3    H168671   4.631   6.713  16.902  1.2526  2.1423 -1.5154
15752TIP3    H268672   4.684   6.656  16.772 -1.7548 -1.8555 -1.1626
15753TIP3   OH268673   6.234   0.645   5.825  0.4898 -0.1558  0.1714
15753TIP3    H168674   6.325   0.649   5.794  1.6425  0.2249  3.2190
15753TIP3    H268675   6.226   0.557   5.861 -0.2133 -0.0180  0.3542
15754TIP3   OH268676   3.296   4.881  12.693  0.6819  0.2894  0.5264
15754TIP3    H168677   3.308   4.975  12.690  0.7751  0.2502 -0.5162
15754TIP3    H268678   3.250   4.865  12.776  0.5946  1.2470  0.6692
15755TIP3   OH268679   2.597   1.771  14.022  0.3960 -0.5262  0.4592
15755TIP3    H168680   2.684   1.751  13.989  0.2032 -1.7098  0.6069
15755TIP3    H268681   2.550   1.687  14.019 -0.8237  0.1408  0.1234
15756TIP3   OH268682   6.457   0.547  12.430 -0.0399  0.2539 -0.2343
15756TIP3    H168683   6.451   0.631  12.474 -0.1710 -0.5314  1.3441
15756TIP3    H268684   6.464   0.483  12.502 -0.5613 -1.1285 -1.3626
15757TIP3   OH268685   1.212   1.907   4.789  0.4114  0.1213 -0.1515
15757TIP3    H168686   1.176   1.837   4.735  2.4857 -1.7520  0.7276
15757TIP3    H268687   1.265   1.959   4.729 -0.5030  0.5073 -0.6503
15758TIP3   OH268688   5.486   4.965   4.501  0.2124 -0.3758  0.3052
15758TIP3    H168689   5.576   4.936   4.492 -0.5077 -3.5601  1.7919
15758TIP3    H268690   5.471   5.022   4.426  3.0775 -0.7410 -0.6625
15759TIP3   OH268691   3.652   0.701   4.954  0.4880  0.0495  0.4648
15759TIP3    H168692   3.593   0.696   4.878  1.0686  1.9870 -0.1718
15759TIP3    H268693   3.603   0.661   5.025 -1.9252  2.2024  0.1368
15760TIP3   OH268694   0.809   5.056  13.988  0.7355 -0.4225  0.4491
15760TIP3    H168695   0.762   5.049  14.071 -2.3692  0.2352 -1.1158
15760TIP3    H268696   0.792   5.146  13.959  1.5797 -0.7029 -1.0097
15761TIP3   OH268697   3.937   4.219   3.605  0.0586 -0.0973  0.3953
15761TIP3    H168698   3.873   4.244   3.538 -1.7124 -1.1175  1.6224
15761TIP3    H268699   3.973   4.136   3.574  1.4939  0.8797 -0.7107
15762TIP3   OH268700   4.346   5.263   4.903  0.5139 -0.1856 -0.2133
15762TIP3    H168701   4.408   5.323   4.864 -0.4565  0.2445 -1.1400
15762TIP3    H268702   4.266   5.315   4.915  0.4788 -0.5679  1.4681
15763TIP3   OH268703   2.010   0.677   3.061 -0.2238 -0.0717 -0.0671
15763TIP3    H168704   2.025   0.694   3.154 -0.3028 -3.3123  0.6624
15763TIP3    H268705   1.949   0.745   3.033 -2.7299 -0.7458  3.1381
15764TIP3   OH268706   5.020   2.159  15.326 -0.1264 -0.2843 -0.1168
15764TIP3    H168707   4.929   2.158  15.297 -0.1812  0.4861  0.0095
15764TIP3    H268708   5.028   2.238  15.379 -0.3418 -2.1615  2.9892
15765TIP3   OH268709   6.070   0.596   0.514 -0.4040  0.0485 -0.1269
15765TIP3    H168710   6.133   0.618   0.582  0.2851  0.8005 -0.9793
15765TIP3    H268711   6.049   0.679   0.472 -1.4658 -0.2843 -0.2884
15766TIP3   OH268712   0.977   0.004  13.402 -0.2383 -0.2076  0.6304
15766TIP3    H168713   0.890   0.030  13.371 -1.2620 -2.0819  1.7026
15766TIP3    H268714   0.961  -0.075  13.454  2.1854 -0.9072  0.4481
15767TIP3   OH268715   1.134   2.819  12.704  0.1740 -0.2289  0.2821
15767TIP3    H168716   1.071   2.799  12.635 -0.3161  0.5346  0.5001
15767TIP3    H268717   1.217   2.785  12.671 -0.5753 -2.5427  0.5923
15768TIP3   OH268718   6.652   3.657   0.006  0.6998  0.5935  0.4587
15768TIP3    H168719   6.565   3.677  -0.029  1.0755  0.2396 -0.7097
15768TIP3    H268720   6.656   3.705   0.089  0.0994  2.1159 -0.3659
15769TIP3   OH268721   3.858   1.227  13.460  0.7216  0.2932  0.6224
15769TIP3    H168722   3.950   1.253  13.452  0.7706 -0.0393  0.0262
15769TIP3    H268723   3.855   1.139  13.423  0.3508 -0.1081  1.5606
15770TIP3   OH268724   3.205   1.405  14.070 -0.1421  0.6942 -0.2422
15770TIP3    H168725   3.248   1.359  14.142 -0.8712  2.9348  1.7260
15770TIP3    H268726   3.276   1.452  14.026  0.1865 -0.0647 -0.5475
15771TIP3   OH268727   1.345   2.473  11.680  0.9483 -0.2347 -0.3782
15771TIP3    H168728   1.402   2.397  11.669  0.7553 -0.4758  0.2267
15771TIP3    H268729   1.257   2.439  11.667  0.8689 -0.0855 -0.2380
15772TIP3   OH268730   2.197   5.386   0.751 -0.4342  0.1984 -0.6247
15772TIP3    H168731   2.104   5.370   0.738 -0.4452 -0.6216  0.3510
15772TIP3    H268732   2.239   5.302   0.733 -0.0610  0.1230  0.5491
15773TIP3   OH268733   0.283   5.176   4.871  0.4877 -0.0807  0.2535
15773TIP3    H168734   0.289   5.271   4.876  1.0145 -0.0642 -0.5816
15773TIP3    H268735   0.358   5.144   4.923 -0.2374 -0.0708  1.3452
15774TIP3   OH268736   6.057   1.212   4.140  0.2194 -0.1219 -0.2465
15774TIP3    H168737   5.980   1.184   4.091  0.2725 -0.4316 -0.1539
15774TIP3    H268738   6.029   1.291   4.186  0.3859  0.6203 -1.3661
15775TIP3   OH268739   1.580   2.048   2.312  0.1173  0.5346  0.1100
15775TIP3    H168740   1.576   1.960   2.349 -3.1979  0.6107  0.1927
15775TIP3    H268741   1.656   2.088   2.354  2.0861 -2.3958 -0.3521
15776TIP3   OH268742   6.395   4.588  11.956  0.2865 -0.1671 -0.8274
15776TIP3    H168743   6.412   4.545  11.873  0.8030  0.1890 -0.9161
15776TIP3    H268744   6.310   4.554  11.985  0.5492 -1.0238 -1.0289
15777TIP3   OH268745   2.285   6.663   6.630 -0.3837  0.3665 -0.2617
15777TIP3    H168746   2.283   6.665   6.726  1.0954 -0.2400 -0.2023
15777TIP3    H268747   2.311   6.574   6.608  0.1719  0.7458 -1.2128
15778TIP3   OH268748   3.345   2.568  11.251 -0.2767 -0.5672  0.6658
15778TIP3    H168749   3.414   2.527  11.303 -0.8477  0.4873  2.3451
15778TIP3    H268750   3.362   2.539  11.162 -1.4347 -5.6949  1.7448
15779TIP3   OH268751   3.556   1.274   0.857 -0.0026 -0.0572 -0.2553
15779TIP3    H168752   3.607   1.215   0.912 -0.1437  1.1799  1.2541
15779TIP3    H268753   3.479   1.223   0.832 -1.1065  0.0371  2.6142
15780TIP3   OH268754   3.441   0.635  12.070 -0.3471 -0.2249  0.6444
15780TIP3    H168755   3.413   0.719  12.107 -1.4131  0.0583 -0.7217
15780TIP3    H268756   3.400   0.632  11.984  2.4959 -0.6163 -0.7979
15781TIP3   OH268757   0.766   2.159  13.676  0.4934 -0.3725 -0.4500
15781TIP3    H168758   0.800   2.218  13.743  0.2892 -0.8658  0.1078
15781TIP3    H268759   0.842   2.137  13.623  1.6659 -3.1180  2.0282
15782TIP3   OH268760   1.088   6.397   3.777 -0.3718 -0.6285 -0.8210
15782TIP3    H168761   1.103   6.303   3.764 -0.6678 -0.6056 -1.3151
15782TIP3    H268762   1.008   6.416   3.728  1.0384  0.3965 -2.8414
15783TIP3   OH268763   0.715   2.523  17.114  0.7629 -0.0791  0.1837
15783TIP3    H168764   0.629   2.480  17.114  1.1904 -0.9913 -0.6014
15783TIP3    H268765   0.768   2.468  17.056  1.6951  0.8380  0.1499
15784TIP3   OH268766   5.726   3.593  13.739 -0.1433  0.0157  0.2499
15784TIP3    H168767   5.795   3.612  13.675  0.5779 -1.2326  0.6292
15784TIP3    H268768   5.739   3.658  13.809  0.5496 -0.1126  0.2435
15785TIP3   OH268769   2.082   0.040   2.826  0.4701 -0.0297 -0.1366
15785TIP3    H168770   2.123  -0.026   2.882  3.0265  1.8021  0.3767
15785TIP3    H268771   1.991   0.013   2.818  1.0069 -2.6181  1.4556
15786TIP3   OH268772   5.715   0.553  11.428  0.2372 -0.5712  0.1671
15786TIP3    H168773   5.661   0.582  11.355 -0.8479 -1.9895  0.3604
15786TIP3    H268774   5.788   0.507  11.388  0.5781  0.1476 -0.0539
15787TIP3   OH268775   4.502   2.392  10.278  0.6402 -0.8747 -0.3233
15787TIP3    H168776   4.569   2.326  10.300  2.5141  0.5392 -1.4671
15787TIP3    H268777   4.423   2.341  10.261  0.6081 -2.4918  3.5293
15788TIP3   OH268778   4.325   1.629  13.418 -0.2101  0.2574  0.2814
15788TIP3    H168779   4.337   1.547  13.466 -1.2613 -0.2425 -0.2755
15788TIP3    H268780   4.398   1.630  13.355  0.0123 -0.0674  0.5297
15789TIP3   OH268781   4.757   5.002  13.349  0.1900 -0.4606 -0.2708
15789TIP3    H168782   4.824   4.998  13.281 -1.0562  0.0895 -1.5818
15789TIP3    H268783   4.702   5.076  13.324 -0.1421 -0.0608  1.5124
15790TIP3   OH268784   5.070   0.078   2.146  0.2250  0.2178 -0.4646
15790TIP3    H168785   5.065  -0.009   2.186  2.4775  0.4827  0.5492
15790TIP3    H268786   5.058   0.139   2.218 -1.7376  0.8194 -1.2301
15791TIP3   OH268787   5.657   6.682   5.234  0.6994 -0.8413  0.9016
15791TIP3    H168788   5.737   6.641   5.268  1.5933  0.9831  1.1409
15791TIP3    H268789   5.682   6.773   5.221 -2.0805  0.4626  3.5192
15792TIP3   OH268790   4.572   0.868  13.406 -0.4951  0.1019 -0.2086
15792TIP3    H168791   4.641   0.923  13.444 -0.1162 -0.8755  0.5660
15792TIP3    H268792   4.609   0.838  13.323 -0.2792  0.1721 -0.1392
15793TIP3   OH268793   2.907   1.889  13.525 -0.6187 -0.7636  0.6197
15793TIP3    H168794   2.826   1.933  13.551  1.1418  2.7703  0.8098
15793TIP3    H268795   2.926   1.924  13.438  2.0541  0.8515  1.7191
15794TIP3   OH268796   5.151   2.205  16.613  0.2595 -0.5062 -0.8518
15794TIP3    H168797   5.212   2.139  16.645 -0.1458 -0.7151 -0.4947
15794TIP3    H268798   5.067   2.181  16.652 -0.2788 -0.8165 -2.1321
15795TIP3   OH268799   0.992   2.805  14.366 -0.0688  0.1645  0.1248
15795TIP3    H168800   1.039   2.824  14.448 -0.0072  0.9379 -0.0785
15795TIP3    H268801   0.902   2.789  14.393  0.1296 -0.4614  0.4312
15796TIP3   OH268802   3.389   6.599   4.003 -0.4451  0.2042  0.1233
15796TIP3    H168803   3.384   6.504   4.017  2.5162  0.0690  0.8941
15796TIP3    H268804   3.333   6.636   4.072 -0.1905 -0.9460  0.9804
15797TIP3   OH268805   6.003   1.348  16.609  0.1562 -0.1169 -0.2238
15797TIP3    H168806   6.044   1.379  16.690 -0.0130 -1.0428  0.2360
15797TIP3    H268807   5.985   1.255  16.626 -2.6753  0.3561 -0.1822
15798TIP3   OH268808   1.215   0.924  16.874 -0.0551 -0.3845 -0.3713
15798TIP3    H168809   1.294   0.953  16.829  0.1430 -0.1325  0.1371
15798TIP3    H268810   1.208   0.831  16.852  3.1147 -1.8091  3.4193
15799TIP3   OH268811   6.711   1.878  10.734  0.1556  0.0282 -0.2158
15799TIP3    H168812   6.711   1.945  10.665 -0.3361 -0.4264 -0.6660
15799TIP3    H268813   6.736   1.925  10.813  1.9925  0.3180 -0.9269
15800TIP3   OH268814   5.559   4.237   2.447  0.2792 -0.4221 -0.0087
15800TIP3    H168815   5.502   4.201   2.516  0.8109 -0.5791  0.3510
15800TIP3    H268816   5.511   4.220   2.366  0.9299 -2.8163  0.0254
15801TIP3   OH268817   4.882   0.340   2.851  0.1020 -0.5944 -0.6254
15801TIP3    H168818   4.928   0.402   2.794 -0.7058  0.6888  0.0786
15801TIP3    H268819   4.951   0.304   2.907  0.5686 -0.2786 -0.9788
15802TIP3   OH268820   5.095   3.996   0.474  0.2240 -0.4081  0.5011
15802TIP3    H168821   5.179   3.962   0.443 -0.0814 -0.8158  0.1047
15802TIP3    H268822   5.063   3.929   0.535  0.5371  0.1065  1.2478
15803TIP3   OH268823   5.923   2.264  12.125 -0.7935  0.0646  0.1299
15803TIP3    H168824   5.933   2.283  12.218 -0.9183  0.3203  0.0928
15803TIP3    H268825   5.835   2.226  12.117 -0.4156 -0.8732  0.2539
15804TIP3   OH268826   4.204   5.840   6.377  0.3692 -0.5967 -0.0445
15804TIP3    H168827   4.166   5.802   6.457  1.0430  0.6980  0.9336
15804TIP3    H268828   4.298   5.834   6.390  0.5057  1.4413  0.2139
15805TIP3   OH268829   4.471   0.603   5.160 -0.0914  0.1402 -0.1725
15805TIP3    H168830   4.431   0.690   5.163  0.0121  0.2407 -1.1758
15805TIP3    H268831   4.526   0.605   5.081  0.8008 -0.4581  0.4129
15806TIP3   OH268832   0.133   2.666  12.376  0.1125 -0.2449 -0.5259
15806TIP3    H168833   0.155   2.757  12.393  0.5875 -0.4492 -0.0156
15806TIP3    H268834   0.038   2.665  12.366  0.2367  0.5762 -2.2444
15807TIP3   OH268835   0.971   6.526   4.843  0.5955  0.5419 -0.4000
15807TIP3    H168836   1.017   6.454   4.799 -0.5872 -0.4437 -0.0921
15807TIP3    H268837   0.941   6.582   4.772  0.0405 -0.2040 -0.7617
15808TIP3   OH268838   5.755   2.309  13.590  0.3931 -0.8112 -0.4423
15808TIP3    H168839   5.788   2.398  13.593  0.4586 -0.8453 -0.0208
15808TIP3    H268840   5.823   2.257  13.633 -0.3726 -0.8216  0.8151
15809TIP3   OH268841   0.090   5.605   4.032 -0.3116  0.0618  0.1020
15809TIP3    H168842   0.078   5.700   4.036  0.3284  0.1672 -0.3125
15809TIP3    H268843   0.078   5.584   3.939  1.6250  0.0399 -0.1814
15810TIP3   OH268844   1.505   4.085   3.279 -0.1520  0.0837  0.1194
15810TIP3    H168845   1.432   4.086   3.218 -0.0716  0.2191  0.0245
15810TIP3    H268846   1.470   4.045   3.359 -0.9320  2.0444  0.8202
15811TIP3   OH268847   6.493   2.460  12.734  0.0672 -0.1606  0.0377
15811TIP3    H168848   6.558   2.473  12.804 -0.3547  0.2516  0.3591
15811TIP3    H268849   6.532   2.393  12.678  0.6087 -0.1849  0.4284
15812TIP3   OH268850   5.328   3.622  11.324  0.0935  0.0716  0.1463
15812TIP3    H168851   5.422   3.617  11.305 -0.1777 -0.4743 -1.1423
15812TIP3    H268852   5.286   3.573  11.253 -1.0673 -1.1622  1.5890
15813TIP3   OH268853   4.640   5.499  16.512 -0.1113 -0.2395  0.1006
15813TIP3    H168854   4.699   5.545  16.453 -0.2961 -0.3131 -0.1400
15813TIP3    H268855   4.561   5.553  16.515  0.4877  0.6282  1.5517
15814TIP3   OH268856   0.059   1.216   0.301 -0.5286 -0.3410 -0.2432
15814TIP3    H168857   0.083   1.273   0.374 -0.7744 -2.5678  1.7038
15814TIP3    H268858   0.141   1.176   0.273 -0.6714 -0.8541  0.0569
15815TIP3   OH268859   1.568   1.704   2.135 -0.1283 -0.0537  0.3743
15815TIP3    H168860   1.500   1.683   2.199 -0.8483  1.0830  0.0317
15815TIP3    H268861   1.623   1.626   2.130 -0.1549 -0.2197  2.2389
15816TIP3   OH268862   5.043   6.700   5.784  0.2916  0.3665 -0.1018
15816TIP3    H168863   5.027   6.790   5.812 -0.0679 -0.2051  1.6729
15816TIP3    H268864   4.980   6.685   5.713  0.7282  1.6640 -0.7907
15817TIP3   OH268865   6.382   3.781   4.871  0.0331  0.4330 -0.0818
15817TIP3    H168866   6.443   3.848   4.903  2.0712 -1.2335 -0.2525
15817TIP3    H268867   6.364   3.727   4.948  1.9923 -1.3819 -0.7782
15818TIP3   OH268868   3.248   0.308   5.961  0.2964  0.0989 -0.4034
15818TIP3    H168869   3.244   0.236   5.898  1.6988 -0.5856  0.2519
15818TIP3    H268870   3.185   0.372   5.929 -1.5147 -1.7107 -0.6289
15819TIP3   OH268871   5.209   0.653   2.906  0.5859  0.0726  0.1597
15819TIP3    H168872   5.195   0.644   3.000  0.6199  1.9972  0.3732
15819TIP3    H268873   5.267   0.728   2.897  1.5351 -0.7949 -1.3532
15820TIP3   OH268874   6.030   3.128  12.579 -0.3806  0.7250 -0.3953
15820TIP3    H168875   5.965   3.195  12.555  0.1126  1.3117 -0.1121
15820TIP3    H268876   6.081   3.115  12.499 -0.8264  0.2830 -0.6111
15821TIP3   OH268877   4.149   5.057  17.230  0.2463 -0.1079 -0.1243
15821TIP3    H168878   4.094   5.122  17.274 -0.5682  0.0493 -1.3135
15821TIP3    H268879   4.137   4.977  17.280 -0.9616 -0.0296 -0.2458
15822TIP3   OH268880   1.526   2.793   4.610 -0.0969  0.6377 -0.3741
15822TIP3    H168881   1.441   2.836   4.606  0.9046  2.7090 -1.0445
15822TIP3    H268882   1.572   2.824   4.532  1.3610 -0.2247  0.1008
15823TIP3   OH268883   0.224   0.729  14.237 -0.1481 -0.4557 -0.1041
15823TIP3    H168884   0.293   0.685  14.286  2.0273 -0.6915 -3.0733
15823TIP3    H268885   0.156   0.661  14.226 -0.5439 -0.4929  2.0894
15824TIP3   OH268886   0.403   1.063  17.008  0.3841 -0.2783 -0.0163
15824TIP3    H168887   0.467   1.016  16.955 -1.3587 -0.8829 -1.6595
15824TIP3    H268888   0.379   1.139  16.956 -2.1403 -1.4350 -0.6724
15825TIP3   OH268889   2.445   3.597  13.664  0.3829  0.1999 -0.1306
15825TIP3    H168890   2.421   3.585  13.755  1.6322  1.5327  0.4118
15825TIP3    H268891   2.415   3.685  13.642 -0.1718 -0.2139 -1.1075
15826TIP3   OH268892   2.853   5.505   2.854 -0.4056 -0.2250 -0.0855
15826TIP3    H168893   2.948   5.507   2.837 -0.4958 -1.8353 -1.0079
15826TIP3    H268894   2.842   5.561   2.931  1.2114  0.4674 -0.2993
15827TIP3   OH268895   4.956   0.176   5.886 -0.4215  0.1768 -0.3917
15827TIP3    H168896   4.979   0.205   5.974  0.2791  1.5579 -0.9928
15827TIP3    H268897   4.916   0.253   5.845 -0.6025 -0.3957 -1.3251
15828TIP3   OH268898   5.545   2.766  13.517 -0.4138  0.1010  0.0876
15828TIP3    H168899   5.569   2.688  13.468 -0.4256 -0.4687  0.9634
15828TIP3    H268900   5.457   2.788  13.486 -1.2929 -1.4943  1.3222
15829TIP3   OH268901   2.530   2.846  14.067  0.3335 -0.2480 -0.4300
15829TIP3    H168902   2.437   2.824  14.073  0.4719 -0.5596  1.0768
15829TIP3    H268903   2.573   2.761  14.062  0.5235 -0.0926 -1.4664
15830TIP3   OH268904   5.218   4.659  12.472  0.2336 -0.6103  0.5234
15830TIP3    H168905   5.295   4.699  12.511  0.4015 -0.6346  0.2195
15830TIP3    H268906   5.146   4.683  12.530  0.4814 -0.6503  0.8472
15831TIP3   OH268907   1.970   3.218  14.601 -0.0370 -0.4545 -0.2289
15831TIP3    H168908   1.965   3.266  14.518 -0.6482  1.1568  0.6920
15831TIP3    H268909   1.948   3.283  14.667 -1.3080 -2.1201  1.0721
15832TIP3   OH268910   2.983   2.155  16.094 -0.0341 -0.0992 -0.0725
15832TIP3    H168911   3.011   2.121  16.008  1.1134  0.4776  0.0462
15832TIP3    H268912   2.896   2.118  16.107  0.6772 -2.0325 -0.4686
15833TIP3   OH268913   1.257   1.895   2.277  0.1041  0.2014 -0.0411
15833TIP3    H168914   1.286   1.845   2.352 -0.8544 -0.1138  0.1300
15833TIP3    H268915   1.216   1.831   2.219 -0.7675  0.7092 -0.0046
15834TIP3   OH268916   4.994   3.197  16.817  0.1145  0.0243  0.0951
15834TIP3    H168917   4.951   3.279  16.844  0.6284  0.1042  0.6768
15834TIP3    H268918   5.059   3.224  16.753 -1.5866 -0.2374 -1.8675
15835TIP3   OH268919   5.208   6.699   5.217  0.5058  0.1465 -0.0033
15835TIP3    H168920   5.257   6.763   5.167 -0.1619  1.3390  0.8087
15835TIP3    H268921   5.143   6.751   5.266 -0.3980 -1.1911  0.2847
15836TIP3   OH268922   0.741   0.106   6.276  0.0705  0.1860 -0.2366
15836TIP3    H168923   0.714   0.018   6.302 -0.5199  0.0199 -1.3350
15836TIP3    H268924   0.684   0.164   6.325 -0.2123 -0.0716 -0.2564
15837TIP3   OH268925   0.567   4.198   4.265 -0.4362  0.3403  0.0223
15837TIP3    H168926   0.528   4.157   4.187  1.5821 -0.2100 -0.7668
15837TIP3    H268927   0.500   4.188   4.333 -1.0617 -2.0149 -0.8194
15838TIP3   OH268928   1.386   0.643   1.135  0.1107  0.5702  0.0989
15838TIP3    H168929   1.352   0.710   1.075 -0.0207  0.8385  0.4695
15838TIP3    H268930   1.422   0.576   1.077  0.4157  1.0467 -0.2791
15839TIP3   OH268931   5.741   0.886  15.737 -0.5244 -0.6311  0.1513
15839TIP3    H168932   5.745   0.977  15.707 -0.7983 -0.7020 -0.1097
15839TIP3    H268933   5.677   0.845  15.679  0.9573 -1.4604 -0.9648
15840TIP3   OH268934   0.360   1.955   5.052 -0.4738  0.2249 -0.3362
15840TIP3    H168935   0.442   1.918   5.083 -0.6646 -0.5300 -0.7083
15840TIP3    H268936   0.363   2.046   5.080 -0.1471 -0.1476  0.9258
15841TIP3   OH268937   0.202   0.295   3.766 -0.1343 -1.2241  0.3850
15841TIP3    H168938   0.202   0.390   3.775  0.4144 -1.0871 -0.8540
15841TIP3    H268939   0.166   0.263   3.849  0.4291  0.0218  1.1359
15842TIP3   OH268940   6.112   0.162  16.317 -0.1113  0.2575 -0.2414
15842TIP3    H168941   6.020   0.141  16.300 -0.2593  0.1559  0.6234
15842TIP3    H268942   6.155   0.154  16.232 -1.0955  1.3714 -0.8766
15843TIP3   OH268943   2.461   4.422  15.461 -0.2623  0.2334  0.6659
15843TIP3    H168944   2.522   4.350  15.442  0.4846  0.7477  1.0319
15843TIP3    H268945   2.472   4.438  15.555 -2.6484 -1.1606  1.2461
15844TIP3   OH268946   6.345   5.684   0.014 -0.0951 -0.4424 -0.0494
15844TIP3    H168947   6.354   5.654   0.105  1.5855 -0.6305 -0.2445
15844TIP3    H268948   6.270   5.634  -0.020 -0.2392 -0.9728  0.9937
15845TIP3   OH268949   1.256   5.176   0.424  0.6033  0.3409 -0.0520
15845TIP3    H168950   1.196   5.240   0.385  0.5250  0.7222  0.6932
15845TIP3    H268951   1.248   5.189   0.518  1.4456  0.0136  0.0718
15846TIP3   OH268952   0.825   1.989  16.220  0.2240 -0.5533 -0.1024
15846TIP3    H168953   0.811   2.027  16.306 -0.0142 -0.6155 -0.1144
15846TIP3    H268954   0.776   1.907  16.221 -2.2526  0.8072 -1.3019
15847TIP3   OH268955   4.920   2.927  12.570 -0.0248  0.0942 -0.7329
15847TIP3    H168956   4.961   2.851  12.611 -1.2258 -1.0059 -1.4854
15847TIP3    H268957   4.880   2.975  12.643 -0.2415 -0.6304 -0.3705
15848TIP3   OH268958   1.804   4.784   0.720 -0.4586 -0.3288 -0.0644
15848TIP3    H168959   1.711   4.806   0.719 -0.7044 -1.3131 -0.5024
15848TIP3    H268960   1.829   4.794   0.812 -1.4347 -1.6810  0.3951
15849TIP3   OH268961   4.492   5.307  15.336  0.2030  0.5787  0.1106
15849TIP3    H168962   4.415   5.361  15.316 -0.6574  0.4634  2.7787
15849TIP3    H268963   4.478   5.278  15.426  2.6970 -0.6548  0.1699
15850TIP3   OH268964   2.370   4.312   0.108 -0.0865  0.5698  0.3498
15850TIP3    H168965   2.341   4.265   0.186  0.3560 -2.1450 -1.0149
15850TIP3    H268966   2.339   4.259   0.035  1.4849  1.8018 -1.2967
15851TIP3   OH268967   6.104   2.447  14.549  0.3146 -0.0946 -0.2186
15851TIP3    H168968   6.142   2.363  14.575 -1.2208 -0.7546  0.0318
15851TIP3    H268969   6.111   2.502  14.627 -1.7032 -1.1362  0.7862
15852TIP3   OH268970   2.622   3.280   1.590 -0.9093 -0.1973 -0.2780
15852TIP3    H168971   2.647   3.192   1.618  1.9245  0.6675  0.1460
15852TIP3    H268972   2.585   3.321   1.668 -1.2780 -0.6522 -0.2093
15853TIP3   OH268973   4.795   1.830   1.420  0.3381 -0.3857  0.4930
15853TIP3    H168974   4.728   1.862   1.359 -1.5813 -0.8139  2.2468
15853TIP3    H268975   4.830   1.909   1.461  0.6631 -0.1732 -0.1900
15854TIP3   OH268976   4.888   4.626   1.902  0.0615  0.1659  0.3278
15854TIP3    H168977   4.901   4.700   1.842  0.2412 -0.1326 -0.0081
15854TIP3    H268978   4.954   4.563   1.875  0.4798  0.2313  1.1777
15855TIP3   OH268979   2.011   1.600   3.532 -0.0319  0.2096 -0.0655
15855TIP3    H168980   2.013   1.545   3.453 -1.5580 -0.1007  0.0906
15855TIP3    H268981   2.037   1.687   3.501 -1.7525  0.3631 -1.1680
15856TIP3   OH268982   1.027   0.088   6.239  0.0673 -0.7577 -0.0793
15856TIP3    H168983   0.976   0.053   6.166  0.0598  0.1963 -0.5546
15856TIP3    H268984   0.966   0.087   6.313 -0.8455  0.7990 -0.7486
15857TIP3   OH268985   2.322   1.906  14.261 -0.3965 -0.3133 -0.2902
15857TIP3    H168986   2.286   1.826  14.297 -0.7551 -0.4787 -0.9942
15857TIP3    H268987   2.402   1.921  14.311 -0.0020 -1.4427 -0.5425
15858TIP3   OH268988   3.315   6.341   4.096  0.5161  0.2342 -0.1480
15858TIP3    H168989   3.378   6.298   4.153 -0.4038 -1.9840 -0.6791
15858TIP3    H268990   3.290   6.274   4.032 -0.9981  1.5855 -1.0764
15859TIP3   OH268991   3.044   1.670  16.004  0.5408 -0.2923  0.2649
15859TIP3    H168992   3.012   1.611  15.936  1.7502 -1.4086  0.6313
15859TIP3    H268993   2.973   1.733  16.016 -0.1493 -0.7356 -1.2318
15860TIP3   OH268994   2.315   2.445  11.246  0.2061 -0.3426 -0.4596
15860TIP3    H168995   2.265   2.466  11.167 -1.8894 -1.4183  0.5161
15860TIP3    H268996   2.282   2.359  11.274  0.2167  0.4122  2.1096
15861TIP3   OH268997   1.163   5.271   2.892 -0.2906 -0.6573 -0.2293
15861TIP3    H168998   1.222   5.206   2.930  0.5462  0.0350 -0.3131
15861TIP3    H268999   1.178   5.265   2.798  2.0143  1.6393 -0.1247
15862TIP3   OH269000   3.374   0.525  14.110  0.3647 -1.2926  0.2972
15862TIP3    H169001   3.361   0.514  14.016  0.9442 -1.1426  0.1966
15862TIP3    H269002   3.315   0.597  14.134 -0.4922 -1.9484  0.2321
15863TIP3   OH269003   1.371   4.078  11.332 -0.0719 -0.0756  0.6717
15863TIP3    H169004   1.358   4.092  11.426  1.0153  1.5939  0.6008
15863TIP3    H269005   1.463   4.097  11.317 -0.4273  0.5700 -0.8822
15864TIP3   OH269006   4.404   5.648  16.476  0.1816 -0.1017 -0.1392
15864TIP3    H169007   4.324   5.686  16.512  0.8606  0.3435  0.9777
15864TIP3    H269008   4.387   5.638  16.383 -1.0585  0.2654  0.0330
15865TIP3   OH269009   5.534   5.757   0.719 -0.3301 -0.2261 -0.0260
15865TIP3    H169010   5.567   5.718   0.800 -0.6248 -1.4977 -0.4915
15865TIP3    H269011   5.605   5.813   0.689 -0.6453  1.1874  1.6781
15866TIP3   OH269012   3.778   4.154   0.653  1.1059  0.2270  0.1008
15866TIP3    H169013   3.827   4.157   0.735 -0.1830 -3.3388  1.2215
15866TIP3    H269014   3.800   4.069   0.615 -0.8465  0.3696 -1.5239
15867TIP3   OH269015   3.187   0.729  14.805  0.0019  0.0426 -0.2347
15867TIP3    H169016   3.166   0.770  14.890 -0.0732 -0.9036  0.2125
15867TIP3    H269017   3.268   0.681  14.821  0.5077  0.6395 -0.9670
15868TIP3   OH269018   0.254   5.628  12.492  0.3066  0.4276 -0.1166
15868TIP3    H169019   0.174   5.576  12.506  0.2991  0.6094  0.5503
15868TIP3    H269020   0.317   5.565  12.457  0.5804 -0.2822  1.5336
15869TIP3   OH269021   5.905   6.740  10.730  0.0401  0.0381 -0.0130
15869TIP3    H169022   5.933   6.824  10.767  1.0212 -0.6224  0.7717
15869TIP3    H269023   5.809   6.743  10.735  0.0836  0.8789  0.5049
15870TIP3   OH269024   0.332   0.021  11.413  0.0576 -0.0025 -0.1564
15870TIP3    H169025   0.355   0.011  11.320  0.2886  1.4985 -0.2840
15870TIP3    H269026   0.323   0.115  11.425 -0.0761 -0.1908  1.3334
15871TIP3   OH269027   0.974   0.450   2.392 -0.1812  0.5072 -0.1544
15871TIP3    H169028   0.930   0.535   2.400 -0.1702  0.4584  0.5197
15871TIP3    H269029   0.960   0.408   2.477 -0.8319 -0.4901 -0.7337
15872TIP3   OH269030   2.198   4.393   1.714  0.0277 -0.1498  0.4705
15872TIP3    H169031   2.220   4.467   1.659 -0.0334 -0.2122  0.3615
15872TIP3    H269032   2.216   4.316   1.660  2.1638 -0.3036  1.3067
15873TIP3   OH269033   4.345   5.908  12.251 -0.5816  0.5411  0.0327
15873TIP3    H169034   4.331   5.972  12.321 -3.6710  1.0973 -0.9539
15873TIP3    H269035   4.344   5.959  12.171  3.3040 -0.0378 -0.5740
15874TIP3   OH269036   5.592   4.800   0.972 -0.1577  0.7968 -0.1679
15874TIP3    H169037   5.548   4.740   0.912  0.4276  0.6006 -0.4001
15874TIP3    H269038   5.580   4.761   1.059 -0.6821  0.8908 -0.1923
15875TIP3   OH269039   5.838   2.286  11.804  0.0482 -0.3410  0.7010
15875TIP3    H169040   5.804   2.297  11.715  0.4819 -0.3566  0.5283
15875TIP3    H269041   5.867   2.373  11.830 -1.8354  0.0604  1.5803
15876TIP3   OH269042   5.861   4.295   4.318  0.5511  0.4533 -0.0340
15876TIP3    H169043   5.893   4.233   4.252  2.4809  0.6845  0.6080
15876TIP3    H269044   5.808   4.357   4.268  0.7035 -0.2466 -1.1087
15877TIP3   OH269045   6.088   0.443  13.180  0.4805  0.1418  0.1354
15877TIP3    H169046   6.163   0.403  13.136  0.5411 -0.7320  0.9950
15877TIP3    H269047   6.118   0.461  13.269 -0.4951 -0.8048  0.6860
15878TIP3   OH269048   6.149   0.633  12.482 -0.1398  0.6202 -0.5554
15878TIP3    H169049   6.117   0.568  12.419 -2.5883  1.0439  0.1231
15878TIP3    H269050   6.207   0.584  12.540 -0.1096 -0.4196 -1.4409
15879TIP3   OH269051   3.908   3.940  13.436  0.6715 -0.0537 -0.2260
15879TIP3    H169052   3.913   3.951  13.531  1.4173  1.0016 -0.3725
15879TIP3    H269053   3.903   3.845  13.423 -1.9005 -0.1489  0.9430
15880TIP3   OH269054   6.322   5.855  14.802  0.2432  0.1334 -0.5686
15880TIP3    H169055   6.343   5.846  14.895 -1.6374  0.2746 -0.0794
15880TIP3    H269056   6.357   5.775  14.762  0.1563 -0.4331  0.4471
15881TIP3   OH269057   4.253   5.355  13.768 -0.0008  0.0844  0.7443
15881TIP3    H169058   4.190   5.424  13.787 -1.3450 -0.8309 -0.2432
15881TIP3    H269059   4.332   5.401  13.739 -0.3833  1.2296  1.4773
15882TIP3   OH269060   6.419   0.368   4.438  0.8025  0.0400 -0.0877
15882TIP3    H169061   6.328   0.398   4.440  0.0057 -2.0302 -1.3771
15882TIP3    H269062   6.471   0.448   4.429 -0.9186  1.2300  0.1202
15883TIP3   OH269063   1.510   0.714  10.421  0.3344 -0.8411 -0.6674
15883TIP3    H169064   1.455   0.769  10.477 -0.6887 -1.8107 -0.6721
15883TIP3    H269065   1.472   0.725  10.333  0.6517 -0.9098 -0.8154
15884TIP3   OH269066   1.625   6.362  15.138  0.2550  0.4516  0.6003
15884TIP3    H169067   1.658   6.432  15.195  0.4833 -0.3456  1.4854
15884TIP3    H269068   1.559   6.318  15.191 -3.0262  2.5401 -1.4429
15885TIP3   OH269069   6.396   3.580  13.644  0.0882  0.1976 -0.2441
15885TIP3    H169070   6.371   3.624  13.563 -0.2086  0.2233 -0.1416
15885TIP3    H269071   6.448   3.645  13.692 -0.2357  0.3956 -0.1534
15886TIP3   OH269072   5.269   0.111  12.830 -0.5558 -0.8652  0.0429
15886TIP3    H169073   5.343   0.171  12.828 -1.1931 -0.0796 -0.2209
15886TIP3    H269074   5.279   0.063  12.912 -0.7521  0.5085  0.8972
15887TIP3   OH269075   2.834   5.638  12.643  0.4646  0.2651 -0.3022
15887TIP3    H169076   2.789   5.702  12.698  1.5760  1.0747 -0.3115
15887TIP3    H269077   2.819   5.554  12.687  1.6931  0.9320  1.5242
15888TIP3   OH269078   5.951   4.111  10.910  0.0866  0.3272  0.7129
15888TIP3    H169079   5.860   4.098  10.884  0.2410 -1.9312  1.1032
15888TIP3    H269080   5.947   4.142  11.000 -0.2857  0.4160  0.6664
15889TIP3   OH269081   2.829   0.735   3.013  0.3230  0.9127  0.4953
15889TIP3    H169082   2.884   0.663   3.044  0.5317  1.6384  1.8722
15889TIP3    H269083   2.813   0.789   3.091 -1.3903  1.3486 -0.1179
15890TIP3   OH269084   4.253   0.032  12.893  0.5651  0.2006 -0.0575
15890TIP3    H169085   4.172  -0.018  12.878  0.0960  0.3283  1.7755
15890TIP3    H269086   4.285   0.054  12.805 -1.2329 -0.1088 -0.8307
15891TIP3   OH269087   3.939   4.802   1.326 -0.1123  0.0028 -0.2128
15891TIP3    H169088   3.860   4.748   1.338  1.2624 -1.6849  2.2024
15891TIP3    H269089   3.946   4.852   1.407  1.5575 -0.2776 -0.1528
15892TIP3   OH269090   1.686   5.435  16.203 -0.1241 -0.4447  0.6007
15892TIP3    H169091   1.712   5.346  16.179  0.8323 -0.1880  0.6133
15892TIP3    H269092   1.759   5.490  16.173 -1.5132  0.5674 -1.0563
15893TIP3   OH269093   4.771   2.841  10.208 -0.3387 -0.1616  0.2446
15893TIP3    H169094   4.733   2.915  10.161 -0.4038 -0.8230 -0.7819
15893TIP3    H269095   4.820   2.880  10.280 -0.3917  0.8660 -0.2676
15894TIP3   OH269096   0.693   0.628  13.088 -0.2852 -0.1095 -0.0430
15894TIP3    H169097   0.608   0.646  13.048 -0.1785  0.7637  0.1061
15894TIP3    H269098   0.688   0.667  13.175  1.2054  2.5001 -0.9921
15895TIP3   OH269099   2.507   6.659   1.632 -0.0935 -0.1212  0.5892
15895TIP3    H169100   2.454   6.714   1.691  0.3084  0.4520  0.4267
15895TIP3    H269101   2.443   6.601   1.590 -0.4136 -0.3896  1.4213
15896TIP3   OH269102   3.424   3.592   3.963 -0.0284 -0.7360 -0.1678
15896TIP3    H169103   3.370   3.531   4.014 -1.6202  1.3888  0.8518
15896TIP3    H269104   3.374   3.673   3.962  1.7063  0.4091 -2.0161
15897TIP3   OH269105   0.970   1.859  11.782  0.3445  0.0406  0.2517
15897TIP3    H169106   1.062   1.833  11.779  0.4375  0.3679  0.2421
15897TIP3    H269107   0.965   1.937  11.726 -0.2842 -1.0424 -1.2756
15898TIP3   OH269108   6.581   3.960   6.108 -0.6107 -0.3366  0.3178
15898TIP3    H169109   6.612   3.892   6.169 -1.3120 -1.0870 -0.1358
15898TIP3    H269110   6.530   4.019   6.163  1.7804  1.0954  1.1360
15899TIP3   OH269111   3.193   1.532   4.978  0.4841 -0.8552 -0.2499
15899TIP3    H169112   3.109   1.502   5.012 -0.0830 -2.8179 -2.9687
15899TIP3    H269113   3.200   1.622   5.008 -2.1024 -0.9431  0.9331
15900TIP3   OH269114   3.349   1.745  15.154  0.0335  0.2528 -0.3257
15900TIP3    H169115   3.336   1.823  15.100  1.3409  0.2032 -0.7377
15900TIP3    H269116   3.352   1.673  15.090 -0.4955 -0.0607 -0.0031
15901TIP3   OH269117   3.439   5.284  16.253 -0.0312  0.4607 -0.1789
15901TIP3    H169118   3.433   5.273  16.158  1.4310  1.3853 -0.4055
15901TIP3    H269119   3.426   5.377  16.268 -0.2261  0.3274  0.5487
15902TIP3   OH269120   5.474   4.327   6.651 -0.6061 -0.4668 -0.1640
15902TIP3    H169121   5.513   4.393   6.594  0.1114 -1.1627 -0.4944
15902TIP3    H269122   5.443   4.376   6.727  0.3025  0.1946 -0.2094
15903TIP3   OH269123   6.292   3.064   4.669 -0.2270  0.7555 -0.1034
15903TIP3    H169124   6.352   3.010   4.617  0.5204  0.7494  0.7499
15903TIP3    H269125   6.315   3.154   4.647 -0.2959  0.7478 -0.2082
15904TIP3   OH269126   0.412   2.167  13.340 -0.0921 -0.2980 -0.0816
15904TIP3    H169127   0.457   2.086  13.361  0.1817 -0.8838 -2.5884
15904TIP3    H269128   0.330   2.139  13.299  0.4710  0.5864 -1.9611
15905TIP3   OH269129   1.276   5.282   0.677 -0.0528 -0.0057  0.2794
15905TIP3    H169130   1.348   5.250   0.731 -0.2735  0.6927  1.0121
15905TIP3    H269131   1.197   5.249   0.720 -0.2182  0.2659  0.1873
15906TIP3   OH269132   5.498   4.059  11.458 -0.5597 -0.0459 -0.2507
15906TIP3    H169133   5.537   3.986  11.411 -0.0490 -0.6429  1.0832
15906TIP3    H269134   5.406   4.034  11.469 -0.5953 -0.0693 -0.5797
15907TIP3   OH269135   3.450   3.555  11.041  0.1771  0.3537 -0.0250
15907TIP3    H169136   3.456   3.459  11.040  0.2773  0.2497  2.7743
15907TIP3    H269137   3.514   3.583  10.976  3.1778 -1.4607  1.8956
15908TIP3   OH269138   4.471   6.758  14.163  0.2780 -0.2569 -0.3164
15908TIP3    H169139   4.385   6.767  14.122  0.3815  2.2607 -0.1395
15908TIP3    H269140   4.453   6.720  14.248 -0.7168  0.3950 -0.2122
15909TIP3   OH269141   2.159   1.587  15.476 -0.0585 -0.0397 -0.4652
15909TIP3    H169142   2.090   1.636  15.522  0.0967  0.0747 -0.3538
15909TIP3    H269143   2.159   1.501  15.518 -1.2244 -0.5962 -1.5237
15910TIP3   OH269144   1.506   2.660  14.177 -0.0390 -0.0660  0.7187
15910TIP3    H169145   1.579   2.708  14.137 -0.4791 -0.1767 -0.2278
15910TIP3    H269146   1.457   2.625  14.104 -1.1617  0.1605  1.3469
15911TIP3   OH269147   3.321   1.257  13.322 -0.2071 -0.4361  0.1649
15911TIP3    H169148   3.248   1.204  13.289 -0.3779 -0.6935  0.9443
15911TIP3    H269149   3.378   1.194  13.365  0.3039 -0.1827 -0.1389
15912TIP3   OH269150   4.110   0.068  15.781  0.3024 -0.2268 -0.3384
15912TIP3    H169151   4.066   0.089  15.863  0.2824  0.6108 -0.5630
15912TIP3    H269152   4.056   0.109  15.713  0.6458 -0.4106 -0.7268
15913TIP3   OH269153   1.104   2.678   2.225 -0.0591 -0.5145 -0.3049
15913TIP3    H169154   1.030   2.731   2.254  0.4358 -0.6175  1.2055
15913TIP3    H269155   1.131   2.718   2.142  0.4937  1.8140  0.9191
15914TIP3   OH269156   1.320   0.848   1.479  0.1769  0.1323 -0.0676
15914TIP3    H169157   1.378   0.772   1.485 -0.7330 -0.6152 -0.3858
15914TIP3    H269158   1.280   0.841   1.392 -1.0798  0.0978  0.4887
15915TIP3   OH269159   4.461   3.518  13.685 -0.2688 -0.1348  0.1367
15915TIP3    H169160   4.419   3.594  13.724 -1.0953 -0.5713  0.1277
15915TIP3    H269161   4.466   3.455  13.757  2.3992  0.6600  0.7472
15916TIP3   OH269162   0.931   1.808   2.370  0.2674  0.1750  0.0738
15916TIP3    H169163   0.989   1.776   2.300 -0.4362 -0.5855 -0.1768
15916TIP3    H269164   0.910   1.898   2.345 -0.8680 -0.4324 -1.3096
15917TIP3   OH269165   5.117   3.030  11.123  0.6218  0.8145  0.0762
15917TIP3    H169166   5.025   3.028  11.095  0.0746  1.1598  1.7575
15917TIP3    H269167   5.164   3.064  11.047 -0.5098 -0.2089 -1.1241
15918TIP3   OH269168   3.485   6.776   1.265 -0.3026 -0.1949  0.0234
15918TIP3    H169169   3.524   6.820   1.340 -0.1288 -0.3303  0.0136
15918TIP3    H269170   3.560   6.741   1.216 -0.2529  1.5340 -1.2612
15919TIP3   OH269171   3.917   4.561  17.262 -0.2431  0.1311 -0.3441
15919TIP3    H169172   3.848   4.581  17.199 -1.0550  0.0885  0.5103
15919TIP3    H269173   3.880   4.493  17.318  1.5720 -2.0910 -1.6609
15920TIP3   OH269174   6.512   0.517   2.216 -0.5602  0.3575 -0.0265
15920TIP3    H169175   6.546   0.571   2.287  0.1027 -0.8819  0.6289
15920TIP3    H269176   6.588   0.496   2.163 -0.5081 -1.1261  0.5613
15921TIP3   OH269177   3.785   3.771   4.470  0.9177  0.3614 -0.6346
15921TIP3    H169178   3.828   3.689   4.447 -0.0677 -0.6013  0.8113
15921TIP3    H269179   3.852   3.820   4.518  1.1648 -0.0899 -0.5088
15922TIP3   OH269180   3.688   0.802  15.149  0.0111  0.2107 -0.1414
15922TIP3    H169181   3.744   0.833  15.077  0.0198  1.7483  0.4915
15922TIP3    H269182   3.659   0.882  15.193  0.1844 -0.6916  1.7081
15923TIP3   OH269183   4.940   0.479   1.195  0.6557  0.0045 -0.5555
15923TIP3    H169184   4.998   0.547   1.229  0.9257  0.8737 -2.6317
15923TIP3    H269185   4.988   0.441   1.121 -0.3719 -1.0145 -0.7397
15924TIP3   OH269186   6.130   2.259  11.280  0.5917 -0.0529 -0.0514
15924TIP3    H169187   6.152   2.350  11.258  0.1925  0.2769  0.8471
15924TIP3    H269188   6.196   2.207  11.236  0.5359  0.6424 -0.9923
15925TIP3   OH269189   0.725   1.298   6.676 -0.1936 -0.3001  0.3863
15925TIP3    H169190   0.812   1.280   6.712  0.5447  0.5777 -0.8672
15925TIP3    H269191   0.716   1.236   6.604  0.0826  0.6404 -0.4884
15926TIP3   OH269192   3.672   1.118   1.045  0.1472  0.4151  0.2686
15926TIP3    H169193   3.615   1.072   1.106 -1.0899  2.4957  0.7582
15926TIP3    H269194   3.752   1.135   1.095  0.4209 -0.6720  0.2408
15927TIP3   OH269195   5.040   2.281   0.276 -0.2355 -0.4228 -0.4491
15927TIP3    H169196   5.002   2.219   0.339 -1.6478  0.9100  0.0710
15927TIP3    H269197   5.032   2.366   0.319  0.1351  0.3352 -1.8311
15928TIP3   OH269198   6.167   0.343   1.750 -0.1370 -0.0608  0.5163
15928TIP3    H169199   6.220   0.420   1.727  1.5584 -1.4108 -0.3041
15928TIP3    H269200   6.145   0.304   1.666  0.1706 -1.2067  0.9523
15929TIP3   OH269201   1.987   4.237   0.086  0.6977  0.3223  0.1377
15929TIP3    H169202   2.041   4.272   0.016 -1.1560  0.9052 -1.0620
15929TIP3    H269203   1.918   4.302   0.099  0.5610 -0.1265  2.0172
15930TIP3   OH269204   6.427   5.232   0.423 -0.9312  0.0027 -0.1200
15930TIP3    H169205   6.459   5.201   0.508 -1.0716  1.9966  0.7199
15930TIP3    H269206   6.502   5.221   0.365 -0.9219 -1.6572  0.1550
15931TIP3   OH269207   3.425   5.410   4.613  0.6469 -0.4315  0.1568
15931TIP3    H169208   3.469   5.494   4.621  0.7028 -0.4596  0.1417
15931TIP3    H269209   3.340   5.431   4.574  0.5803 -0.3569  0.3395
15932TIP3   OH269210   1.091   4.719  11.560 -0.0045 -0.5475 -0.4016
15932TIP3    H169211   1.099   4.809  11.593  0.8037 -0.9196  0.4732
15932TIP3    H269212   0.998   4.700  11.566  0.1389 -0.7333  2.1261
15933TIP3   OH269213   5.977   6.529  12.468 -0.2894  0.7709  0.8536
15933TIP3    H169214   5.956   6.574  12.550 -1.1306  1.2374  0.3947
15933TIP3    H269215   5.910   6.559  12.406  1.0384  1.3933 -0.3489
15934TIP3   OH269216   0.486   6.336  10.576  0.3426  0.2048  0.1040
15934TIP3    H169217   0.391   6.343  10.570  0.1693  0.8816  2.5339
15934TIP3    H269218   0.519   6.411  10.525 -0.4440  0.3572 -0.1966
15935TIP3   OH269219   6.442   6.536  16.744  0.2703  0.3839 -0.0668
15935TIP3    H169220   6.346   6.533  16.741  0.2984  0.1384 -1.1132
15935TIP3    H269221   6.464   6.521  16.836 -0.5875 -3.0596 -0.2949
15936TIP3   OH269222   6.302   2.985   0.378  0.3222  0.2497  0.2188
15936TIP3    H169223   6.225   2.966   0.325 -0.0691  0.5435  0.6813
15936TIP3    H269224   6.360   3.032   0.318 -0.4514  1.2947  0.2640
15937TIP3   OH269225   0.331   5.257   0.765  0.3916  0.3788  0.2451
15937TIP3    H169226   0.316   5.163   0.750 -0.0630  0.4740  0.0712
15937TIP3    H269227   0.425   5.265   0.774  0.4916 -0.0091 -0.3733
15938TIP3   OH269228   0.775   1.452   4.258  0.3135 -0.2092 -0.5971
15938TIP3    H169229   0.753   1.508   4.332  0.7955  0.3083 -0.8410
15938TIP3    H269230   0.743   1.500   4.181 -0.1875 -0.7429 -0.7309
15939TIP3   OH269231   0.308   3.908   2.025  0.7908 -0.2398 -0.2462
15939TIP3    H169232   0.351   3.969   2.086 -0.2217 -0.3207  0.5726
15939TIP3    H269233   0.218   3.902   2.057 -0.1017  0.5864 -2.4235
15940TIP3   OH269234   3.781   1.015   1.344  0.1211  0.4082 -0.1335
15940TIP3    H169235   3.838   1.011   1.421  0.9538  0.6817 -0.7238
15940TIP3    H269236   3.817   0.950   1.284  0.3326  1.1709 -0.8526
15941TIP3   OH269237   2.626   3.325  17.230  0.0384  0.4177 -0.3702
15941TIP3    H169238   2.623   3.250  17.290  1.1846  1.2419  0.7652
15941TIP3    H269239   2.535   3.353  17.223 -0.3801 -0.9242 -0.6313
15942TIP3   OH269240   6.296   2.103  12.641 -0.6723 -0.1870  0.3133
15942TIP3    H169241   6.252   2.032  12.593 -0.7794 -0.7924  1.2756
15942TIP3    H269242   6.271   2.088  12.733  1.5424 -0.5476  0.9008
15943TIP3   OH269243   6.369   6.013  16.322 -0.4038  0.1912 -0.1570
15943TIP3    H169244   6.455   6.046  16.296 -0.7320  0.7824 -0.4973
15943TIP3    H269245   6.378   5.917  16.315 -0.2440  0.2936 -1.7471
15944TIP3   OH269246   0.949   3.747  16.256 -0.2210  0.9321 -0.2747
15944TIP3    H169247   0.859   3.731  16.285 -0.2344  2.0913  0.4068
15944TIP3    H269248   0.955   3.842  16.248 -0.1067  0.7633 -3.8927
15945TIP3   OH269249   6.027   0.050   5.059  0.1328  0.0466  0.4705
15945TIP3    H169250   6.063   0.127   5.103  1.3215 -1.2449  1.8519
15945TIP3    H269251   5.980   0.086   4.983  0.8609  2.0938  0.9187
15946TIP3   OH269252   3.012   3.673   2.482  0.5523 -0.7076  0.0926
15946TIP3    H169253   2.982   3.745   2.538 -0.5494 -0.5490 -0.6639
15946TIP3    H269254   3.040   3.716   2.401 -1.6741 -1.1813 -1.0218
15947TIP3   OH269255   2.595   5.536  16.104  0.0172 -0.0971 -0.0127
15947TIP3    H169256   2.685   5.565  16.120  0.4839 -0.3169 -2.0443
15947TIP3    H269257   2.579   5.557  16.012 -1.9343 -0.2921  0.2542
15948TIP3   OH269258   4.690   2.706  15.144  0.4691  0.0180 -0.1190
15948TIP3    H169259   4.723   2.786  15.104  1.8615  0.3638  1.6149
15948TIP3    H269260   4.767   2.650  15.155 -0.3374 -1.2337 -0.4949
15949TIP3   OH269261   0.947   1.749  12.980 -0.0097  0.0090  0.8477
15949TIP3    H169262   1.032   1.792  12.976  0.2955 -0.6637 -0.6089
15949TIP3    H269263   0.968   1.656  12.990 -0.5855 -0.1477  0.6044
15950TIP3   OH269264   2.548   6.166  14.288  0.2356  0.3844  0.4628
15950TIP3    H169265   2.521   6.188  14.199 -2.0385  0.8370  1.1941
15950TIP3    H269266   2.494   6.222  14.344  0.3452 -1.1317  2.1831
15951TIP3   OH269267   0.269   2.831  14.782 -0.0430 -0.7415 -0.1641
15951TIP3    H169268   0.265   2.893  14.855  1.1146 -1.2891  0.3999
15951TIP3    H269269   0.324   2.874  14.717 -1.6675  0.0554 -1.0566
15952TIP3   OH269270   2.569   1.155   5.464 -0.1464  0.2387 -0.2803
15952TIP3    H169271   2.662   1.177   5.470 -0.3991  1.1583  0.5096
15952TIP3    H269272   2.568   1.069   5.422  1.0172  0.5589 -1.0390
15953TIP3   OH269273   2.780   5.036   3.296 -0.3365 -0.3006 -0.2534
15953TIP3    H169274   2.719   4.988   3.352 -0.9858  1.0730  0.2927
15953TIP3    H269275   2.859   5.045   3.348  0.1148 -1.5193 -0.7054
15954TIP3   OH269276   1.389   3.679   0.851  0.6227 -0.5566  0.0641
15954TIP3    H169277   1.404   3.691   0.757 -0.3491 -1.7043 -0.2776
15954TIP3    H269278   1.474   3.694   0.891  0.6785  1.7636 -0.7880
15955TIP3   OH269279   5.870   0.142  16.136 -0.0264  0.0837  0.1253
15955TIP3    H169280   5.807   0.127  16.067  0.4751  0.8602 -0.5247
15955TIP3    H269281   5.938   0.075  16.123 -0.6217 -0.6600  0.7386
15956TIP3   OH269282   2.790   1.042   4.961 -0.0189 -0.1561 -0.1856
15956TIP3    H169283   2.792   1.010   5.051  1.1111 -1.3284 -0.5984
15956TIP3    H269284   2.864   1.101   4.954  1.2543 -1.7601 -0.8990
15957TIP3   OH269285   1.167   1.070  11.237 -0.0845  0.4598 -0.6755
15957TIP3    H169286   1.262   1.073  11.227 -0.1561  1.3659 -1.1465
15957TIP3    H269287   1.140   1.162  11.244 -0.9290  0.2161 -0.5548
15958TIP3   OH269288   6.712   3.791  16.179  0.4811 -0.0382 -0.0271
15958TIP3    H169289   6.697   3.796  16.274 -1.0434 -2.3678 -0.0531
15958TIP3    H269290   6.665   3.866  16.143  0.8291  0.7117  1.0277
15959TIP3   OH269291   3.326   4.075   5.866  0.7063 -0.3550  0.8347
15959TIP3    H169292   3.379   4.008   5.823  0.4968  0.2742 -0.4697
15959TIP3    H269293   3.320   4.047   5.957  1.6930 -1.4210  0.5905
15960TIP3   OH269294   2.526   1.368   0.257 -0.6580  0.3364 -0.0326
15960TIP3    H169295   2.482   1.329   0.333 -2.1505 -1.1912 -1.5866
15960TIP3    H269296   2.591   1.302   0.231 -0.6579  0.5173 -0.4935
15961TIP3   OH269297   3.059   5.216   5.207  0.3720 -0.5065 -0.3412
15961TIP3    H169298   3.143   5.217   5.252  0.2293 -1.5616 -0.0103
15961TIP3    H269299   3.019   5.300   5.229  1.8295  0.5530 -1.5314
15962TIP3   OH269300   6.074   1.873   4.020  0.5624 -0.0671 -0.2522
15962TIP3    H169301   6.013   1.801   4.031  1.8801 -0.9664  1.7858
15962TIP3    H269302   6.159   1.831   4.004  1.1169  1.0698 -0.4240
15963TIP3   OH269303   0.277   2.301   5.381  0.5746 -0.0834  0.0022
15963TIP3    H169304   0.305   2.360   5.451 -1.9746  0.7167  0.4825
15963TIP3    H269305   0.238   2.227   5.426 -0.6140  0.1885 -0.5374
15964TIP3   OH269306   5.475   4.311   5.600 -0.1089  0.0830  0.1091
15964TIP3    H169307   5.542   4.255   5.561  0.6683  0.4307  0.9067
15964TIP3    H269308   5.462   4.275   5.688 -0.1417  0.6890  0.3588
15965TIP3   OH269309   4.125   5.133  15.724 -0.1420  0.2290 -0.3373
15965TIP3    H169310   4.130   5.038  15.715  1.6805  0.4645 -2.8628
15965TIP3    H269311   4.208   5.159  15.763 -0.7408  0.8050  0.6018
15966TIP3   OH269312   3.556   6.265   2.214 -0.4061 -0.0161  0.0780
15966TIP3    H169313   3.489   6.277   2.147  1.2148 -0.3423 -1.6971
15966TIP3    H269314   3.618   6.202   2.175  1.6802  1.3479  1.0125
15967TIP3   OH269315   3.689   5.032  14.254 -0.1936  0.0722 -1.3514
15967TIP3    H169316   3.676   4.938  14.237 -1.7568  0.1995 -1.0210
15967TIP3    H269317   3.617   5.075  14.207 -0.2380  1.0040 -0.4550
15968TIP3   OH269318   5.352   4.175   2.898 -0.3829  0.2300 -0.0792
15968TIP3    H169319   5.267   4.190   2.940 -1.0319 -0.3395 -1.1126
15968TIP3    H269320   5.391   4.103   2.947 -0.0896  1.0753  0.9521
15969TIP3   OH269321   4.795   6.512  13.187  0.0770 -0.8837  0.3906
15969TIP3    H169322   4.702   6.490  13.184 -0.1881  0.3031 -1.4358
15969TIP3    H269323   4.840   6.428  13.174 -0.7095 -1.4850  1.4257
15970TIP3   OH269324   2.863   6.503  10.546 -0.1701 -0.2518  0.8987
15970TIP3    H169325   2.770   6.524  10.535 -0.8569 -0.4239  4.7415
15970TIP3    H269326   2.872   6.414  10.513 -1.4365 -0.2954  0.6115
15971TIP3   OH269327   5.825   5.768  13.592 -0.0243 -0.3943  0.3590
15971TIP3    H169328   5.885   5.738  13.524 -0.9534 -2.9511  0.5360
15971TIP3    H269329   5.764   5.826  13.548 -0.4147 -1.7521 -0.9580
15972TIP3   OH269330   3.255   2.374  12.068 -0.2935  0.4245  0.2261
15972TIP3    H169331   3.243   2.456  12.020  0.5834 -0.9423 -2.5683
15972TIP3    H269332   3.350   2.365  12.076 -0.4078  0.4725  2.1013
15973TIP3   OH269333   2.963   2.055   2.471  0.4533 -0.0569 -0.0990
15973TIP3    H169334   3.052   2.039   2.500 -0.0837  0.5907  2.0494
15973TIP3    H269335   2.911   1.985   2.512 -0.1757  0.1303 -0.5548
15974TIP3   OH269336   1.646   2.909   1.559 -0.2734 -0.0694  0.1075
15974TIP3    H169337   1.662   2.843   1.492  1.5224 -2.0982  2.3660
15974TIP3    H269338   1.554   2.897   1.583  0.1525 -2.1758  0.8243
15975TIP3   OH269339   4.298   5.437  15.678 -0.3187 -0.6041 -0.1022
15975TIP3    H169340   4.269   5.419  15.768 -0.3805  0.8576  0.1834
15975TIP3    H269341   4.220   5.471  15.634 -0.4380 -1.8266 -0.8933
15976TIP3   OH269342   6.354   5.004   1.314  0.9143 -0.1398  0.2505
15976TIP3    H169343   6.378   4.933   1.255 -0.1949  0.3083 -0.7696
15976TIP3    H269344   6.316   4.960   1.390  1.6230 -0.6897  0.2928
15977TIP3   OH269345   0.623   4.375   5.418 -0.0284 -0.0733 -0.0086
15977TIP3    H169346   0.597   4.461   5.451 -0.9973 -0.6600  0.8295
15977TIP3    H269347   0.717   4.382   5.403  0.1339  0.7598  1.2424
15978TIP3   OH269348   6.326   2.939  15.130  0.6144 -0.6208  1.0410
15978TIP3    H169349   6.279   2.866  15.172  0.3222 -0.2322  1.3968
15978TIP3    H269350   6.260   2.982  15.076  0.8905 -0.8686  0.4863
15979TIP3   OH269351   3.445   0.916  16.522 -0.2027  0.0404  0.4175
15979TIP3    H169352   3.493   0.998  16.527  0.0236  0.1233 -1.9420
15979TIP3    H269353   3.507   0.854  16.483 -0.7417 -0.9478  1.0894
15980TIP3   OH269354   2.060   2.710  13.074 -0.2746 -0.5328  0.0662
15980TIP3    H169355   2.100   2.775  13.015  0.8233 -0.8304  0.4633
15980TIP3    H269356   1.977   2.750  13.100 -0.7245 -0.3409 -1.5788
15981TIP3   OH269357   3.625   3.729  13.185  0.5480 -0.0852 -0.7650
15981TIP3    H169358   3.632   3.685  13.101  0.4568 -0.4169 -0.5985
15981TIP3    H269359   3.610   3.659  13.248  1.2899  0.0912 -0.3809
15982TIP3   OH269360   4.037   0.785   5.960  0.1831  0.6100  0.1113
15982TIP3    H169361   4.043   0.857   6.023  1.8020  0.5133  0.1124
15982TIP3    H269362   3.976   0.816   5.894  0.1361  1.6017  0.5993
15983TIP3   OH269363   2.177   0.841   4.773  0.3263 -0.8827  0.2149
15983TIP3    H169364   2.185   0.826   4.679  3.4857 -1.4356  0.4613
15983TIP3    H269365   2.131   0.925   4.780  0.7185 -0.4456 -1.8450
15984TIP3   OH269366   1.041   5.153  17.212  0.8332  0.5025  0.4391
15984TIP3    H169367   1.051   5.247  17.229  1.2259  0.5091  0.1932
15984TIP3    H269368   1.041   5.112  17.298 -0.8824  0.8613  0.6536
15985TIP3   OH269369   4.122   0.316  11.435  0.4107  0.2395 -0.1112
15985TIP3    H169370   4.059   0.386  11.453 -0.2630 -0.6235  1.0453
15985TIP3    H269371   4.087   0.240  11.482  1.1434 -0.8724 -1.3020
15986TIP3   OH269372   2.251   4.866  15.515  0.2107  0.5421  0.2364
15986TIP3    H169373   2.315   4.811  15.469  0.2991  0.0617  0.9225
15986TIP3    H269374   2.278   4.864  15.606 -0.8230  0.2828  0.5510
15987TIP3   OH269375   5.211   4.968   0.530  0.7904 -0.2216  0.1255
15987TIP3    H169376   5.199   5.042   0.590 -0.2444 -0.7441  0.5921
15987TIP3    H269377   5.224   5.009   0.444 -0.3916  0.5075  0.2760
15988TIP3   OH269378   2.080   2.517   2.788  0.2185 -0.1378 -0.2332
15988TIP3    H169379   2.012   2.511   2.721  1.1713 -0.1464 -1.2231
15988TIP3    H269380   2.043   2.576   2.854 -1.3569 -1.3321  0.0150
15989TIP3   OH269381   4.256   3.454   1.506 -0.1116  0.4031 -0.1488
15989TIP3    H169382   4.223   3.372   1.543  0.4830 -0.3787 -1.2622
15989TIP3    H269383   4.237   3.447   1.412  0.8384  1.0977 -0.4092
15990TIP3   OH269384   0.729   5.369   2.920  0.3817  0.2437  0.2819
15990TIP3    H169385   0.717   5.284   2.964 -1.9262  0.4807  0.2203
15990TIP3    H269386   0.641   5.394   2.893  1.3646  1.4629 -1.9995
15991TIP3   OH269387   1.885   0.199  15.103 -0.3708 -0.1589  0.0318
15991TIP3    H169388   1.865   0.111  15.072 -1.3823 -0.8170  2.3334
15991TIP3    H269389   1.981   0.201  15.110 -0.2677 -0.6843 -1.0478
15992TIP3   OH269390   6.158   0.724   3.304  0.1385  0.0814 -0.0864
15992TIP3    H169391   6.249   0.739   3.279  0.6810 -0.1523  1.5813
15992TIP3    H269392   6.146   0.630   3.299  0.1442  0.0667  0.1467
15993TIP3   OH269393   6.067   2.300   3.349  0.2060  0.3180  0.4470
15993TIP3    H169394   6.056   2.394   3.368  1.2321  0.7033 -0.7043
15993TIP3    H269395   6.082   2.260   3.434 -1.5278  0.9902  1.1106
15994TIP3   OH269396   4.743   2.231   1.218  0.1877  0.2734 -0.1376
15994TIP3    H169397   4.771   2.304   1.163 -0.7997 -0.4010 -1.5933
15994TIP3    H269398   4.823   2.194   1.254  0.6745  2.8926  1.7970
15995TIP3   OH269399   6.192   4.138  11.229 -0.4111  0.1054  0.2800
15995TIP3    H169400   6.152   4.056  11.255  1.3326 -1.2960 -1.1266
15995TIP3    H269401   6.120   4.201  11.227 -1.9939 -1.6258  0.3947
15996TIP3   OH269402   2.622   6.102  10.638 -0.2396  0.1342  0.4825
15996TIP3    H169403   2.706   6.140  10.611  0.0305 -1.5331 -1.1886
15996TIP3    H269404   2.628   6.010  10.615 -2.2610 -0.1948  1.0448
15997TIP3   OH269405   6.728   4.775  11.477  0.2582 -0.0220 -0.3224
15997TIP3    H169406   6.748   4.684  11.453 -1.3326 -0.1453 -1.3263
15997TIP3    H269407   6.706   4.817  11.394 -2.0913  0.4274  0.4564
15998TIP3   OH269408   5.768   4.721  16.809 -0.4586  0.1120 -0.6598
15998TIP3    H169409   5.673   4.729  16.815 -0.4816 -0.4669 -0.1499
15998TIP3    H269410   5.797   4.708  16.899  0.3314  2.3999 -0.5093
15999TIP3   OH269411   4.219   0.054  13.250 -0.6413  0.3231 -0.3037
15999TIP3    H169412   4.193  -0.033  13.280 -0.7360  0.3049 -0.4368
15999TIP3    H269413   4.176   0.114  13.310 -1.3521  0.3072 -0.7910
16000TIP3   OH269414   5.002   4.462   3.226  0.5787  0.1460  0.4282
16000TIP3    H169415   4.958   4.468   3.142 -2.2695 -0.5414  1.7613
16000TIP3    H269416   5.094   4.481   3.206  0.4767 -2.1236 -3.1894
16001TIP3   OH269417   2.300   4.373   5.928  0.0546  0.2892  0.4492
16001TIP3    H169418   2.265   4.322   6.002 -1.7960 -1.4170 -1.4837
16001TIP3    H269419   2.393   4.385   5.950 -0.2204 -0.9168  2.6101
16002TIP3   OH269420   2.967   0.911  11.484  0.5572 -0.5510 -0.4377
16002TIP3    H169421   3.059   0.888  11.498  1.0579  0.5823 -1.6251
16002TIP3    H269422   2.919   0.831  11.504  1.8077 -1.2018  0.0947
16003TIP3   OH269423   1.505   6.485  13.379  0.5667 -0.0612  0.0882
16003TIP3    H169424   1.503   6.447  13.290  1.9787  1.9316 -0.8538
16003TIP3    H269425   1.593   6.467  13.411  0.8052  1.1787  0.1632
16004TIP3   OH269426   2.068   3.087   2.691 -0.5294 -0.4677  0.0371
16004TIP3    H169427   2.008   3.137   2.747 -0.5660 -1.0410  0.5097
16004TIP3    H269428   2.154   3.126   2.707 -0.7808  0.4493 -0.7438
16005TIP3   OH269429   1.803   5.475  12.354 -0.0276  0.0990 -0.4901
16005TIP3    H169430   1.894   5.504  12.346 -0.4392  1.5789 -0.1715
16005TIP3    H269431   1.797   5.439  12.443  0.1141  0.5094 -0.3137
16006TIP3   OH269432   5.872   0.107   4.845 -0.0338  0.1545  0.4703
16006TIP3    H169433   5.880   0.032   4.786  0.1187  0.8916 -0.4857
16006TIP3    H269434   5.875   0.183   4.786 -2.1655  0.8684  1.2019
16007TIP3   OH269435   2.390   2.875  15.966  0.3409 -0.3742 -0.0215
16007TIP3    H169436   2.339   2.939  16.016  0.1728 -0.0266 -0.6345
16007TIP3    H269437   2.466   2.924  15.935  0.8101 -0.7677  0.4798
16008TIP3   OH269438   5.241   3.082   0.932  0.2484  0.1214  0.5096
16008TIP3    H169439   5.266   3.086   0.840  1.9694  0.0587  0.9449
16008TIP3    H269440   5.197   3.165   0.949  0.2882  0.3055 -0.2633
16009TIP3   OH269441   5.006   5.939  17.002 -0.0380  0.4353  0.1334
16009TIP3    H169442   5.014   5.964  17.094  0.3562  0.6707  0.0382
16009TIP3    H269443   4.976   5.848  17.004 -1.5720  0.9193  0.4843
16010TIP3   OH269444   0.795   4.824   4.299  0.0737  0.2894 -0.4132
16010TIP3    H169445   0.871   4.774   4.329  0.4113  0.6927 -0.5788
16010TIP3    H269446   0.758   4.861   4.379  0.2177  0.3175 -0.3580
16011TIP3   OH269447   3.659   6.737   2.730 -0.0438 -0.8397 -0.2210
16011TIP3    H169448   3.682   6.652   2.768 -0.5588 -1.0230 -0.3224
16011TIP3    H269449   3.601   6.777   2.795 -1.3413 -1.3659 -1.0292
16012TIP3   OH269450   1.233   2.868  13.966 -0.6538 -0.7291  0.4504
16012TIP3    H169451   1.220   2.912  14.050  0.3445 -1.8111  1.2066
16012TIP3    H269452   1.160   2.806  13.961 -1.6646  0.4908 -0.2889
16013TIP3   OH269453   5.263   3.523   2.833 -0.2320  0.2583  0.1517
16013TIP3    H169454   5.202   3.482   2.895  0.0116 -0.9320 -0.3707
16013TIP3    H269455   5.235   3.614   2.830 -0.3272  0.3139  1.9043
16014TIP3   OH269456   5.911   2.762   3.104  0.0757  0.4124  0.4682
16014TIP3    H169457   5.898   2.716   3.021 -0.2960  1.8927 -0.3270
16014TIP3    H269458   5.831   2.745   3.154 -0.0336  0.1652  0.2103
16015TIP3   OH269459   1.101   3.898  13.790  0.0557  0.3461 -0.3286
16015TIP3    H169460   1.166   3.842  13.746  1.3603  0.3940  1.4433
16015TIP3    H269461   1.020   3.847  13.786  0.9056 -1.0853  0.0620
16016TIP3   OH269462   2.466   6.278   4.493 -0.0502 -0.6896 -0.3733
16016TIP3    H169463   2.437   6.317   4.576  0.6996 -1.2099  0.1414
16016TIP3    H269464   2.387   6.275   4.439 -0.2098  1.2314 -0.3171
16017TIP3   OH269465   4.878   6.701  13.366 -0.0310 -0.1271  0.2881
16017TIP3    H169466   4.791   6.741  13.367  0.7877  1.8070 -0.8462
16017TIP3    H269467   4.874   6.639  13.294 -0.3186  0.2998 -0.0675
16018TIP3   OH269468   1.400   5.406  16.370 -0.3821 -0.4869 -1.0164
16018TIP3    H169469   1.367   5.325  16.408 -0.3370  0.0775  0.2958
16018TIP3    H269470   1.360   5.411  16.283 -1.5368 -1.1880 -0.5468
16019TIP3   OH269471   4.330   2.863   6.155  0.0506  0.0839  0.1615
16019TIP3    H169472   4.395   2.926   6.187  0.5521 -0.0066 -0.6455
16019TIP3    H269473   4.336   2.870   6.060 -0.1868 -0.8972  0.0727
16020TIP3   OH269474   0.545   4.122   0.914 -0.3931  0.0622 -0.5756
16020TIP3    H169475   0.576   4.059   0.980 -0.9841 -0.4164 -0.7475
16020TIP3    H269476   0.616   4.127   0.850 -0.8894 -1.5051 -1.2964
16021TIP3   OH269477   5.416   1.604   2.447 -0.1309 -0.0641 -0.1397
16021TIP3    H169478   5.426   1.644   2.533 -0.0198  0.8639 -0.5669
16021TIP3    H269479   5.335   1.554   2.452  0.7354 -1.4586  1.0316
16022TIP3   OH269480   3.425   2.694   3.984  0.3483 -0.7092 -0.3096
16022TIP3    H169481   3.506   2.682   3.935 -0.4512  2.6186 -2.7268
16022TIP3    H269482   3.364   2.733   3.922 -2.0880 -0.0024  2.3111
16023TIP3   OH269483   5.521   1.112   5.007 -0.3918  0.4264 -0.0049
16023TIP3    H169484   5.441   1.090   5.054 -0.7643 -0.2726 -0.9136
16023TIP3    H269485   5.491   1.147   4.923  0.2516  1.8183  0.3129
16024TIP3   OH269486   4.206   4.708  11.640 -0.3190 -0.8291  0.3800
16024TIP3    H169487   4.205   4.761  11.720  0.5464 -0.4412  0.1494
16024TIP3    H269488   4.137   4.746  11.586  0.2041  0.0107  0.2718
16025TIP3   OH269489   0.504   5.148  13.882 -0.0058  0.2696  0.0170
16025TIP3    H169490   0.501   5.154  13.787  0.2499  4.0858  0.0935
16025TIP3    H269491   0.420   5.183  13.911  0.4381  0.4232  1.1747
16026TIP3   OH269492   0.105   2.641   4.748  0.5492 -0.8782 -0.7710
16026TIP3    H169493   0.162   2.571   4.717  1.1481 -0.0595 -1.5980
16026TIP3    H269494   0.064   2.676   4.668  1.7516  0.9586 -0.6631
16027TIP3   OH269495   2.230   6.746   6.383  0.3553 -0.0070 -0.1148
16027TIP3    H169496   2.141   6.777   6.367 -0.5026 -1.6710  1.0652
16027TIP3    H269497   2.228   6.713   6.473  1.9526 -0.7717 -0.3244
16028TIP3   OH269498   2.658   3.711   0.001 -0.0633  0.0760  0.1353
16028TIP3    H169499   2.619   3.781  -0.051  1.4637  2.3999  1.9657
16028TIP3    H269500   2.730   3.678  -0.053 -0.9323 -0.3063 -0.8308
16029TIP3   OH269501   5.613   2.794   4.780 -0.2777 -0.2568 -0.4958
16029TIP3    H169502   5.626   2.727   4.847  1.5952  0.6037  0.0489
16029TIP3    H269503   5.532   2.839   4.805 -0.6775 -1.2413  0.0264
16030TIP3   OH269504   2.618   0.021  15.230  0.5231  0.4073  0.0328
16030TIP3    H169505   2.691   0.072  15.264 -0.0878  1.1771  0.2310
16030TIP3    H269506   2.611  -0.054  15.290 -0.3386  1.5725  1.4705
16031TIP3   OH269507   2.530   6.143   5.974  0.0858 -0.1856 -0.2116
16031TIP3    H169508   2.579   6.125   5.894 -1.3371 -0.1702 -1.1253
16031TIP3    H269509   2.574   6.220   6.011 -0.0397  0.6638 -1.7189
16032TIP3   OH269510   1.055   1.879  16.130 -0.0076  0.0764 -0.3871
16032TIP3    H169511   1.048   1.806  16.192  2.5905  0.8230  0.9518
16032TIP3    H269512   0.993   1.944  16.163  2.8438  1.3763  3.0030
16033TIP3   OH269513   6.048   6.163  15.133  0.0897  0.2758 -0.3389
16033TIP3    H169514   6.009   6.223  15.197  0.3491 -0.8212  0.8741
16033TIP3    H269515   6.139   6.153  15.162 -0.0152 -0.8944 -0.3899
16034TIP3   OH269516   5.935   0.771   1.581 -0.0576 -0.4061 -0.1498
16034TIP3    H169517   5.910   0.779   1.673 -0.3053 -0.5683 -0.2013
16034TIP3    H269518   5.915   0.856   1.543 -0.2852 -0.4501 -0.1311
16035TIP3   OH269519   6.109   1.342  11.654  0.0417  0.0358 -0.4033
16035TIP3    H169520   6.128   1.357  11.747  0.6083  0.5927 -0.5995
16035TIP3    H269521   6.091   1.429  11.619  2.4851  0.2218 -1.3733
16036TIP3   OH269522   2.608   2.287  13.100  0.6569 -0.9392  0.9372
16036TIP3    H169523   2.530   2.281  13.156  1.2426  1.6315  2.2031
16036TIP3    H269524   2.597   2.369  13.052  2.1273 -0.9849  0.4657
16037TIP3   OH269525   5.971   0.944  13.128  0.1169 -0.7074 -0.6440
16037TIP3    H169526   5.985   0.852  13.103 -0.0106 -0.4929 -1.5136
16037TIP3    H269527   6.044   0.964  13.187 -0.2886 -1.5970  0.1968
16038TIP3   OH269528   0.678   3.445  13.633 -0.1385  0.1654  0.7009
16038TIP3    H169529   0.738   3.453  13.707  0.2026  2.3328  0.2502
16038TIP3    H269530   0.723   3.489  13.561 -2.1165  1.6175  0.2764
16039TIP3   OH269531   3.230   1.553   1.574 -0.3270  0.2491 -0.2718
16039TIP3    H169532   3.213   1.511   1.490  0.0955  0.6149 -0.5441
16039TIP3    H269533   3.301   1.614   1.557 -1.0943  1.2629  0.0589
16040TIP3   OH269534   5.095   4.432   1.851  0.5784 -0.6281 -0.0197
16040TIP3    H169535   5.052   4.348   1.834  1.8753 -1.0016 -1.6360
16040TIP3    H269536   5.127   4.461   1.766  2.3599  0.2821  0.9027
16041TIP3   OH269537   1.688   1.714  10.851 -0.2726 -0.1299  0.3391
16041TIP3    H169538   1.682   1.790  10.792  0.7224 -0.5817 -0.3719
16041TIP3    H269539   1.771   1.673  10.828 -0.2936 -0.8295  1.4684
16042TIP3   OH269540   0.574   3.671   4.825 -0.2093  0.0687  0.3044
16042TIP3    H169541   0.652   3.655   4.878 -1.1940  0.0688  1.8249
16042TIP3    H269542   0.507   3.615   4.864 -1.9815  2.8055  1.4758
16043TIP3   OH269543   0.316   3.838  13.701  0.0931  0.3559 -0.0560
16043TIP3    H169544   0.397   3.809  13.660  1.0952 -0.4453  2.3234
16043TIP3    H269545   0.296   3.921  13.659  0.9919 -0.4064 -2.1339
16044TIP3   OH269546   0.381   0.794   2.702 -0.0449  0.2157  0.1776
16044TIP3    H169547   0.328   0.716   2.689  0.5967 -0.8008  3.0737
16044TIP3    H269548   0.438   0.774   2.776 -0.3808  3.6771  1.5922
16045TIP3   OH269549   4.778   4.730  13.421  0.0635 -0.3236 -0.7032
16045TIP3    H169550   4.699   4.704  13.373  0.5442 -0.2236 -1.5483
16045TIP3    H269551   4.776   4.825  13.422 -0.0121 -0.3259 -0.4012
16046TIP3   OH269552   5.292   3.834  11.535  0.2389  0.1230  0.1445
16046TIP3    H169553   5.352   3.809  11.605 -1.1523 -1.2875  0.9169
16046TIP3    H269554   5.309   3.770  11.466  1.9147  1.7809 -1.0383
16047TIP3   OH269555   0.470   2.692   3.089 -0.1894  0.2971 -0.1984
16047TIP3    H169556   0.481   2.787   3.088  1.0496  0.1649  0.0156
16047TIP3    H269557   0.555   2.658   3.062  0.1782 -0.8045  2.1349
16048TIP3   OH269558   2.615   5.163  10.670 -0.0623  0.6621  0.0180
16048TIP3    H169559   2.588   5.074  10.691  2.9869 -0.7120 -1.2481
16048TIP3    H269560   2.684   5.182  10.734  1.1672  1.0084 -1.3486
16049TIP3   OH269561   4.288   0.472   1.174 -0.2620 -0.2238 -0.1259
16049TIP3    H169562   4.274   0.502   1.084 -0.1927  1.7215  0.4631
16049TIP3    H269563   4.281   0.376   1.169 -0.8415 -0.1220 -2.0819
16050TIP3   OH269564   2.874   0.258   5.853  0.3431  0.2128  0.0127
16050TIP3    H169565   2.881   0.180   5.908 -0.7313  1.4300  1.9775
16050TIP3    H269566   2.841   0.226   5.769  0.5901 -1.5130  0.5390
16051TIP3   OH269567   0.773   0.991  16.632 -0.0006 -0.2356 -0.6471
16051TIP3    H169568   0.798   1.081  16.650  0.7673 -0.4819 -0.4653
16051TIP3    H269569   0.723   0.964  16.709  0.9673 -0.4122 -0.0693
16052TIP3   OH269570   0.069   0.344  13.996  0.0707  0.1781 -0.1827
16052TIP3    H169571  -0.003   0.282  14.011  1.3950 -0.7491  3.1875
16052TIP3    H269572   0.144   0.305  14.040  1.2068  3.7460  1.3824
16053TIP3   OH269573   4.147   2.855  11.300 -0.2721 -0.4344  0.1811
16053TIP3    H169574   4.189   2.853  11.214  1.4737  0.9767  0.9509
16053TIP3    H269575   4.057   2.884  11.282 -0.1280 -0.7724 -1.2099
16054TIP3   OH269576   2.322   4.146  10.964 -0.1306  0.0232 -0.0401
16054TIP3    H169577   2.302   4.175  10.875  0.2512 -0.6652 -0.3543
16054TIP3    H269578   2.350   4.055  10.954  0.4540  0.1096  0.7165
16055TIP3   OH269579   2.657   6.049  11.897  0.3091 -0.1529  1.1006
16055TIP3    H169580   2.655   6.123  11.836 -2.0808 -0.3565  0.8470
16055TIP3    H269581   2.674   5.973  11.842 -1.1007 -0.2393  0.7319
16056TIP3   OH269582   0.648   3.276  14.468  0.1934 -0.0204 -0.2886
16056TIP3    H169583   0.567   3.289  14.418 -0.2176 -1.6903 -0.0929
16056TIP3    H269584   0.685   3.195  14.434  1.5637  0.4717 -0.0436
16057TIP3   OH269585   2.271   6.609  13.479  0.3624 -0.3657 -1.2393
16057TIP3    H169586   2.188   6.599  13.432 -0.1998 -0.4517 -0.2664
16057TIP3    H269587   2.272   6.700  13.507 -1.1388 -1.1431  1.7802
16058TIP3   OH269588   4.654   0.804   0.397 -0.1294  0.1642  0.2446
16058TIP3    H169589   4.603   0.835   0.322  1.1753  3.2941  0.5021
16058TIP3    H269590   4.718   0.874   0.413  0.5555 -1.0238  3.4056
16059TIP3   OH269591   5.338   1.931  16.074 -0.3170  0.8710  0.0707
16059TIP3    H169592   5.316   2.012  16.030 -0.5980  0.2155 -1.0246
16059TIP3    H269593   5.256   1.903  16.115 -0.3398  0.8979  0.0445
16060TIP3   OH269594   3.055   1.075   2.169  0.2154 -0.0537  0.1405
16060TIP3    H169595   3.125   1.024   2.128  0.7880 -1.1113  2.2525
16060TIP3    H269596   3.100   1.133   2.230 -0.6459  0.6070  0.1652
16061TIP3   OH269597   4.927   6.641  16.363 -0.2736  0.3693  0.4206
16061TIP3    H169598   4.977   6.563  16.338 -0.9596  0.0317  0.0729
16061TIP3    H269599   4.909   6.628  16.456 -0.7522 -0.0947  0.2632
16062TIP3   OH269600   6.274   4.093  13.922 -0.4530 -0.4057  0.3790
16062TIP3    H169601   6.198   4.082  13.865  0.6747  0.2629 -1.3342
16062TIP3    H269602   6.237   4.107  14.009 -2.2652 -0.3432 -0.3551
16063TIP3   OH269603   5.847   5.018  14.272 -0.1830 -0.4360  0.1568
16063TIP3    H169604   5.854   5.083  14.342  0.8196  0.5420 -0.8182
16063TIP3    H269605   5.897   4.943  14.304 -0.1619 -0.1941  0.7029
16064TIP3   OH269606   3.165   2.624   0.335  0.1780 -0.7443  0.2027
16064TIP3    H169607   3.144   2.554   0.396  0.0662 -2.3272 -1.5808
16064TIP3    H269608   3.241   2.592   0.286  1.0466  1.0134  0.3276
16065TIP3   OH269609   3.493   6.599   5.463  0.1445 -0.3855 -0.4408
16065TIP3    H169610   3.472   6.548   5.384  1.2337 -0.8218 -0.4601
16065TIP3    H269611   3.557   6.545   5.510  0.7056  0.6009 -0.0536
16066TIP3   OH269612   4.383   6.506   2.006  0.1213  1.1167  0.3105
16066TIP3    H169613   4.443   6.470   2.072 -0.3322 -1.3023 -0.5146
16066TIP3    H269614   4.298   6.510   2.050 -0.5501 -2.0142 -0.4226
16067TIP3   OH269615   1.197   3.483  16.900  0.0973  0.4888  0.3257
16067TIP3    H169616   1.263   3.465  16.833 -0.2768 -0.5895  0.2284
16067TIP3    H269617   1.144   3.403  16.903  0.2488  0.4293  2.0661
16068TIP3   OH269618   6.604   4.757   3.684 -0.4264  0.0751 -0.4840
16068TIP3    H169619   6.668   4.748   3.614 -0.4242 -1.8552 -0.2829
16068TIP3    H269620   6.647   4.812   3.749  1.2675 -1.5823 -0.1251
16069TIP3   OH269621   0.108   2.558  14.138 -0.3378  0.3340 -0.2508
16069TIP3    H169622   0.178   2.621  14.124 -0.1636  0.3383  0.5749
16069TIP3    H269623   0.076   2.577  14.226 -0.3652 -0.6525 -0.0414
16070TIP3   OH269624   3.378   5.838  14.354  0.4282 -0.2147 -0.0240
16070TIP3    H169625   3.362   5.900  14.283  0.2505 -0.8209 -0.5171
16070TIP3    H269626   3.341   5.881  14.431 -0.9059 -0.2682 -0.5954
16071TIP3   OH269627   3.494   5.581   0.111  0.7575 -0.2626  0.0501
16071TIP3    H169628   3.413   5.530   0.115 -0.4903  1.2471 -2.7764
16071TIP3    H269629   3.536   5.551   0.030  3.1814 -1.1042  1.5213
16072TIP3   OH269630   3.861   3.402  16.629  0.5983  0.1171 -0.6856
16072TIP3    H169631   3.915   3.474  16.597 -1.4190  2.1557  0.2568
16072TIP3    H269632   3.772   3.435  16.626 -0.2013 -1.4349  2.0683
16073TIP3   OH269633   0.504   0.409  11.977  0.1004  0.1175  0.5336
16073TIP3    H169634   0.565   0.467  12.022  0.2848  0.6980 -0.4357
16073TIP3    H269635   0.529   0.321  12.006 -0.2027  0.5074  2.0378
16074TIP3   OH269636   0.874   3.224  13.235 -0.4335 -0.6787  0.0787
16074TIP3    H169637   0.801   3.262  13.187 -0.9105 -1.1138  0.4417
16074TIP3    H269638   0.903   3.151  13.180  0.8014  0.4669 -0.8581
16075TIP3   OH269639   3.629   6.728  16.018 -0.4586  0.3691  0.2708
16075TIP3    H169640   3.625   6.770  16.104  1.4890  0.3147  0.4203
16075TIP3    H269641   3.611   6.799  15.956  2.7787  1.5546  0.5178
16076TIP3   OH269642   6.581   3.184  14.704 -0.6562  0.0797  0.0100
16076TIP3    H169643   6.496   3.171  14.744  0.1074 -0.5315  1.5258
16076TIP3    H269644   6.573   3.266  14.656 -2.4254 -0.5506 -0.8687
16077TIP3   OH269645   2.288   6.004   4.299 -0.0760 -0.2240  0.2876
16077TIP3    H169646   2.350   5.948   4.344  1.3661  2.2604  1.6283
16077TIP3    H269647   2.247   6.055   4.368 -0.4620  1.1910 -0.9220
16078TIP3   OH269648   2.217   0.908   2.174  0.4264 -0.3409 -0.4974
16078TIP3    H169649   2.158   0.947   2.110 -0.0977  0.1425  0.2572
16078TIP3    H269650   2.292   0.878   2.123  0.1556  0.3053 -1.2990
16079TIP3   OH269651   4.042   5.871   3.351  0.3584  0.0613 -0.0234
16079TIP3    H169652   3.951   5.881   3.324 -0.0917 -1.1863  0.9121
16079TIP3    H269653   4.050   5.779   3.375  2.6414 -0.5863 -2.7207
16080TIP3   OH269654   4.291   3.073  11.832 -0.3793  0.2695 -0.3083
16080TIP3    H169655   4.296   3.169  11.826  0.0121  0.1736 -1.8603
16080TIP3    H269656   4.379   3.043  11.809 -0.7021 -0.4935 -0.5748
16081TIP3   OH269657   6.566   2.514  13.139  0.5329 -0.5370  0.7412
16081TIP3    H169658   6.602   2.452  13.203  0.5395  0.7115  1.9671
16081TIP3    H269659   6.497   2.560  13.186  0.3122  0.1720 -0.2594
16082TIP3   OH269660   2.506   6.255  15.102  0.5249  0.2192  0.6329
16082TIP3    H169661   2.462   6.174  15.127  0.1766  0.6699  1.5306
16082TIP3    H269662   2.557   6.231  15.025 -1.7224 -0.1968 -0.8318
16083TIP3   OH269663   4.188   2.184  15.466  0.7268 -0.2382 -0.1132
16083TIP3    H169664   4.139   2.241  15.406 -1.6758 -0.8838  1.1504
16083TIP3    H269665   4.178   2.225  15.552  2.1629 -0.5937  0.2559
16084TIP3   OH269666   4.151   0.976  14.609 -0.0991  0.4389  0.6309
16084TIP3    H169667   4.151   1.060  14.655  1.2870  0.6941  0.1847
16084TIP3    H269668   4.114   0.915  14.672  0.4393  1.0604  1.5731
16085TIP3   OH269669   3.313   6.327  14.885 -0.1751 -0.1541 -0.3043
16085TIP3    H169670   3.262   6.307  14.806 -0.2398 -0.8472 -0.0974
16085TIP3    H269671   3.404   6.328  14.855 -0.1751 -0.7207 -0.3370
16086TIP3   OH269672   2.500   3.424  15.088  0.1973 -1.0060  0.1319
16086TIP3    H169673   2.460   3.451  15.170  1.8184  0.0170  0.6429
16086TIP3    H269674   2.473   3.491  15.025  0.8421 -0.4719  0.4099
16087TIP3   OH269675   2.171   5.219  16.653  0.7874 -0.2645 -0.3417
16087TIP3    H169676   2.116   5.295  16.632  0.8279  0.6511  2.3823
16087TIP3    H269677   2.145   5.152  16.590 -0.4933  1.4452 -1.7396
16088TIP3   OH269678   1.140   0.329  12.717 -0.4774 -0.1661 -0.0004
16088TIP3    H169679   1.137   0.410  12.768  0.6519 -0.7665  1.0644
16088TIP3    H269680   1.163   0.261  12.780  0.2654 -1.0521 -1.1772
16089TIP3   OH269681   1.192   3.165  11.179 -0.2135 -0.3886 -0.0164
16089TIP3    H169682   1.113   3.130  11.137 -0.4452 -1.5164  1.3011
16089TIP3    H269683   1.263   3.143  11.120 -0.4173 -2.7092  0.5109
16090TIP3   OH269684   3.651   5.012   2.687  0.5534  0.5210  0.4808
16090TIP3    H169685   3.664   5.081   2.752  1.2510  0.7111  0.1446
16090TIP3    H269686   3.673   5.053   2.603  1.5517 -0.2780  0.3364
16091TIP3   OH269687   2.476   4.691   0.240  0.2066  0.2880  0.1412
16091TIP3    H169688   2.547   4.745   0.206 -0.5635  1.4376  0.2856
16091TIP3    H269689   2.515   4.605   0.255  1.4200  0.7509 -0.2819
16092TIP3   OH269690   4.541   2.936   0.641 -0.7489 -0.1562  0.5472
16092TIP3    H169691   4.486   3.010   0.668 -0.3611  0.9272 -1.4362
16092TIP3    H269692   4.628   2.958   0.673 -0.2340  1.2547 -1.6525
16093TIP3   OH269693   5.358   2.282   4.835 -0.4741 -0.3949  0.0187
16093TIP3    H169694   5.359   2.193   4.870 -0.2982 -1.0882 -1.6435
16093TIP3    H269695   5.441   2.290   4.787 -1.1433  0.1144 -1.1006
16094TIP3   OH269696   0.532   1.868  16.764 -0.0297  0.2450 -0.1669
16094TIP3    H169697   0.489   1.936  16.711 -0.6604 -0.5274 -0.6698
16094TIP3    H269698   0.459   1.817  16.800  0.4466 -0.4680 -0.2008
16095TIP3   OH269699   6.218   2.625   4.669  0.3861  0.4739  0.3743
16095TIP3    H169700   6.172   2.542   4.681 -0.2010  0.7735  0.2642
16095TIP3    H269701   6.198   2.676   4.747 -0.4049  1.0269 -0.1658
16096TIP3   OH269702   1.732   4.546   1.701 -0.4990  0.6787  0.0738
16096TIP3    H169703   1.792   4.475   1.723 -1.5498  0.0171  0.8942
16096TIP3    H269704   1.660   4.503   1.655 -0.4087  1.4519 -0.8174
16097TIP3   OH269705   6.292   5.828  15.281 -0.2457  0.4280 -0.0513
16097TIP3    H169706   6.210   5.835  15.233  0.2324  1.7583 -0.7056
16097TIP3    H269707   6.350   5.779  15.223 -0.5700 -0.5941  0.4488
16098TIP3   OH269708   1.099   0.891   3.119  0.7882  0.6153 -0.3758
16098TIP3    H169709   1.191   0.865   3.108 -0.1608 -2.9342 -1.1509
16098TIP3    H269710   1.087   0.898   3.213  1.3487 -1.1882 -0.1354
16099TIP3   OH269711   5.776   4.239   2.599  0.0152  0.1076 -0.3141
16099TIP3    H169712   5.796   4.331   2.616 -2.2134  0.4330  0.8601
16099TIP3    H269713   5.715   4.241   2.526  1.2231 -0.6033 -1.3921
16100TIP3   OH269714   3.707   3.420  11.836  0.9741 -0.3965 -0.8343
16100TIP3    H169715   3.764   3.462  11.900  1.3009 -1.4487 -0.4107
16100TIP3    H269716   3.661   3.492  11.792  1.0393  0.3528  0.3091
16101TIP3   OH269717   2.734   3.427  13.054  0.1317  0.0013  0.0741
16101TIP3    H169718   2.827   3.428  13.031  0.5246 -0.0261  1.5363
16101TIP3    H269719   2.728   3.485  13.130 -1.4073  1.5812 -1.1724
16102TIP3   OH269720   0.043   5.874  16.451  0.5602 -0.0752 -0.3659
16102TIP3    H169721   0.135   5.883  16.476  0.8084 -0.9913 -0.8735
16102TIP3    H269722   0.045   5.868  16.355 -0.3102  2.8141 -0.6565
16103TIP3   OH269723   0.346   6.105  11.405 -0.0485  0.2685  0.3990
16103TIP3    H169724   0.320   6.195  11.426  1.3600  0.8056 -0.0122
16103TIP3    H269725   0.338   6.099  11.310 -1.3482 -0.4598  0.5435
16104TIP3   OH269726   1.886   1.316  10.776 -0.9701 -0.4332  0.7966
16104TIP3    H169727   1.924   1.229  10.763 -2.0309 -0.7034 -0.6739
16104TIP3    H269728   1.947   1.375  10.731  0.2008 -0.2482  2.4904
16105TIP3   OH269729   0.891   2.205   1.100  0.0842 -0.0678 -0.0699
16105TIP3    H169730   0.836   2.283   1.097  1.4542  1.0119  1.3663
16105TIP3    H269731   0.846   2.145   1.159  0.6664  1.0398  1.5681
16106TIP3   OH269732   5.643   0.882   3.303 -0.5461  0.6449  0.2232
16106TIP3    H169733   5.622   0.843   3.388  0.3801 -2.4068 -0.8046
16106TIP3    H269734   5.739   0.882   3.299 -0.5501 -1.0366 -1.4597
16107TIP3   OH269735   2.543   1.572  17.180  0.0240 -0.2441 -0.6904
16107TIP3    H169736   2.507   1.595  17.266  0.3553  3.1685 -1.2950
16107TIP3    H269737   2.629   1.534  17.199  0.7036  1.7412  0.5438
16108TIP3   OH269738   3.735   4.928   3.206 -0.1444  0.6504  0.0046
16108TIP3    H169739   3.686   4.917   3.125  0.6437 -1.2042 -0.2815
16108TIP3    H269740   3.763   5.020   3.205  0.8366  0.4122 -2.4239
16109TIP3   OH269741   3.043   5.396   5.937 -0.1440 -0.6398  0.6864
16109TIP3    H169742   3.107   5.346   5.885  1.0499 -0.3960  1.8772
16109TIP3    H269743   3.038   5.349   6.020 -1.2628 -0.4442  0.7418
16110TIP3   OH269744   1.239   1.430   5.480 -0.8363 -0.4870 -0.6904
16110TIP3    H169745   1.176   1.487   5.525 -0.2000  0.9806 -1.5733
16110TIP3    H269746   1.317   1.433   5.536  0.5148  2.6062 -2.4954
16111TIP3   OH269747   0.687   0.320  12.988 -0.3687  1.2050  0.9819
16111TIP3    H169748   0.724   0.272  13.062 -0.9530  0.0698  0.5737
16111TIP3    H269749   0.745   0.299  12.914 -2.3177 -1.5309  0.0648
16112TIP3   OH269750   4.213   3.966  11.541  0.0181  0.4169  0.0347
16112TIP3    H169751   4.207   3.944  11.448 -1.9145  1.4873 -0.1542
16112TIP3    H269752   4.307   3.976  11.557  0.5406 -1.7708 -1.2706
16113TIP3   OH269753   1.057   2.663   3.020  0.2320  0.1777 -0.4090
16113TIP3    H169754   0.997   2.684   3.091  0.5311 -1.0431  0.2427
16113TIP3    H269755   1.077   2.570   3.032  1.5727  0.3387 -1.1122
16114TIP3   OH269756   0.074   6.493  13.825  0.0257  0.2066 -0.0138
16114TIP3    H169757   0.082   6.455  13.738  0.5161 -0.9030  0.4870
16114TIP3    H269758  -0.018   6.480  13.849 -0.5208  1.9804 -0.9754
16115TIP3   OH269759   0.925   2.965   4.615 -0.0204 -0.5837 -0.0595
16115TIP3    H169760   0.942   2.993   4.526 -2.3800 -0.2489 -0.4834
16115TIP3    H269761   0.922   2.869   4.611 -2.8765 -0.5613 -1.0455
16116TIP3   OH269762   6.521   0.138   3.851  0.2980 -0.4752 -0.4680
16116TIP3    H169763   6.434   0.144   3.890  0.3376  0.5747 -0.5053
16116TIP3    H269764   6.573   0.204   3.899  1.0436 -1.0240 -0.5053
16117TIP3   OH269765   3.299   3.866  14.171  0.0974 -0.1223 -0.4565
16117TIP3    H169766   3.329   3.775  14.177  1.2956  0.2909  0.2508
16117TIP3    H269767   3.352   3.905  14.102  0.7023  0.4298  0.2982
16118TIP3   OH269768   2.332   1.163   6.547 -0.2189  0.2075 -0.1611
16118TIP3    H169769   2.330   1.165   6.642  1.8970  2.8865 -0.0402
16118TIP3    H269770   2.244   1.193   6.520 -0.8473 -0.6280  0.9078
16119TIP3   OH269771   0.832   0.958  15.364  0.4435 -0.1018 -0.1524
16119TIP3    H169772   0.868   1.045  15.350  1.0533 -0.3318 -0.0287
16119TIP3    H269773   0.863   0.932  15.451 -1.5035  0.4184  0.7744
16120TIP3   OH269774   3.165   1.066   5.673  0.5958  0.9759  0.0517
16120TIP3    H169775   3.095   1.115   5.716  0.1031  2.4456 -2.2147
16120TIP3    H269776   3.121   0.989   5.635  1.2449 -1.0110  3.0079
16121TIP3   OH269777   3.118   3.933  11.053 -0.1734 -0.5938 -0.1729
16121TIP3    H169778   3.122   4.026  11.035 -0.3253 -0.8937 -1.9297
16121TIP3    H269779   3.123   3.891  10.967 -0.3660 -2.1959  0.5515
16122TIP3   OH269780   3.063   5.999  17.030 -0.3333 -0.2315  0.4493
16122TIP3    H169781   3.134   5.936  17.027 -0.1648 -0.3452  3.5718
16122TIP3    H269782   3.093   6.072  16.975  1.4918 -0.9240  0.4654
16123TIP3   OH269783   4.671   6.126   4.944  0.0145  0.2176 -0.3185
16123TIP3    H169784   4.595   6.083   4.983  1.2311 -0.2450  1.7094
16123TIP3    H269785   4.713   6.059   4.891  0.3320 -0.2881  0.5442
16124TIP3   OH269786   2.080   0.678  15.199 -0.6080 -0.1514  0.0768
16124TIP3    H169787   2.150   0.612  15.203  1.5952  1.9422 -1.2236
16124TIP3    H269788   2.011   0.643  15.255  0.7992 -3.1057  0.1534
16125TIP3   OH269789   6.248   4.062  11.833  0.3497  0.3004  0.2788
16125TIP3    H169790   6.217   4.025  11.751  1.9602 -1.6940  0.5115
16125TIP3    H269791   6.340   4.082  11.818  0.6711 -0.0842  1.5835
16126TIP3   OH269792   3.566   2.581  15.396 -0.0314 -0.0819  0.2576
16126TIP3    H169793   3.585   2.562  15.487 -0.2874  0.9622  0.5407
16126TIP3    H269794   3.564   2.677  15.391 -0.6096 -0.1289 -0.7138
16127TIP3   OH269795   5.657   2.555  13.881 -0.6215  0.2036 -0.2870
16127TIP3    H169796   5.668   2.598  13.966  0.6503 -0.9432  0.1694
16127TIP3    H269797   5.562   2.557  13.865 -0.7982  1.1740  0.7455
16128TIP3   OH269798   1.113   2.442   5.623  0.0656  0.6959 -0.0487
16128TIP3    H169799   1.167   2.458   5.700  0.3571 -0.7345  0.0635
16128TIP3    H269800   1.023   2.450   5.654  0.1850  0.4709  0.3512
16129TIP3   OH269801   1.896   3.749   6.554  0.2778  0.3622 -0.0580
16129TIP3    H169802   1.811   3.740   6.597 -1.4223  0.9625 -3.0307
16129TIP3    H269803   1.957   3.769   6.626 -2.3339  1.5280  2.0302
16130TIP3   OH269804   1.665   3.246   0.250 -1.4057 -0.2113 -0.8996
16130TIP3    H169805   1.644   3.315   0.187 -0.1851  1.5616  0.5297
16130TIP3    H269806   1.681   3.169   0.196 -2.7203  0.6125 -2.5689
16131TIP3   OH269807   5.788   1.213  12.329 -0.9957 -0.3038  0.2307
16131TIP3    H169808   5.824   1.250  12.248  0.6776 -0.8602  0.6795
16131TIP3    H269809   5.832   1.260  12.399 -1.2699 -0.8945  0.8107
16132TIP3   OH269810   3.813   1.630   5.697  0.4642 -0.1705 -0.8445
16132TIP3    H169811   3.871   1.571   5.649 -0.1116  0.7796 -2.8109
16132TIP3    H269812   3.755   1.667   5.631 -2.1689 -0.7635  0.9578
16133TIP3   OH269813   3.501   3.778  16.907 -0.4935 -0.0091 -0.7170
16133TIP3    H169814   3.447   3.857  16.917  1.5369  1.2523  1.2828
16133TIP3    H269815   3.453   3.710  16.955 -0.9738  0.7184 -0.1440
16134TIP3   OH269816   0.300   4.635   5.687 -0.7570  0.0386  0.0498
16134TIP3    H169817   0.359   4.696   5.731  0.2840 -0.0205 -1.1931
16134TIP3    H269818   0.305   4.555   5.738  0.0148  0.1377  0.1389
16135TIP3   OH269819   1.880   4.718  12.461  0.0167  0.0399  0.2720
16135TIP3    H169820   1.975   4.730  12.462  0.2677 -1.6697 -0.0333
16135TIP3    H269821   1.863   4.659  12.534 -1.0934  1.9012  1.5979
16136TIP3   OH269822   0.520   6.330  16.413 -0.1333 -0.0232  0.2174
16136TIP3    H169823   0.494   6.370  16.496  0.6631 -0.3311  0.6219
16136TIP3    H269824   0.602   6.285  16.432 -0.3531 -0.7792 -0.5461
16137TIP3   OH269825   3.073   3.707  12.464  0.4811 -1.1032 -0.2682
16137TIP3    H169826   3.159   3.666  12.471  1.6583  1.5117  2.1533
16137TIP3    H269827   3.026   3.679  12.542 -0.1518 -0.9009 -0.5658
16138TIP3   OH269828   2.860   2.252  12.180 -0.6933 -0.5407 -0.1280
16138TIP3    H169829   2.919   2.206  12.240 -0.7774 -0.4108  0.0516
16138TIP3    H269830   2.773   2.222  12.204 -0.8963  0.8373  0.9872
16139TIP3   OH269831   6.557   2.917  17.105  0.1586 -0.0410  0.3239
16139TIP3    H169832   6.572   2.901  17.012 -1.5024  1.6633 -0.2910
16139TIP3    H269833   6.556   2.829  17.145  3.3119 -0.7200 -0.7808
16140TIP3   OH269834   6.118   4.944  12.236 -0.1449  0.8379 -0.4895
16140TIP3    H169835   6.158   5.023  12.272  0.1591 -0.5006  2.3472
16140TIP3    H269836   6.058   4.915  12.304  0.3069 -1.7779 -1.1147
16141TIP3   OH269837   5.256   2.933   6.021  0.1070 -0.1051  0.2708
16141TIP3    H169838   5.209   2.957   6.100 -0.2601 -0.0581  0.0396
16141TIP3    H269839   5.305   3.013   5.997  0.3165 -0.1584  0.5151
16142TIP3   OH269840   0.809   3.573  15.896  0.0084 -0.0948 -0.0383
16142TIP3    H169841   0.831   3.597  15.806 -1.8094 -3.1485 -1.4790
16142TIP3    H269842   0.893   3.559  15.939  0.9382 -0.7170 -1.9611
16143TIP3   OH269843   3.429   0.081   5.261 -0.1481  0.2130  0.4125
16143TIP3    H169844   3.472   0.124   5.335 -1.9366  0.6836  1.2596
16143TIP3    H269845   3.362   0.026   5.303 -2.0891  1.4874 -0.8445
16144TIP3   OH269846   6.065   1.938   5.993  0.3370 -0.8830  0.5520
16144TIP3    H169847   6.055   1.846   5.968  0.5089 -0.6266 -0.5140
16144TIP3    H269848   6.061   1.937   6.089  3.0259 -2.3749  0.7747
16145TIP3   OH269849   6.025   4.719   5.356 -0.8596  0.0495  0.8018
16145TIP3    H169850   5.999   4.635   5.319 -0.5332 -0.5372  1.8386
16145TIP3    H269851   6.025   4.704   5.451  1.6671  0.4577  0.9391
16146TIP3   OH269852   1.786   5.038  13.941  0.0832  0.1058  0.3327
16146TIP3    H169853   1.782   5.092  14.020 -0.9559 -1.0014  1.0616
16146TIP3    H269854   1.785   4.948  13.972 -1.3160 -0.3716 -0.9267
16147TIP3   OH269855   2.383   4.897  12.992  0.4139  0.1631 -0.1773
16147TIP3    H169856   2.478   4.886  12.984  0.3062 -0.0368 -1.4127
16147TIP3    H269857   2.354   4.923  12.904 -1.1543 -3.4808 -0.9224
16148TIP3   OH269858   2.446   2.302  17.222 -0.7029 -0.0358 -0.5512
16148TIP3    H169859   2.461   2.213  17.189 -1.3574 -0.8145  1.1631
16148TIP3    H269860   2.381   2.338  17.162 -0.4004 -0.6866 -1.2953
16149TIP3   OH269861   6.405   1.653   0.653 -0.1777 -0.3120  0.7373
16149TIP3    H169862   6.376   1.566   0.624 -0.3608 -0.4638  1.3518
16149TIP3    H269863   6.358   1.714   0.596  1.7330 -0.6276 -1.3061
16150TIP3   OH269864   0.205   5.678   5.084 -0.1696  0.2729  0.1314
16150TIP3    H169865   0.230   5.588   5.064 -0.3153 -0.3151  2.3215
16150TIP3    H269866   0.167   5.711   5.003 -0.7975 -1.8826 -0.5136
16151TIP3   OH269867   6.013   1.946   5.156 -0.3676  0.1253 -0.3256
16151TIP3    H169868   6.076   1.953   5.227 -0.8334 -2.0006  0.3511
16151TIP3    H269869   5.953   2.020   5.170  0.2692  0.4624  0.7275
16152TIP3   OH269870   4.951   1.897  15.503  0.1218  0.3695  0.6106
16152TIP3    H169871   4.876   1.954  15.516  0.3467  0.7736  0.1414
16152TIP3    H269872   5.026   1.956  15.497  0.4545 -0.0166  0.8710
16153TIP3   OH269873   4.310   1.875   4.093  0.1868 -0.7133 -0.0811
16153TIP3    H169874   4.325   1.950   4.035 -2.1289  0.9935  1.3709
16153TIP3    H269875   4.393   1.864   4.140  0.8487  0.3262 -0.9490
16154TIP3   OH269876   0.225   6.256  16.069  0.2496  0.2607  0.2141
16154TIP3    H169877   0.274   6.207  16.135 -0.3422  0.0153  0.4831
16154TIP3    H269878   0.192   6.333  16.117  1.5545  1.1777 -0.3141
16155TIP3   OH269879   5.800   5.462  12.244 -0.2102 -0.1054 -0.2580
16155TIP3    H169880   5.815   5.538  12.301  0.5089 -0.0512 -0.5053
16155TIP3    H269881   5.777   5.499  12.159  1.6565 -0.0951 -0.8106
16156TIP3   OH269882   3.978   3.414  12.040 -0.0630 -0.5163  0.5829
16156TIP3    H169883   4.025   3.464  11.973  0.2221  0.4361  1.4614
16156TIP3    H269884   3.898   3.465  12.057 -0.0067 -0.6082  1.1513
16157TIP3   OH269885   1.858   0.514  11.183  0.2445  0.3796 -0.1770
16157TIP3    H169886   1.834   0.478  11.268 -0.5021  0.3346 -0.4021
16157TIP3    H269887   1.793   0.478  11.123 -0.3836  1.9120 -0.4512
16158TIP3   OH269888   0.344   2.768  16.975 -0.3372 -0.3299 -0.1120
16158TIP3    H169889   0.373   2.722  17.054  0.8464  0.1980 -0.2288
16158TIP3    H269890   0.399   2.846  16.971 -1.6570  0.6226 -0.4449
16159TIP3   OH269891   5.927   6.444  14.494 -0.0160  0.5100  0.3377
16159TIP3    H169892   5.980   6.519  14.468  1.6474 -0.8676 -0.3874
16159TIP3    H269893   5.923   6.388  14.416  0.8412 -1.2867  1.5025
16160TIP3   OH269894   6.473   6.070   0.168 -0.3341 -0.1729  0.0568
16160TIP3    H169895   6.516   6.046   0.250  0.2262  0.2012 -0.1253
16160TIP3    H269896   6.455   6.163   0.176  0.0521 -0.0560 -0.3927
16161TIP3   OH269897   6.479   6.522   6.535  0.6537  0.3018 -0.3824
16161TIP3    H169898   6.543   6.488   6.471 -0.4961 -1.4956 -0.6370
16161TIP3    H269899   6.529   6.529   6.616  1.1999 -1.1229 -0.5583
16162TIP3   OH269900   0.732   0.557   4.544 -0.3338  0.1703  0.1406
16162TIP3    H169901   0.815   0.540   4.588 -0.1500  0.3247 -0.1422
16162TIP3    H269902   0.670   0.573   4.615  0.0554  0.8677  0.3400
16163TIP3   OH269903   4.044   0.958  14.022 -0.8756 -0.5447 -0.3833
16163TIP3    H169904   4.054   1.042  14.066  1.0828 -0.0512 -1.6169
16163TIP3    H269905   4.005   0.979  13.937  0.4798 -0.7061 -1.0792
16164TIP3   OH269906   2.982   4.877  16.780  0.2266  0.2943 -0.1185
16164TIP3    H169907   2.974   4.860  16.873  1.9057  0.8238  0.1553
16164TIP3    H269908   2.991   4.790  16.740 -2.8811 -0.1162 -0.1175
16165TIP3   OH269909   2.385   0.144   5.483  0.2110 -0.3131 -0.4668
16165TIP3    H169910   2.461   0.196   5.507 -0.6591  0.1419  1.4868
16165TIP3    H269911   2.328   0.204   5.436  0.1635 -0.0929 -0.1295
16166TIP3   OH269912   5.530   3.689  11.632  0.7100 -0.8428 -0.1809
16166TIP3    H169913   5.468   3.619  11.615  1.7365 -2.5205  2.3008
16166TIP3    H269914   5.588   3.689  11.556 -0.7261 -1.0072 -1.3195
16167TIP3   OH269915   2.004   5.683  13.178 -0.1303  0.0598 -0.4759
16167TIP3    H169916   1.922   5.636  13.160  0.9316 -3.3442  2.3276
16167TIP3    H269917   1.993   5.719  13.266  0.3943  2.2328 -1.2334
16168TIP3   OH269918   5.848   5.182   5.106  0.2446 -0.0903 -0.1424
16168TIP3    H169919   5.763   5.140   5.115  0.2350  0.1559  1.1584
16168TIP3    H269920   5.909   5.109   5.091  0.1343 -0.5398  1.3966
16169TIP3   OH269921   6.050   0.176  12.137 -0.9972 -0.5962 -0.6804
16169TIP3    H169922   6.122   0.188  12.075 -0.7819 -1.4680 -0.6104
16169TIP3    H269923   5.973   0.158  12.083 -0.9591 -0.6345 -0.7209
16170TIP3   OH269924   3.709   6.223   1.802 -0.6279  0.6919  0.1811
16170TIP3    H169925   3.789   6.262   1.769 -0.3497  0.7504  0.9023
16170TIP3    H269926   3.643   6.241   1.735  0.3312 -0.8565 -1.2281
16171TIP3   OH269927   0.068   0.560  14.884 -0.5177  0.3281 -0.5585
16171TIP3    H169928   0.137   0.616  14.849 -0.6490  0.0069 -1.3621
16171TIP3    H269929   0.075   0.570  14.979  1.1229 -0.2814 -0.5782
16172TIP3   OH269930   3.178   1.837  16.958  0.1211  0.0813 -0.8189
16172TIP3    H169931   3.247   1.886  17.003 -0.9113  0.5033  0.3700
16172TIP3    H269932   3.183   1.867  16.867  2.3902 -0.9449 -1.0874
16173TIP3   OH269933   6.500   4.655  11.572  0.1935 -0.1307  0.0668
16173TIP3    H169934   6.540   4.576  11.610 -1.0678 -1.2758 -0.8952
16173TIP3    H269935   6.575   4.710  11.549  1.1779 -1.5406 -0.2792
16174TIP3   OH269936   5.461   3.203   1.853  0.5077 -0.2216  0.3269
16174TIP3    H169937   5.399   3.269   1.822  0.8669 -0.0948 -0.1365
16174TIP3    H269938   5.539   3.254   1.877  0.6746 -0.4451  0.2640
16175TIP3   OH269939   0.865   2.695   3.483  0.0252  0.2132 -0.6228
16175TIP3    H169940   0.792   2.711   3.542 -0.0896  0.1782 -0.7536
16175TIP3    H269941   0.915   2.625   3.524  0.8468  1.2624  0.2411
16176TIP3   OH269942   2.808   2.851  13.247  0.4270  0.8560 -0.5674
16176TIP3    H169943   2.772   2.861  13.335 -1.6503 -0.5021 -1.1958
16176TIP3    H269944   2.835   2.939  13.222 -1.4612  1.7702  0.4202
16177TIP3   OH269945   1.736   5.273   1.894 -0.1406 -0.2830  0.4533
16177TIP3    H169946   1.746   5.225   1.977  1.2787  0.4408  0.7280
16177TIP3    H269947   1.804   5.339   1.896 -0.1085 -0.2161 -1.2957
16178TIP3   OH269948   4.302   0.131  12.636 -0.1624 -0.0533 -0.2811
16178TIP3    H169949   4.216   0.168  12.652 -0.1609  0.1793 -0.8016
16178TIP3    H269950   4.294   0.086  12.552  0.1174 -0.3709 -0.1439
16179TIP3   OH269951   6.183   6.307  16.537 -0.2120  0.2973 -0.3419
16179TIP3    H169952   6.273   6.289  16.509 -0.4461  0.4682 -1.2255
16179TIP3    H269953   6.135   6.322  16.456 -0.9817  0.4947  0.1404
16180TIP3   OH269954   1.699   3.727   3.953  0.6049 -0.0090 -0.1498
16180TIP3    H169955   1.773   3.666   3.954  1.8250  1.3275  2.5495
16180TIP3    H269956   1.664   3.723   4.042 -0.1814  2.1526 -0.3001
16181TIP3   OH269957   5.656   1.628  14.228  0.5291  0.0136  0.0733
16181TIP3    H169958   5.566   1.644  14.255  1.0072  2.4513  0.4584
16181TIP3    H269959   5.709   1.678  14.290  2.0339 -0.0300 -1.1236
16182TIP3   OH269960   5.534   6.003  14.381 -0.3694  0.4149  0.5221
16182TIP3    H169961   5.517   5.917  14.343 -1.4435  0.6522  0.4230
16182TIP3    H269962   5.570   6.054  14.308  0.4574  0.0033  0.6330
16183TIP3   OH269963   4.684   2.416  12.018 -0.6282 -0.2884  0.6570
16183TIP3    H169964   4.653   2.482  12.080 -2.2995 -1.1678  0.8274
16183TIP3    H269965   4.661   2.450  11.932 -1.1972 -0.4679  0.7285
16184TIP3   OH269966   3.962   2.194  16.327 -0.0987 -0.2199  0.5169
16184TIP3    H169967   4.055   2.168  16.327  0.0462  0.2618 -0.3450
16184TIP3    H269968   3.932   2.175  16.416  1.0947  0.5237  1.1047
16185TIP3   OH269969   2.661   0.505   4.945  0.1306 -0.5268  0.0802
16185TIP3    H169970   2.655   0.573   4.878 -0.5868 -1.2943 -0.6607
16185TIP3    H269971   2.700   0.549   5.021  0.9071  0.3684 -0.8136
16186TIP3   OH269972   6.140   6.318  13.548 -0.4071 -0.5808 -0.4340
16186TIP3    H169973   6.107   6.230  13.568  0.4111 -0.9125 -0.5317
16186TIP3    H269974   6.167   6.313  13.457 -0.4484 -0.1964 -0.4655
16187TIP3   OH269975   4.869   0.430   5.868  0.3539 -0.4757  0.1548
16187TIP3    H169976   4.797   0.492   5.876 -1.1489 -2.0791 -0.3376
16187TIP3    H269977   4.934   0.461   5.931 -0.3817  1.4935  0.0275
16188TIP3   OH269978   1.092   0.900   1.615 -0.0732  0.2930  0.3504
16188TIP3    H169979   1.165   0.839   1.603 -0.4547 -0.0154 -0.4627
16188TIP3    H269980   1.135   0.984   1.634  0.5239  0.2369 -0.6491
16189TIP3   OH269981   1.816   2.433  12.885  0.5360  0.1200  0.5154
16189TIP3    H169982   1.805   2.348  12.843  1.0848  0.8354 -1.1268
16189TIP3    H269983   1.909   2.438  12.906  0.7215  0.7477 -0.3979
16190TIP3   OH269984   1.835   1.136   5.106  0.1692 -0.1142  0.0755
16190TIP3    H169985   1.780   1.058   5.095  1.5058 -1.3185  1.5377
16190TIP3    H269986   1.800   1.179   5.184 -1.0727  1.2488 -1.1768
16191TIP3   OH269987   2.635   5.727  14.891  0.3313 -0.2952 -0.7565
16191TIP3    H169988   2.594   5.783  14.825  1.4373  0.5381 -0.7726
16191TIP3    H269989   2.641   5.783  14.968 -1.9182 -1.5752  0.4652
16192TIP3   OH269990   3.908   2.813   4.330  0.4447 -0.0039  0.5357
16192TIP3    H169991   3.985   2.871   4.326 -0.1307  0.7908  0.6924
16192TIP3    H269992   3.836   2.868   4.299  0.3186 -1.4680 -2.0679
16193TIP3   OH269993   1.707   6.629  11.868 -0.9642 -0.4718  0.4845
16193TIP3    H169994   1.656   6.707  11.845 -3.0305 -1.8364  0.2504
16193TIP3    H269995   1.754   6.654  11.948 -1.6451  0.9715  0.4621
16194TIP3   OH269996   0.757   6.010  14.874  0.4455 -0.2980 -0.4995
16194TIP3    H169997   0.778   6.089  14.825 -0.6703  0.8186  0.7464
16194TIP3    H269998   0.840   5.964  14.881  1.1770  0.8825 -1.0197
16195TIP3   OH269999   2.435   2.380  16.101 -0.3098  0.0749 -0.4803
16195TIP3    H170000   2.516   2.347  16.063  0.0759  1.1187 -0.5906
16195TIP3    H270001   2.419   2.463  16.057 -1.2820  0.0310 -0.2434
16196TIP3   OH270002   3.538   2.453  15.747 -0.5114  0.3395 -0.4666
16196TIP3    H170003   3.453   2.470  15.787 -0.2509 -0.2252  0.3414
16196TIP3    H270004   3.521   2.383  15.684  0.2920 -4.3193  3.8542
16197TIP3   OH270005   0.131   4.702  13.788  1.0332  0.3374 -0.0959
16197TIP3    H170006   0.204   4.746  13.833  0.5654  1.7400 -0.6391
16197TIP3    H270007   0.139   4.730  13.697 -0.2780  0.6621 -0.1332
16198TIP3   OH270008   0.241   0.713  16.728 -0.0352  0.8556  0.3973
16198TIP3    H170009   0.284   0.797  16.714 -0.0867  0.6500 -1.2466
16198TIP3    H270010   0.162   0.734  16.777  1.0520  1.4516  1.9634
16199TIP3   OH270011   2.839   2.514  16.543 -0.1488 -0.1061 -0.3881
16199TIP3    H170012   2.836   2.583  16.609  0.4908  0.0679 -0.5367
16199TIP3    H270013   2.866   2.560  16.463  0.1326 -0.4997 -0.5196
16200TIP3   OH270014   4.049   6.421   3.271  0.0623 -0.3113 -0.0970
16200TIP3    H170015   4.041   6.326   3.278  0.4461 -0.3393  0.0007
16200TIP3    H270016   4.035   6.452   3.361  1.8307 -0.4264  0.2500
16201TIP3   OH270017   6.443   2.588  16.206  0.0693  0.1855 -0.3888
16201TIP3    H170018   6.350   2.588  16.182 -0.3268 -0.0133  1.0431
16201TIP3    H270019   6.479   2.664  16.161 -0.4897 -0.4866 -2.0178
16202TIP3   OH270020   3.968   3.722  11.385 -0.4733 -0.1923  0.0667
16202TIP3    H170021   4.044   3.746  11.439 -0.0185 -0.1884 -0.5584
16202TIP3    H270022   4.001   3.725  11.295 -0.8668 -1.4498 -0.1448
16203TIP3   OH270023   5.317   6.595  12.121  0.5949 -0.3485  0.1960
16203TIP3    H170024   5.380   6.641  12.066  0.7606  2.1693  2.2630
16203TIP3    H270025   5.240   6.652  12.122 -0.2047 -1.4029  0.8582
16204TIP3   OH270026   0.138   1.151  13.432 -0.4852 -0.3139 -0.5018
16204TIP3    H170027   0.075   1.196  13.377 -1.1452 -1.5997 -0.8484
16204TIP3    H270028   0.218   1.149  13.380 -0.6726 -0.1965 -0.8000
16205TIP3   OH270029   4.735   3.523   1.592  0.0838 -0.0208  0.0196
16205TIP3    H170030   4.653   3.481   1.563 -0.1323 -1.3561  2.3831
16205TIP3    H270031   4.714   3.558   1.679  1.7220  0.6517  0.1658
16206TIP3   OH270032   5.833   6.567  14.796  0.1914  0.2328 -0.9046
16206TIP3    H170033   5.738   6.571  14.791 -0.1421 -1.2580  1.9668
16206TIP3    H270034   5.856   6.482  14.759 -0.0588 -0.9821  1.5007
16207TIP3   OH270035   0.690   2.980  13.462 -0.4939 -0.2552  0.2877
16207TIP3    H170036   0.713   2.922  13.534  1.1875 -0.8217 -0.6606
16207TIP3    H270037   0.738   3.061  13.479  0.6795 -0.7286 -0.6624
16208TIP3   OH270038   1.227   4.064   4.992  0.0819  0.0220 -0.6344
16208TIP3    H170039   1.164   4.111   5.047  0.0608  1.4428 -1.8154
16208TIP3    H270040   1.190   4.067   4.904  1.3904  0.1580 -1.2069
16209TIP3   OH270041   3.155   2.090  12.626 -0.0493 -0.6518  0.2717
16209TIP3    H170042   3.226   2.143  12.661 -0.7137  1.5519 -1.4531
16209TIP3    H270043   3.092   2.084  12.698  1.0545 -1.1204  1.2307
16210TIP3   OH270044   4.556   4.903  16.738 -0.0482 -0.3032 -0.4773
16210TIP3    H170045   4.514   4.840  16.797 -0.8829  0.0144 -0.7118
16210TIP3    H270046   4.623   4.852  16.693  0.1274 -0.7189  0.2358
16211TIP3   OH270047   5.142   4.504  13.913 -0.6620 -0.3552 -0.0539
16211TIP3    H170048   5.223   4.551  13.892 -0.4342 -0.0582  1.3937
16211TIP3    H270049   5.073   4.562  13.882 -0.3582  0.5079  0.8259
16212TIP3   OH270050   1.661   4.354  15.885  0.9239  0.3903 -0.2059
16212TIP3    H170051   1.597   4.425  15.884 -0.7106 -1.0425 -0.7489
16212TIP3    H270052   1.623   4.287  15.941  3.0547  0.3998  1.4156
16213TIP3   OH270053   0.705   6.332   2.673  0.6246  0.2065 -0.0941
16213TIP3    H170054   0.686   6.245   2.638 -1.4094  0.1093  1.1285
16213TIP3    H270055   0.728   6.316   2.765 -0.0689  0.9814  0.2185
16214TIP3   OH270056   4.884   0.567  13.418  0.3686 -0.0637  0.0139
16214TIP3    H170057   4.894   0.541  13.326  1.5526  1.7281 -0.4171
16214TIP3    H270058   4.836   0.650  13.414  0.8973  0.3052  0.9550
16215TIP3   OH270059   6.275   4.272  14.360  1.1387 -0.3649 -0.1879
16215TIP3    H170060   6.307   4.187  14.392  0.5850 -0.0435  1.2879
16215TIP3    H270061   6.223   4.307  14.432  2.9750  2.1504  0.0381
16216TIP3   OH270062   4.531   4.152  13.580 -0.3378 -0.4348 -0.7137
16216TIP3    H170063   4.531   4.142  13.484  0.1473  0.0855 -0.7735
16216TIP3    H270064   4.622   4.134  13.605 -0.5608 -1.0177 -0.2950
16217TIP3   OH270065   3.765   0.199   5.445 -0.6036 -0.5945 -0.1085
16217TIP3    H170066   3.838   0.259   5.460 -0.6244 -0.7461  0.6231
16217TIP3    H270067   3.707   0.211   5.520 -1.7261  0.0669 -1.0325
16218TIP3   OH270068   2.437   1.641  10.671  0.3638  0.6547 -0.0770
16218TIP3    H170069   2.380   1.667  10.599 -1.8255 -2.1192  0.4928
16218TIP3    H270070   2.489   1.568  10.636 -0.0259 -0.0808  0.8126
16219TIP3   OH270071   4.926   1.102  14.119 -0.2888  0.4539 -0.5186
16219TIP3    H170072   4.841   1.122  14.158 -0.6317 -1.2263 -0.3179
16219TIP3    H270073   4.987   1.164  14.160 -1.4654  2.0033 -1.0214
16220TIP3   OH270074   5.102   6.030  16.750 -0.0021  0.2349 -0.0741
16220TIP3    H170075   5.122   6.102  16.810  0.3039  0.0555  0.0415
16220TIP3    H270076   5.058   5.965  16.805  2.8442 -1.2151  0.6746
16221TIP3   OH270077   4.760   4.119   5.876  0.2661 -0.3564 -0.2477
16221TIP3    H170078   4.777   4.151   5.965  1.4301  0.3096 -0.6875
16221TIP3    H270079   4.730   4.029   5.888  1.1723 -0.5341  0.7766
16222TIP3   OH270080   6.564   3.525  12.466  0.8069 -0.4677 -0.3773
16222TIP3    H170081   6.637   3.466  12.452 -1.1353 -2.6519 -2.1617
16222TIP3    H270082   6.495   3.470  12.504 -1.0994  0.5541 -2.1354
16223TIP3   OH270083   3.134   1.091  13.265 -0.0308 -0.2507  0.4790
16223TIP3    H170084   3.061   1.037  13.295  0.1356 -0.6686  0.1287
16223TIP3    H270085   3.120   1.102  13.171 -0.8393  1.5062  0.7590
16224TIP3   OH270086   6.729   5.966   5.907 -0.5654  0.2221  0.0063
16224TIP3    H170087   6.772   5.910   5.972 -0.1162  1.3830  0.7428
16224TIP3    H270088   6.747   6.055   5.936 -1.2781  0.7657 -1.1288
16225TIP3   OH270089   4.468   5.238  12.752 -0.1271  0.6425  0.0750
16225TIP3    H170090   4.491   5.310  12.693  2.8597  1.0846  1.5621
16225TIP3    H270091   4.430   5.171  12.696 -0.5459  2.3530 -1.7744
16226TIP3   OH270092   0.450   1.256   0.452  0.5843  0.3478 -0.1728
16226TIP3    H170093   0.502   1.177   0.437  1.5443  1.4313 -3.4139
16226TIP3    H270094   0.514   1.321   0.480  0.1637  0.5789  0.2721
16227TIP3   OH270095   2.833   4.563   5.667 -0.4946 -0.2874 -0.4375
16227TIP3    H170096   2.853   4.602   5.582  1.5971 -0.2394  0.0246
16227TIP3    H270097   2.898   4.493   5.677 -1.5011 -1.1036  0.5913
16228TIP3   OH270098   6.262   5.279  11.418  0.5627  0.5256  0.8108
16228TIP3    H170099   6.325   5.216  11.452  0.9421  1.4533  1.8965
16228TIP3    H270100   6.197   5.226  11.373  1.4722 -0.5459  0.7119
16229TIP3   OH270101   4.021   6.372  12.102  0.3026 -0.1799 -0.7630
16229TIP3    H170102   3.948   6.329  12.148  0.7729 -1.2795 -1.0192
16229TIP3    H270103   4.094   6.311  12.110  1.3760  1.1441 -0.0579
16230TIP3   OH270104   1.357   0.537   0.857  0.0561 -0.6395 -0.0240
16230TIP3    H170105   1.335   0.545   0.764 -0.6792 -3.6397 -0.2147
16230TIP3    H270106   1.279   0.498   0.896  0.8066 -0.5359  1.6290
16231TIP3   OH270107   0.673   6.409   4.854  0.3224  0.3134  0.2558
16231TIP3    H170108   0.701   6.328   4.811 -1.2948 -1.0518  1.6075
16231TIP3    H270109   0.735   6.421   4.926  0.3553  0.0674  0.2698
16232TIP3   OH270110   1.500   1.076  10.353  0.2149 -0.0010  0.2479
16232TIP3    H170111   1.518   1.043  10.265 -0.4031 -0.1410  0.1673
16232TIP3    H270112   1.502   1.171  10.345 -2.0231  0.0599 -0.4346
16233TIP3   OH270113   4.646   5.258  17.008  0.0643  0.2314  0.2768
16233TIP3    H170114   4.579   5.232  17.071  0.0415  1.3863  0.7408
16233TIP3    H270115   4.603   5.320  16.950  0.7297  1.0352  0.6208
16234TIP3   OH270116   1.891   3.967   0.120 -0.5694  0.4333 -0.1106
16234TIP3    H170117   1.936   4.050   0.135  0.6228 -0.2187  0.0164
16234TIP3    H270118   1.940   3.904   0.173 -2.0697 -0.1866  0.5929
16235TIP3   OH270119   4.074   5.204  10.584  0.5839  0.5004  0.5702
16235TIP3    H170120   4.164   5.233  10.602 -0.2060  2.8387  1.1158
16235TIP3    H270121   4.052   5.147  10.658  1.6414 -0.1846  0.3748
16236TIP3   OH270122   6.611   2.364  16.185 -0.1100 -0.3327  0.1315
16236TIP3    H170123   6.567   2.443  16.215 -0.3275  0.3583 -1.8965
16236TIP3    H270124   6.677   2.346  16.253 -1.0568  0.6918  1.3719
16237TIP3   OH270125   4.255   3.373  14.957 -0.1330  0.2685  0.2270
16237TIP3    H170126   4.333   3.427  14.963  2.0355 -2.3360 -1.9597
16237TIP3    H270127   4.218   3.375  15.046  1.2472  3.1024  0.8622
16238TIP3   OH270128   4.048   0.417   2.149 -0.4004  0.5496 -0.0128
16238TIP3    H170129   4.124   0.363   2.168 -0.5165  0.4180  0.0830
16238TIP3    H270130   4.035   0.470   2.228 -0.2475  0.7684 -0.1311
16239TIP3   OH270131   2.292   1.316  15.912  0.1224  0.1378 -0.0906
16239TIP3    H170132   2.224   1.373  15.877  2.6230  2.2619 -1.9400
16239TIP3    H270133   2.355   1.306  15.840  2.0792 -1.1729  1.6676
16240TIP3   OH270134   3.682   0.660   1.727  0.6026 -0.0717  0.1309
16240TIP3    H170135   3.707   0.683   1.816  0.5750  0.2957  0.0475
16240TIP3    H270136   3.716   0.572   1.714  3.3213  0.9695 -0.5262
16241TIP3   OH270137   6.368   4.648  11.351 -0.0544  0.2276  0.1502
16241TIP3    H170138   6.283   4.606  11.363 -0.2244 -0.2043 -2.0687
16241TIP3    H270139   6.419   4.624  11.428 -1.0876 -1.7408  0.2768
16242TIP3   OH270140   0.647   5.229   0.228  0.3757  0.7172 -0.1480
16242TIP3    H170141   0.645   5.223   0.324  0.3402  1.9355 -0.0574
16242TIP3    H270142   0.580   5.169   0.199  1.5237 -0.9532  0.5120
16243TIP3   OH270143   2.460   2.962  10.129  0.0854  0.2897  0.2184
16243TIP3    H170144   2.481   2.935  10.218  0.7249  0.1743  0.0370
16243TIP3    H270145   2.527   2.919  10.074  0.5960  1.5415 -0.1703
16244TIP3   OH270146   5.491   1.234  13.190 -0.3866 -0.1425 -0.1794
16244TIP3    H170147   5.586   1.244  13.181 -0.2968  2.7298  2.3029
16244TIP3    H270148   5.454   1.309  13.143 -1.3324 -0.2660  0.3371
16245TIP3   OH270149   0.749   3.157  16.793 -0.0526 -0.4837 -0.4662
16245TIP3    H170150   0.673   3.168  16.851 -0.1038  1.0694 -0.7844
16245TIP3    H270151   0.734   3.072  16.752 -1.5225 -0.3155 -0.3588
16246TIP3   OH270152   3.164   2.457   4.994 -0.2128 -0.2048 -0.2766
16246TIP3    H170153   3.140   2.511   4.919  0.0458  1.2438  0.6279
16246TIP3    H270154   3.083   2.411   5.017 -0.4798 -0.1123 -1.0151
16247TIP3   OH270155   2.528   2.879   6.468  0.4750 -0.0919  0.2585
16247TIP3    H170156   2.460   2.938   6.436 -0.4030 -0.8043  0.7577
16247TIP3    H270157   2.610   2.926   6.452 -0.0445  0.3507 -1.3117
16248TIP3   OH270158   3.440   3.230   5.647  0.2334  0.6347  0.2901
16248TIP3    H170159   3.363   3.200   5.697 -0.0764 -0.3378 -0.7157
16248TIP3    H270160   3.403   3.284   5.578  0.3500 -0.4626 -0.6613
16249TIP3   OH270161   6.209   5.581   3.833 -0.0297  0.2443  0.4100
16249TIP3    H170162   6.203   5.492   3.869 -1.5114  0.8685  1.8205
16249TIP3    H270163   6.289   5.580   3.781  0.4455 -1.6716  1.0908
16250TIP3   OH270164   5.810   4.891   5.228  0.1750  0.3501  0.0336
16250TIP3    H170165   5.833   4.976   5.265 -0.8045  0.2173  0.9866
16250TIP3    H270166   5.828   4.828   5.298 -3.4209  0.2836  1.1105
16251TIP3   OH270167   5.876   0.321   2.330  0.5788 -0.2433 -0.4773
16251TIP3    H170168   5.919   0.255   2.384 -2.3494 -2.0640 -0.1939
16251TIP3    H270169   5.847   0.274   2.252  0.3899  1.2350 -1.3516
16252TIP3   OH270170   1.336   3.829   1.860  0.5940  0.0373  0.0272
16252TIP3    H170171   1.266   3.870   1.808 -0.3869 -0.8899  0.5785
16252TIP3    H270172   1.306   3.836   1.950  0.3301 -1.9585  0.1346
16253TIP3   OH270173   4.028   4.518   3.560 -0.4573  0.0710 -0.4354
16253TIP3    H170174   4.113   4.488   3.594 -1.3359 -2.4061 -0.2126
16253TIP3    H270175   4.004   4.590   3.618  0.3141 -0.9071  1.1844
16254TIP3   OH270176   1.611   4.006   0.168 -0.1192 -0.0831  0.0015
16254TIP3    H170177   1.579   4.067   0.102 -0.0702  1.2492  1.1618
16254TIP3    H270178   1.703   3.991   0.144 -0.8733 -2.0700 -1.9708
16255TIP3   OH270179   3.698   0.343  14.645 -0.5658  0.4941 -0.1002
16255TIP3    H170180   3.609   0.309  14.632 -0.1530 -0.0097 -1.8395
16255TIP3    H270181   3.685   0.432  14.678 -1.7256  0.6098 -0.8099
16256TIP3   OH270182   0.719   4.275  15.675  0.3881 -0.0400 -0.1031
16256TIP3    H170183   0.739   4.182  15.666  0.5438 -0.0073 -0.1021
16256TIP3    H270184   0.623   4.279  15.677  0.3457 -0.0976 -1.2036
16257TIP3   OH270185   3.744   6.095   2.047 -0.1876  0.3718  0.0958
16257TIP3    H170186   3.710   6.113   1.959  0.0139 -0.0088 -0.0646
16257TIP3    H270187   3.828   6.140   2.051  0.7479 -1.2177 -0.6301
16258TIP3   OH270188   0.928   5.466   5.399  0.6464  0.1524  0.1038
16258TIP3    H170189   0.880   5.384   5.409 -1.4861  1.3249 -0.0808
16258TIP3    H270190   0.861   5.533   5.386  2.3657  1.7170 -1.4438
16259TIP3   OH270191   5.022   1.481  15.016  0.9333 -0.0473  0.7081
16259TIP3    H170192   5.102   1.472  14.965 -0.6950 -0.6220 -1.9290
16259TIP3    H270193   4.994   1.571  15.002 -0.4030 -0.6566 -0.9664
16260TIP3   OH270194   1.222   6.697   6.216  0.2794  0.2348  0.1025
16260TIP3    H170195   1.157   6.765   6.200 -0.2726  0.4987  2.8893
16260TIP3    H270196   1.171   6.619   6.239  0.9301 -0.3886 -0.5040
16261TIP3   OH270197   5.776   5.881  14.890 -0.0920  0.0523  0.0800
16261TIP3    H170198   5.817   5.930  14.961 -0.8241  1.5947 -0.5045
16261TIP3    H270199   5.746   5.949  14.829 -1.3366 -1.1257 -0.6763
16262TIP3   OH270200   0.500   0.759   0.302 -0.3920 -0.7338 -0.2609
16262TIP3    H170201   0.448   0.680   0.320 -1.4226  0.2197  1.1950
16262TIP3    H270202   0.465   0.792   0.219 -2.1686 -0.1383  0.6647
16263TIP3   OH270203   5.084   1.760  17.006  0.6009 -0.8153 -0.2088
16263TIP3    H170204   5.066   1.817  16.931 -1.1142 -1.7604 -0.5556
16263TIP3    H270205   5.156   1.804  17.052 -1.5359  2.4362  0.3622
16264TIP3   OH270206   3.757   5.621  11.780 -0.0329 -0.9896 -0.4879
16264TIP3    H170207   3.685   5.665  11.736  0.1353 -1.3889 -1.1777
16264TIP3    H270208   3.721   5.535  11.804 -0.9337  0.1033  2.4402
16265TIP3   OH270209   0.122   2.154  11.341  0.1424 -0.5724  0.2507
16265TIP3    H170210   0.204   2.117  11.375  0.8220  0.3201 -0.3647
16265TIP3    H270211   0.061   2.081  11.341  1.0634 -1.3695  0.3132
16266TIP3   OH270212   3.876   0.426   0.002 -0.8565 -0.7445  0.0018
16266TIP3    H170213   3.957   0.420   0.053  0.4634  0.1655 -1.8814
16266TIP3    H270214   3.851   0.518   0.008 -2.5556 -1.2583  1.6587
16267TIP3   OH270215   1.823   3.358  15.686 -0.2019  0.5244  0.2588
16267TIP3    H170216   1.802   3.328  15.598  1.8442  1.2623 -0.5319
16267TIP3    H270217   1.768   3.305  15.743  0.6188 -2.1321 -1.2665
16268TIP3   OH270218   6.287   0.437  11.692 -0.0064  0.0811 -0.0868
16268TIP3    H170219   6.361   0.476  11.737  0.4076 -0.0857 -0.6060
16268TIP3    H270220   6.226   0.510  11.676 -1.7805 -0.3558  3.6946
16269TIP3   OH270221   1.604   1.325  13.392  0.3844  0.5692 -0.2652
16269TIP3    H170222   1.523   1.312  13.441 -0.2024 -0.1435 -1.3744
16269TIP3    H270223   1.582   1.300  13.302  1.2214  2.5605 -1.0803
16270TIP3   OH270224   3.774   2.947   5.196  0.4236 -0.0183 -0.2043
16270TIP3    H170225   3.864   2.950   5.228  0.4191  2.3694 -0.2604
16270TIP3    H270226   3.721   2.931   5.274  0.5931  3.4297  0.7857
16271TIP3   OH270227   5.684   5.981   0.085  0.5210  0.3260  0.8788
16271TIP3    H170228   5.598   5.998   0.047  0.6320 -0.0647  0.4421
16271TIP3    H270229   5.747   6.013   0.020  0.7074  0.3186  1.0521
16272TIP3   OH270230   0.988   6.498   3.316  0.5605  0.7471  0.5273
16272TIP3    H170231   1.072   6.473   3.279  0.5043  0.9619  0.2531
16272TIP3    H270232   0.924   6.442   3.271  0.6249  0.0696  1.2516
16273TIP3   OH270233   3.148   1.903   6.019  0.1368 -0.1072 -0.4141
16273TIP3    H170234   3.125   1.814   6.046 -0.0043 -0.3627 -1.3269
16273TIP3    H270235   3.222   1.891   5.960 -0.8700  0.2160 -1.8031
16274TIP3   OH270236   0.792   2.037   1.872 -0.1941  0.1787  0.0163
16274TIP3    H170237   0.826   1.977   1.806 -1.2968 -0.5400  0.0759
16274TIP3    H270238   0.767   2.115   1.823 -0.8759 -0.2991 -0.4158
16275TIP3   OH270239   2.093   4.110  11.812 -0.1732  0.3366  0.2958
16275TIP3    H170240   2.057   4.084  11.726 -0.1272 -0.3020  0.4616
16275TIP3    H270241   2.016   4.129  11.865 -0.1948  0.9926  0.0401
16276TIP3   OH270242   5.834   2.291   0.009 -0.4024 -0.2634  0.1645
16276TIP3    H170243   5.849   2.220   0.071 -0.0132 -0.3740 -0.0579
16276TIP3    H270244   5.899   2.277  -0.060  0.3969  0.9015  0.6436
16277TIP3   OH270245   4.492   1.243  12.318 -0.0072  0.5679  0.5360
16277TIP3    H170246   4.468   1.155  12.288 -0.8030  0.5088  1.3113
16277TIP3    H270247   4.534   1.283  12.242 -2.1455  0.4834 -0.7692
16278TIP3   OH270248   5.949   0.850  10.563  0.2343  0.2258  0.2771
16278TIP3    H170249   5.861   0.882  10.543 -0.7188 -2.5610 -0.5572
16278TIP3    H270250   5.957   0.862  10.658 -1.4756 -0.3109  0.5320
16279TIP3   OH270251   6.236   4.895   3.522  0.0920  0.0028  0.6434
16279TIP3    H170252   6.264   4.864   3.608 -1.0396  1.7440  1.7030
16279TIP3    H270253   6.316   4.928   3.480  1.0571 -2.8174  0.0611
16280TIP3   OH270254   0.942   0.505  13.559  0.2111 -0.4525  0.5533
16280TIP3    H170255   0.927   0.545  13.644  0.2971  2.2406 -0.6076
16280TIP3    H270256   0.857   0.509  13.515  1.2098  3.5240 -1.4914
16281TIP3   OH270257   1.293   3.194  11.490 -0.3488  0.0365 -1.1890
16281TIP3    H170258   1.254   3.212  11.405 -1.9416 -0.5183 -0.6247
16281TIP3    H270259   1.382   3.165  11.471  0.0265  1.8930 -2.5070
16282TIP3   OH270260   4.365   5.851  11.707  0.2408 -0.0415  0.3079
16282TIP3    H170261   4.358   5.942  11.681 -0.5547 -0.2095 -0.0789
16282TIP3    H270262   4.418   5.853  11.787  1.7070  0.5914 -0.6296
16283TIP3   OH270263   3.278   3.944  17.006 -0.0471 -0.6834 -0.2665
16283TIP3    H170264   3.328   3.935  17.088  0.0729 -1.0458 -0.3773
16283TIP3    H270265   3.294   4.035  16.979  0.8626 -0.9028 -0.4919
16284TIP3   OH270266   3.167   6.134   5.300  0.4547  0.2786  0.1045
16284TIP3    H170267   3.256   6.114   5.327 -0.5114 -3.3556  1.1802
16284TIP3    H270268   3.128   6.180   5.375  0.8909  0.1759  0.3935
16285TIP3   OH270269   1.200   3.514   0.963 -0.5043 -0.0956 -0.0972
16285TIP3    H170270   1.280   3.550   0.925  0.0823 -1.3723 -0.1348
16285TIP3    H270271   1.183   3.567   1.040 -0.0714  0.6920 -0.5355
16286TIP3   OH270272   2.306   4.746  12.336  0.6248 -0.3483 -0.1339
16286TIP3    H170273   2.399   4.730  12.321  0.6838  0.4981 -0.7250
16286TIP3    H270274   2.299   4.840  12.348 -0.2026 -0.3489 -0.5188
16287TIP3   OH270275   6.068   3.835   3.912  0.1731  0.3133  0.1055
16287TIP3    H170276   6.065   3.749   3.870 -0.6494  0.5661 -0.3670
16287TIP3    H270277   6.086   3.896   3.840 -2.1020  0.8465 -0.0698
16288TIP3   OH270278   5.362   3.777   6.258 -0.2419  0.2116  0.0985
16288TIP3    H170279   5.331   3.848   6.202  1.8494 -0.5056 -2.1285
16288TIP3    H270280   5.282   3.733   6.286 -1.4856  2.2113 -0.0772
16289TIP3   OH270281   2.700   5.449  15.242  0.3654 -0.2634  0.1212
16289TIP3    H170282   2.625   5.449  15.183 -0.2294  0.7467  0.8484
16289TIP3    H270283   2.733   5.359  15.240 -0.4118 -0.5429 -0.7626
16290TIP3   OH270284   0.281   0.728  15.710 -0.5473 -0.2157 -0.2502
16290TIP3    H170285   0.227   0.717  15.788 -1.1576 -2.3083 -0.8888
16290TIP3    H270286   0.333   0.647  15.705 -0.4312 -0.0782 -1.9196
16291TIP3   OH270287   3.695   0.019   3.665 -0.2287  0.5687 -0.2714
16291TIP3    H170288   3.600   0.014   3.669 -0.1875  0.2680  0.7473
16291TIP3    H270289   3.724  -0.072   3.664  0.0631  0.6477  0.3461
16292TIP3   OH270290   4.696   5.299  12.191 -0.0182  0.0767  0.6740
16292TIP3    H170291   4.758   5.279  12.120 -0.2611 -1.1151  0.7838
16292TIP3    H270292   4.614   5.259  12.163 -0.2481  0.0395  1.4004
16293TIP3   OH270293   3.355   5.935  13.553 -0.1965 -0.0704  0.3411
16293TIP3    H170294   3.366   6.001  13.484  0.1987 -0.5105 -0.0336
16293TIP3    H270295   3.435   5.882  13.548 -0.1609 -0.1077  1.1467
16294TIP3   OH270296   1.615   1.025   5.604 -0.4203 -0.6546  0.6345
16294TIP3    H170297   1.696   1.043   5.555 -0.9287 -0.9634 -0.3351
16294TIP3    H270298   1.644   0.975   5.680  0.3586 -0.3680  0.5408
16295TIP3   OH270299   5.834   5.125  15.173  0.2999 -1.1073 -0.3576
16295TIP3    H170300   5.896   5.184  15.215 -1.2623  0.4690 -0.1558
16295TIP3    H270301   5.852   5.133  15.079 -1.1612  1.3202 -0.5157
16296TIP3   OH270302   5.420   4.598   4.182 -0.1435  0.0368 -0.1113
16296TIP3    H170303   5.398   4.628   4.271  0.8038 -3.2611  1.4003
16296TIP3    H270304   5.360   4.524   4.167 -0.8942  1.0716 -2.6704
16297TIP3   OH270305   5.186   1.193   0.770  0.2567 -0.0395  0.4066
16297TIP3    H170306   5.125   1.255   0.810  0.8656  1.2596 -0.5879
16297TIP3    H270307   5.272   1.219   0.802  0.5670 -0.0446 -0.3876
16298TIP3   OH270308   3.178   6.759  11.847  0.7135  0.3229  0.1149
16298TIP3    H170309   3.265   6.764  11.886  2.1837  1.8666 -2.9885
16298TIP3    H270310   3.177   6.829  11.782 -2.2631 -0.7121 -1.1229
16299TIP3   OH270311   5.677   0.540  14.349 -0.6241  0.4303 -0.4790
16299TIP3    H170312   5.583   0.519  14.357 -0.4973 -0.9198 -2.0351
16299TIP3    H270313   5.713   0.519  14.436 -1.5213 -0.4939 -0.3004
16300TIP3   OH270314   1.914   6.323  16.989 -0.2740 -0.4031  0.3770
16300TIP3    H170315   1.933   6.414  16.966 -2.2040  0.1351  0.7190
16300TIP3    H270316   1.908   6.278  16.904  0.2175 -0.1102  0.1865
16301TIP3   OH270317   4.659   1.981  13.686 -0.6503  0.5294  0.1529
16301TIP3    H170318   4.658   1.932  13.604  0.5829 -0.2486  0.5811
16301TIP3    H270319   4.582   1.950  13.734 -0.6966  0.0994 -0.1975
16302TIP3   OH270320   6.550   5.146  15.482  0.1733  0.7333  0.0142
16302TIP3    H170321   6.623   5.178  15.535  1.5677 -2.0887  0.0064
16302TIP3    H270322   6.555   5.197  15.401  1.9080  0.9161  0.2019
16303TIP3   OH270323   5.321   2.494   5.139  0.1098  0.4959  0.2696
16303TIP3    H170324   5.285   2.428   5.079 -1.3871  1.0027  0.5735
16303TIP3    H270325   5.325   2.574   5.087  0.5431  0.5102  0.3225
16304TIP3   OH270326   6.463   6.285  13.830 -0.0657  0.4614  0.5993
16304TIP3    H170327   6.392   6.348  13.817  0.9396  1.2711 -1.3613
16304TIP3    H270328   6.523   6.301  13.758  1.1806 -1.5016  1.1159
16305TIP3   OH270329   0.242   1.756  14.949 -0.0219  0.1130 -0.0690
16305TIP3    H170330   0.202   1.841  14.931  2.4222  0.7071 -3.7929
16305TIP3    H270331   0.206   1.698  14.882  2.5351 -0.1926 -1.2868
16306TIP3   OH270332   2.125   1.439  13.386  0.6330 -0.2779 -0.5379
16306TIP3    H170333   2.208   1.406  13.420  0.2439 -0.3439  0.3739
16306TIP3    H270334   2.146   1.524  13.348  1.1499 -0.3774 -0.4748
16307TIP3   OH270335   0.255   1.404   0.583  0.1465 -0.2397  0.3291
16307TIP3    H170336   0.322   1.432   0.646  0.3551  2.0564 -0.7984
16307TIP3    H270337   0.301   1.343   0.525  1.4137  1.4596 -0.5549
16308TIP3   OH270338   0.819   1.813   4.658 -0.2860 -0.2550 -0.3084
16308TIP3    H170339   0.746   1.756   4.682  0.2685 -0.8262  0.0466
16308TIP3    H270340   0.874   1.814   4.736  0.0602  0.2136 -0.5594
16309TIP3   OH270341   2.625   1.878   3.667 -0.0155 -0.2294  0.4840
16309TIP3    H170342   2.544   1.902   3.622  0.3356 -0.8504 -0.5009
16309TIP3    H270343   2.598   1.814   3.732 -0.3316 -0.3368  0.2505
16310TIP3   OH270344   0.084   0.782   0.356  0.1777  0.3326  0.2463
16310TIP3    H170345  -0.005   0.768   0.386  0.3059 -1.2362 -0.0232
16310TIP3    H270346   0.082   0.759   0.263  0.6271  1.3720 -0.0390
16311TIP3   OH270347   4.767   5.333  14.339  0.3244  0.0086  0.7201
16311TIP3    H170348   4.794   5.378  14.259  1.0535  0.6409  1.3040
16311TIP3    H270349   4.820   5.254  14.342 -0.8249 -0.8359 -0.2103
16312TIP3   OH270350   6.086   1.482  13.017  0.2392  0.1754  0.3803
16312TIP3    H170351   6.151   1.550  13.004  0.3827  0.5828  2.7497
16312TIP3    H270352   6.006   1.516  12.976  0.4559  1.5639  1.0555
16313TIP3   OH270353   0.344   0.748   3.592  0.2789  0.1345  0.0645
16313TIP3    H170354   0.277   0.681   3.578 -0.6816  0.0479  3.9357
16313TIP3    H270355   0.344   0.799   3.511 -1.9041 -1.9880 -1.4220
16314TIP3   OH270356   6.559   2.074  11.554 -0.4722  0.4666 -0.2146
16314TIP3    H170357   6.575   2.030  11.638  0.5520  0.9694 -0.1194
16314TIP3    H270358   6.471   2.048  11.529 -0.3657 -0.6047  0.4630
16315TIP3   OH270359   1.102   3.536  13.061  0.2154  0.4994 -0.1276
16315TIP3    H170360   1.134   3.598  12.996 -0.1316  0.6675 -0.1415
16315TIP3    H270361   1.167   3.539  13.132  0.8408 -0.0357 -0.6705
16316TIP3   OH270362   0.599   5.535   5.803  0.4508  0.1266 -0.2608
16316TIP3    H170363   0.561   5.542   5.891  0.9486 -0.5614  0.0225
16316TIP3    H270364   0.656   5.458   5.808 -0.8367 -0.9700 -1.6971
16317TIP3   OH270365   5.510   3.879  10.703 -0.5095  0.3146 -0.5918
16317TIP3    H170366   5.465   3.956  10.668  0.4872  1.7788  1.1169
16317TIP3    H270367   5.448   3.840  10.764 -0.4341  0.7945 -0.1952
16318TIP3   OH270368   4.018   4.220   2.197 -0.9060  0.4045 -0.5251
16318TIP3    H170369   3.982   4.296   2.243 -1.2103  0.9501 -1.6362
16318TIP3    H270370   3.966   4.146   2.229 -2.1114  0.9846 -1.0739
16319TIP3   OH270371   5.684   0.824   6.585 -0.1602 -0.1959 -0.0601
16319TIP3    H170372   5.591   0.825   6.609  0.0226  0.3787  0.6714
16319TIP3    H270373   5.730   0.842   6.668  0.5650  0.4729 -0.5940
16320TIP3   OH270374   1.839   3.802   5.946 -0.2689  0.0871 -0.7890
16320TIP3    H170375   1.926   3.765   5.962  0.9306  2.5587 -1.0703
16320TIP3    H270376   1.794   3.795   6.030  0.2773 -0.9928 -0.5640
16321TIP3   OH270377   5.847   3.031   6.117  0.5702  0.2067 -0.7261
16321TIP3    H170378   5.883   2.948   6.085  0.9700 -0.3312  1.0092
16321TIP3    H270379   5.917   3.068   6.170  0.1329  1.3264 -0.9183
16322TIP3   OH270380   1.660   6.180  14.277  0.1588  0.1010  0.8667
16322TIP3    H170381   1.602   6.207  14.206  1.7169  0.5960 -0.2832
16322TIP3    H270382   1.675   6.087  14.262 -0.2152  0.0062  1.0774
16323TIP3   OH270383   1.062   0.303   1.696 -0.7505 -0.3738  0.0885
16323TIP3    H170384   1.006   0.278   1.770 -1.4663  0.3444 -0.1916
16323TIP3    H270385   1.008   0.286   1.619 -0.7835  0.8072 -0.1625
16324TIP3   OH270386   6.394   5.050  13.692  0.2675 -0.0638 -0.0925
16324TIP3    H170387   6.458   5.002  13.744  0.6145 -1.2243 -1.4982
16324TIP3    H270388   6.376   4.992  13.617 -1.7785  0.6076 -0.1872
16325TIP3   OH270389   0.769   4.050   2.280  0.1561 -0.1329  0.4391
16325TIP3    H170390   0.798   4.068   2.190  1.7864  0.9393  1.1226
16325TIP3    H270391   0.674   4.057   2.277  0.2365  0.7407 -1.0332
16326TIP3   OH270392   6.001   2.891   0.354  0.0610 -0.5198 -0.0971
16326TIP3    H170393   5.945   2.816   0.374 -0.2945 -0.2098  0.0863
16326TIP3    H270394   6.052   2.864   0.277 -0.0157 -0.9711  0.0120
16327TIP3   OH270395   0.201   5.470  15.494 -0.6826  0.4497 -0.1417
16327TIP3    H170396   0.177   5.509  15.578 -2.7922  0.0347 -0.5007
16327TIP3    H270397   0.169   5.531  15.428 -1.1215 -0.3145 -0.6620
16328TIP3   OH270398   3.263   1.580   2.959 -0.3120  0.1193 -0.4890
16328TIP3    H170399   3.308   1.518   3.015 -1.8768 -0.3657  0.3028
16328TIP3    H270400   3.244   1.531   2.879  0.1225  0.1842 -0.6360
16329TIP3   OH270401   5.257   4.173   1.213  0.3687 -0.2026 -0.6878
16329TIP3    H170402   5.197   4.222   1.269 -0.2670 -0.3155 -1.2559
16329TIP3    H270403   5.290   4.102   1.269 -0.9211 -0.8344 -0.6834
16330TIP3   OH270404   3.492   1.274   2.653  0.5180  0.2636 -0.2749
16330TIP3    H170405   3.548   1.325   2.713  0.5263  0.6691 -0.6278
16330TIP3    H270406   3.544   1.196   2.634  0.5846  0.2065  0.1179
16331TIP3   OH270407   2.246   1.238  11.672 -0.1555  0.5256 -0.2851
16331TIP3    H170408   2.208   1.322  11.647 -1.4608 -0.2610 -1.0473
16331TIP3    H270409   2.177   1.195  11.723 -0.4745 -1.0718 -1.9759
16332TIP3   OH270410   3.642   3.364   5.762 -0.2285 -0.5084  0.5358
16332TIP3    H170411   3.655   3.285   5.814 -2.4887 -0.8126  0.7163
16332TIP3    H270412   3.568   3.344   5.705  1.6119  0.1142 -2.3059
16333TIP3   OH270413   3.975   4.131  14.477  0.9691 -0.1971 -0.2423
16333TIP3    H170414   4.031   4.055  14.489  0.5032 -0.7005 -1.1665
16333TIP3    H270415   3.945   4.153  14.566  1.5184 -0.7697  0.0871
16334TIP3   OH270416   2.776   6.544  12.767  0.1830  0.1837 -1.0778
16334TIP3    H170417   2.753   6.544  12.675  2.4284  0.3703 -1.7035
16334TIP3    H270418   2.715   6.482  12.807 -0.8280  0.0934 -2.6754
16335TIP3   OH270419   6.568   0.271  14.176  0.1669  0.2986  0.0155
16335TIP3    H170420   6.557   0.229  14.091 -1.8919 -0.6941  0.7234
16335TIP3    H270421   6.504   0.342  14.176  0.2045  0.3355  0.7040
16336TIP3   OH270422   4.301   6.256   3.444  0.1852  0.3764 -0.4475
16336TIP3    H170423   4.218   6.208   3.438  1.1406 -1.1635 -2.4804
16336TIP3    H270424   4.300   6.294   3.531 -1.7872 -1.2546  0.3262
16337TIP3   OH270425   1.311   0.220   6.875  0.4260 -0.1942 -0.5241
16337TIP3    H170426   1.271   0.287   6.931  3.0864  2.2141 -1.3183
16337TIP3    H270427   1.280   0.241   6.787 -4.5169 -4.5236 -0.3336
16338TIP3   OH270428   5.142   4.055  11.469  0.4737  0.1836 -0.0477
16338TIP3    H170429   5.188   3.985  11.513 -0.4132  0.0257  0.6648
16338TIP3    H270430   5.098   4.013  11.395  0.6193  0.1401 -0.1085
16339TIP3   OH270431   1.531   2.811  11.353  0.7157  0.0241  0.6210
16339TIP3    H170432   1.558   2.745  11.416  0.2376 -1.1959 -0.4203
16339TIP3    H270433   1.567   2.782  11.270 -2.2657 -0.8081 -0.5187
16340TIP3   OH270434   4.112   0.245   4.558 -0.1931  0.3381 -0.0129
16340TIP3    H170435   4.177   0.212   4.496  0.2494  0.2671  0.4829
16340TIP3    H270436   4.056   0.302   4.505 -0.9095 -1.0919 -0.8564
16341TIP3   OH270437   3.825   4.061   1.407 -0.5475  0.4581 -0.1251
16341TIP3    H170438   3.854   4.123   1.341  1.0397 -0.7594 -0.6371
16341TIP3    H270439   3.736   4.089   1.429 -1.8159  0.0114 -3.9086
16342TIP3   OH270440   6.522   2.048  15.369 -0.7499 -0.3948 -0.8386
16342TIP3    H170441   6.436   2.086  15.387 -0.9230 -1.1802  0.0768
16342TIP3    H270442   6.570   2.118  15.325 -1.0644  0.8978  0.7552
16343TIP3   OH270443   3.267   4.304  13.566 -0.1897 -0.0182  0.5188
16343TIP3    H170444   3.328   4.245  13.521 -1.0071  0.1675 -0.8965
16343TIP3    H270445   3.246   4.371  13.501 -0.3701  1.0431  1.6407
16344TIP3   OH270446   5.582   3.205  12.888  0.3606  0.8982  0.3609
16344TIP3    H170447   5.671   3.172  12.875 -0.6244 -1.6212 -0.6928
16344TIP3    H270448   5.529   3.126  12.900 -1.9591  2.2288 -0.4939
16345TIP3   OH270449   2.859   3.358   3.375 -0.4893 -0.3435 -0.0894
16345TIP3    H170450   2.947   3.346   3.412 -1.5542 -1.6396  2.2624
16345TIP3    H270451   2.867   3.436   3.320  2.3526 -1.0269 -0.8019
16346TIP3   OH270452   5.863   6.528  11.557  0.1141  0.0562 -0.9468
16346TIP3    H170453   5.777   6.562  11.581  0.3159  0.0981 -0.2602
16346TIP3    H270454   5.901   6.595  11.501 -0.4194 -0.1023 -1.5076
16347TIP3   OH270455   3.646   6.090  11.522 -0.0175 -0.6243 -0.5257
16347TIP3    H170456   3.582   6.078  11.592 -0.9619 -0.2124 -1.3075
16347TIP3    H270457   3.701   6.012  11.527  0.2605 -0.3677  0.9999
16348TIP3   OH270458   3.151   6.781  13.487  0.0246 -0.4655  0.1261
16348TIP3    H170459   3.060   6.757  13.501 -0.1892  0.8050  1.0522
16348TIP3    H270460   3.160   6.788  13.392 -0.3109 -2.4592 -0.1072
16349TIP3   OH270461   5.521   2.118   2.762  0.0295 -0.4304  0.1500
16349TIP3    H170462   5.545   2.211   2.772  0.7065 -0.6473  0.6735
16349TIP3    H270463   5.445   2.106   2.818  0.7686 -0.4900  1.1612
16350TIP3   OH270464   4.402   3.784  13.736 -0.1762 -0.0381  0.4225
16350TIP3    H170465   4.396   3.846  13.809 -0.4294  1.0782 -0.5066
16350TIP3    H270466   4.332   3.812  13.675  0.3014 -0.6649 -0.4370
16351TIP3   OH270467   0.767   0.996  16.220 -0.2486 -0.0266 -0.0419
16351TIP3    H170468   0.742   0.969  16.131 -0.6119  0.4897 -0.1013
16351TIP3    H270469   0.812   1.079  16.208  0.1033 -0.1766  0.2214
16352TIP3   OH270470   3.395   6.332   2.020  0.1188 -0.4038 -0.0599
16352TIP3    H170471   3.361   6.278   1.949  1.4100 -0.2512 -0.8155
16352TIP3    H270472   3.406   6.419   1.981  0.7595 -0.2972  0.3495
16353TIP3   OH270473   5.403   5.945  11.099 -0.4533  0.5001 -0.2653
16353TIP3    H170474   5.359   5.936  11.183 -0.5832 -1.3243 -0.4828
16353TIP3    H270475   5.333   5.961  11.037 -0.6378 -0.4317 -0.3227
16354TIP3   OH270476   3.504   4.432   1.402  0.1651 -0.1390 -0.1049
16354TIP3    H170477   3.509   4.463   1.311  0.1271 -2.0804 -0.8278
16354TIP3    H270478   3.549   4.347   1.400 -2.5215 -1.7131  0.9669
16355TIP3   OH270479   4.513   5.469   1.683 -0.1835 -0.0770  0.1210
16355TIP3    H170480   4.482   5.552   1.720 -0.6912  0.3204 -1.1512
16355TIP3    H270481   4.524   5.487   1.589  1.0157 -1.0642  0.0370
16356TIP3   OH270482   5.429   1.042   4.614 -0.3961 -0.2433 -0.0877
16356TIP3    H170483   5.363   0.999   4.560 -0.2967 -0.7404  0.1800
16356TIP3    H270484   5.378   1.100   4.672 -0.7980 -1.9087  1.3319
16357TIP3   OH270485   2.401   0.362  14.714  0.6107  0.0652  0.1061
16357TIP3    H170486   2.328   0.320  14.669  0.0576  0.6575  0.4203
16357TIP3    H270487   2.479   0.314  14.686 -0.0496 -1.5367  0.8974
16358TIP3   OH270488   4.824   5.147   2.505  0.0625 -0.1399 -0.8873
16358TIP3    H170489   4.772   5.151   2.586  2.7106  2.5010  0.9000
16358TIP3    H270490   4.850   5.055   2.498 -0.7979 -0.5734  0.8922
16359TIP3   OH270491   3.340   1.854   4.936 -0.2571 -0.3434  0.1292
16359TIP3    H170492   3.360   1.792   4.865  0.7182 -0.3665  0.4204
16359TIP3    H270493   3.408   1.838   5.001 -0.1301  0.8879  0.3058
16360TIP3   OH270494   3.195   3.382  16.978  0.0730 -0.2728  0.2052
16360TIP3    H170495   3.107   3.356  16.950 -0.0557 -0.0499  0.4101
16360TIP3    H270496   3.231   3.303  17.020 -1.4159  0.7023  3.5548
16361TIP3   OH270497   3.399   2.299   5.032 -0.7393 -0.6426  0.3760
16361TIP3    H170498   3.320   2.349   5.009 -1.4060 -1.6678  0.3598
16361TIP3    H270499   3.424   2.256   4.951  0.7805  0.8784 -0.0233
16362TIP3   OH270500   3.931   6.519  17.140 -0.0528 -0.8114 -0.0898
16362TIP3    H170501   3.863   6.586  17.139 -0.9920 -1.7412 -0.8347
16362TIP3    H270502   3.893   6.448  17.191  0.4578 -1.2480 -0.3133
16363TIP3   OH270503   6.545   6.005   4.834  0.7026  0.2572  0.2960
16363TIP3    H170504   6.548   5.970   4.923  1.4648 -0.2309  0.0918
16363TIP3    H270505   6.563   6.098   4.845  0.9250  0.1766  0.6421
16364TIP3   OH270506   0.303   1.512   3.559  0.0273 -0.5958 -0.3982
16364TIP3    H170507   0.285   1.461   3.638  0.1242  1.9593  1.3886
16364TIP3    H270508   0.348   1.590   3.591  1.6402 -0.2345 -3.1985
16365TIP3   OH270509   5.027   4.249   2.718  0.2724  0.9791 -0.0467
16365TIP3    H170510   4.952   4.202   2.756  0.6108  0.7046  0.2881
16365TIP3    H270511   5.013   4.243   2.624 -0.1571  0.9745  0.0145
16366TIP3   OH270512   2.557   5.672  12.545 -0.1031  0.2959 -0.1152
16366TIP3    H170513   2.621   5.602  12.553  0.0663  0.2558 -1.5577
16366TIP3    H270514   2.574   5.729  12.620  1.4161  0.1242 -0.3048
16367TIP3   OH270515   6.214   2.092   0.405 -0.0404 -0.0402  0.1870
16367TIP3    H170516   6.192   2.075   0.314  1.2329 -1.8491  0.1801
16367TIP3    H270517   6.130   2.114   0.446 -0.5992  1.0430 -1.4306
16368TIP3   OH270518   0.765   4.828  13.838 -0.2947 -0.1088  0.0500
16368TIP3    H170519   0.777   4.904  13.896 -2.7208  0.7337 -0.4081
16368TIP3    H270520   0.819   4.759  13.876  0.2488  1.2056  1.7720
16369TIP3   OH270521   5.141   2.064  13.818 -0.0651 -0.6141  0.4407
16369TIP3    H170522   5.203   2.127  13.855  0.0831 -0.2259 -0.4305
16369TIP3    H270523   5.074   2.118  13.776  1.2943 -0.9352 -2.4097
16370TIP3   OH270524   3.439   1.533   4.454 -0.0164  0.2947  0.1744
16370TIP3    H170525   3.529   1.553   4.481  0.1471 -1.0157  0.6901
16370TIP3    H270526   3.412   1.609   4.403  1.7951  0.2275 -0.9900
16371TIP3   OH270527   5.407   1.926   1.534 -0.1714  0.0138 -0.0073
16371TIP3    H170528   5.428   1.844   1.579  0.5691  0.1160 -0.1657
16371TIP3    H270529   5.450   1.918   1.449  0.1538  0.6934  0.0921
16372TIP3   OH270530   1.575   1.971  14.092  0.1464  0.7023  0.7016
16372TIP3    H170531   1.624   1.906  14.141  0.0963 -0.8306 -1.1558
16372TIP3    H270532   1.500   1.993  14.148 -0.1874 -1.3520  1.1120
16373TIP3   OH270533   3.739   3.805   0.004 -0.0455 -0.4243 -0.0092
16373TIP3    H170534   3.762   3.712  -0.004 -1.6571 -0.9102  0.4105
16373TIP3    H270535   3.701   3.812   0.092 -2.2453  0.0563 -0.9304
16374TIP3   OH270536   3.965   2.975   5.929 -0.4618  0.1913  0.5337
16374TIP3    H170537   4.058   2.983   5.910 -0.8599  1.5095 -1.0712
16374TIP3    H270538   3.921   3.024   5.859 -2.4844 -2.4197 -0.1891
16375TIP3   OH270539   3.175   4.533   0.522  0.0653 -0.1149  0.1324
16375TIP3    H170540   3.220   4.518   0.605  0.5565  0.4912 -0.0145
16375TIP3    H270541   3.131   4.618   0.534  2.3507  1.3527 -1.1249
16376TIP3   OH270542   4.208   6.360   5.639 -0.3030 -0.7319 -0.2770
16376TIP3    H170543   4.176   6.441   5.679 -0.3136 -0.5809 -0.5941
16376TIP3    H270544   4.268   6.388   5.571  3.3540 -1.0009  2.5063
16377TIP3   OH270545   3.629   3.697   5.362  0.1320  0.5210 -0.1468
16377TIP3    H170546   3.563   3.650   5.311 -0.0984 -0.3397  0.9019
16377TIP3    H270547   3.600   3.788   5.363  0.1862  0.5754 -1.5930
16378TIP3   OH270548   4.844   2.021  16.416 -0.2666 -0.4100 -0.6838
16378TIP3    H170549   4.815   2.112  16.423  1.5610  0.1755 -0.2835
16378TIP3    H270550   4.829   1.984  16.503  2.1090  0.5238  0.1813
16379TIP3   OH270551   1.337   0.369  15.829 -0.3861  0.5525 -0.7032
16379TIP3    H170552   1.277   0.431  15.871 -1.1001  0.3015 -1.3387
16379TIP3    H270553   1.401   0.424  15.785 -0.2465  0.8231 -0.1778
16380TIP3   OH270554   0.975   2.404   3.986  0.3018 -0.1706  0.0287
16380TIP3    H170555   1.058   2.378   3.946  0.8970  0.8348  0.5590
16380TIP3    H270556   0.965   2.346   4.061  1.3572  0.7376  0.9048
16381TIP3   OH270557   4.584   1.751   2.596 -0.6619  0.5717 -0.1309
16381TIP3    H170558   4.614   1.674   2.645 -0.8967  0.7102  0.2308
16381TIP3    H270559   4.640   1.752   2.518  0.2959  0.8307  0.5393
16382TIP3   OH270560   4.522   2.923   3.463 -0.1416 -0.3586 -0.1791
16382TIP3    H170561   4.498   2.945   3.373 -0.2917  1.8488  0.3374
16382TIP3    H270562   4.606   2.879   3.455 -1.0284 -1.9746 -1.4957
16383TIP3   OH270563   0.917   2.933  14.620  0.1184  0.1630  1.0581
16383TIP3    H170564   0.842   2.881  14.592  0.0210  0.2002  1.2472
16383TIP3    H270565   0.969   2.873  14.674  0.2019  0.1497  0.9627
16384TIP3   OH270566   1.176   4.182   5.892  0.5505  0.1928 -0.2797
16384TIP3    H170567   1.232   4.154   5.964 -0.0255  0.0492  0.1207
16384TIP3    H270568   1.191   4.276   5.884 -1.7113  0.8950  2.1615
16385TIP3   OH270569   3.999   1.656  14.687 -0.0416 -0.1434  0.0257
16385TIP3    H170570   4.006   1.715  14.613 -0.4934 -0.2199 -0.0816
16385TIP3    H270571   3.917   1.609  14.673  1.2643 -2.3114 -1.0219
16386TIP3   OH270572   2.163   4.857   4.591 -0.6510 -0.4189 -0.5664
16386TIP3    H170573   2.090   4.857   4.529 -0.8129  1.0824 -0.4123
16386TIP3    H270574   2.147   4.781   4.647 -1.4406 -0.7997 -1.2849
16387TIP3   OH270575   4.910   5.597  16.093  0.1288  0.1178  0.2446
16387TIP3    H170576   5.003   5.595  16.074  0.0671 -0.8930 -0.0444
16387TIP3    H270577   4.870   5.630  16.012  0.2006  0.0725  0.1901
16388TIP3   OH270578   0.688   0.732  11.872  1.0935 -0.0295  0.7550
16388TIP3    H170579   0.770   0.780  11.863  1.1565 -0.2982 -0.1792
16388TIP3    H270580   0.692   0.694  11.960  1.5504  0.7132  1.0647
16389TIP3   OH270581   5.602   1.546   0.287 -0.2653  0.2431  0.1048
16389TIP3    H170582   5.683   1.584   0.320 -0.3094  1.2107 -0.8717
16389TIP3    H270583   5.629   1.481   0.222 -0.2334 -0.6274  0.9612
16390TIP3   OH270584   6.687   1.577  11.061 -0.3971  0.2944  0.4720
16390TIP3    H170585   6.685   1.557  11.155 -1.7189  0.3041  0.4529
16390TIP3    H270586   6.674   1.672  11.057  1.0250  0.5109  0.3214
16391TIP3   OH270587   2.304   1.093   0.181 -0.2160 -0.1445  0.4641
16391TIP3    H170588   2.347   1.165   0.135 -1.8735  0.3284 -0.4649
16391TIP3    H270589   2.272   1.036   0.111 -2.7611  0.5641  0.9352
16392TIP3   OH270590   4.726   0.894   5.162  0.1850 -0.1208 -0.5103
16392TIP3    H170591   4.744   0.958   5.093  0.6809 -0.1925 -0.4522
16392TIP3    H270592   4.654   0.840   5.127 -0.2551  0.4812 -0.5463
16393TIP3   OH270593   0.155   3.787  15.982  0.1408  0.1220 -0.3869
16393TIP3    H170594   0.093   3.806  15.911 -1.5714  0.8660  1.2030
16393TIP3    H270595   0.100   3.785  16.061  2.3010  2.2422  1.3421
16394TIP3   OH270596   5.073   6.505   4.519  0.0210  0.1917  0.4921
16394TIP3    H170597   5.096   6.452   4.443  2.5449  1.2688  0.3779
16394TIP3    H270598   5.043   6.443   4.585 -0.7081 -0.9262 -0.8611
16395TIP3   OH270599   1.564   4.145   5.571  0.1655  0.4732 -0.1940
16395TIP3    H170600   1.583   4.056   5.541  0.0817  0.1072  0.7761
16395TIP3    H270601   1.500   4.133   5.641  0.4621  1.2621  0.2203
16396TIP3   OH270602   0.717   1.256   2.183  0.6600 -0.0376 -0.3364
16396TIP3    H170603   0.694   1.234   2.092 -0.8577  0.5282 -0.1268
16396TIP3    H270604   0.786   1.321   2.175  0.1371  0.4503 -1.1195
16397TIP3   OH270605   5.228   5.676   5.044  0.0779  1.1562  0.5608
16397TIP3    H170606   5.259   5.765   5.063  2.9034  0.8882 -2.0599
16397TIP3    H270607   5.308   5.625   5.032 -1.4719 -1.3042 -0.0059
16398TIP3   OH270608   2.928   0.439  17.229 -0.1052 -0.2637  0.4926
16398TIP3    H170609   2.838   0.415  17.205 -0.0640 -0.1709  0.2431
16398TIP3    H270610   2.983   0.383  17.174  0.0009 -1.1358  1.4444
16399TIP3   OH270611   5.229   4.873  11.809  0.4265 -0.4608 -0.6817
16399TIP3    H170612   5.219   4.831  11.895  1.0772 -0.7641 -0.7460
16399TIP3    H270613   5.259   4.962  11.829  0.1518 -0.3893 -0.5827
16400TIP3   OH270614   0.931   3.322  16.905  0.0586  0.5067  0.0555
16400TIP3    H170615   0.881   3.266  16.845  0.2585  0.8033 -0.3892
16400TIP3    H270616   0.964   3.261  16.971 -0.3395  0.2077 -0.0101
16401TIP3   OH270617   2.604   5.989  15.413  0.1439 -0.0878 -0.0447
16401TIP3    H170618   2.664   6.040  15.359  0.3189  0.4134  0.6027
16401TIP3    H270619   2.635   6.002  15.503 -1.2828  0.7028  0.3829
16402TIP3   OH270620   1.800   0.091   4.991 -0.3983 -0.5906  0.6251
16402TIP3    H170621   1.859   0.130   5.055  0.6884 -0.3999 -0.4553
16402TIP3    H270622   1.740   0.161   4.966 -2.3074 -1.2300  3.0116
16403TIP3   OH270623   6.174   1.018  15.990 -0.2473  0.3901 -0.0611
16403TIP3    H170624   6.203   1.044  16.078  0.4834  1.4113 -0.5877
16403TIP3    H270625   6.084   1.049  15.985 -0.5971 -0.4709  0.6383
16404TIP3   OH270626   3.892   3.104   5.703 -0.1995  0.0076 -0.5311
16404TIP3    H170627   3.867   3.098   5.611 -1.6894  0.9314 -0.2242
16404TIP3    H270628   3.836   3.173   5.738 -0.8392 -1.4396  1.4597
16405TIP3   OH270629   6.223   6.611  13.009 -0.3417  0.2167  0.2317
16405TIP3    H170630   6.149   6.614  13.069 -0.2405  0.4289  0.3493
16405TIP3    H270631   6.248   6.703  12.997 -0.5838  0.2021 -0.4133
16406TIP3   OH270632   2.932   3.737  14.209 -0.0194 -0.3083 -0.0164
16406TIP3    H170633   2.978   3.765  14.288 -0.3370  0.1921 -0.0047
16406TIP3    H270634   2.839   3.748  14.230 -0.0932  0.8348 -0.8000
16407TIP3   OH270635   0.391   0.197  12.342 -0.3582  0.2031  0.1828
16407TIP3    H170636   0.450   0.176  12.414  1.3324 -1.4431 -1.5582
16407TIP3    H270637   0.308   0.155  12.366  0.2182 -0.4311  1.1223
16408TIP3   OH270638   5.464   0.874   1.806 -0.1572  0.6682  0.7920
16408TIP3    H170639   5.393   0.811   1.794  0.1770  0.0041  2.1167
16408TIP3    H270640   5.475   0.880   1.901  0.4511  2.0213  0.6613
16409TIP3   OH270641   1.501   1.592  16.772 -0.4835  0.3741 -0.3687
16409TIP3    H170642   1.588   1.631  16.762 -0.2554  0.3431  1.1964
16409TIP3    H270643   1.518   1.498  16.780 -0.8020  0.2112 -1.5433
16410TIP3   OH270644   0.709   4.650   6.788 -0.5924  0.2761 -0.3623
16410TIP3    H170645   0.625   4.660   6.743 -0.2660  1.5227 -0.7363
16410TIP3    H270646   0.749   4.737   6.783 -0.2386  0.2887  1.7720
16411TIP3   OH270647   2.465   5.070  12.544  0.1862 -0.0267 -0.4236
16411TIP3    H170648   2.424   5.063  12.458  0.8560  0.6670 -0.8029
16411TIP3    H270649   2.555   5.040  12.531  0.3446  0.2596 -0.0129
16412TIP3   OH270650   2.572   3.608  12.037 -0.1743 -0.5222  0.1348
16412TIP3    H170651   2.612   3.642  11.957 -0.4035 -0.0567  0.2169
16412TIP3    H270652   2.480   3.634  12.031 -0.2825 -0.8520  0.3507
16413TIP3   OH270653   4.751   0.626  12.989 -0.1621  0.2825  0.2063
16413TIP3    H170654   4.749   0.702  12.931  0.1618  0.1103 -0.0337
16413TIP3    H270655   4.659   0.605  13.005 -0.2499  0.2396 -0.3578
16414TIP3   OH270656   0.253   4.446  11.441 -0.6411  0.4577 -0.1896
16414TIP3    H170657   0.344   4.460  11.466 -0.6975 -0.6912  0.7242
16414TIP3    H270658   0.222   4.533  11.415  0.5774  0.9447 -0.0853
16415TIP3   OH270659   5.887   4.187  16.002  0.2369  0.4666 -0.2991
16415TIP3    H170660   5.813   4.234  15.965  1.8733  4.2832  0.8521
16415TIP3    H270661   5.964   4.236  15.972  2.1443 -1.5582  0.9633
16416TIP3   OH270662   5.674   1.471   2.052 -0.6367  0.1536  0.4739
16416TIP3    H170663   5.744   1.534   2.038 -1.2791  0.5653 -1.1020
16416TIP3    H270664   5.595   1.515   2.021 -1.3310 -0.9207  0.6398
16417TIP3   OH270665   2.822   0.536  12.636  0.1840  0.5904  0.0689
16417TIP3    H170666   2.831   0.537  12.541  0.3138  0.2552  0.0784
16417TIP3    H270667   2.909   0.561  12.669  0.1658  0.6119  0.1008
16418TIP3   OH270668   3.535   5.625   4.980 -0.2031 -0.1539 -0.6243
16418TIP3    H170669   3.487   5.560   5.031  0.2019  0.3814  0.4813
16418TIP3    H270670   3.544   5.700   5.039  0.4425  0.4197 -1.4266
16419TIP3   OH270671   5.894   2.996   0.847  0.4734  0.4893 -0.3294
16419TIP3    H170672   5.983   2.964   0.829  0.4302 -0.3671  0.8696
16419TIP3    H270673   5.837   2.926   0.816  0.1899  1.1277 -1.2852
16420TIP3   OH270674   5.576   4.911  17.105 -0.4273  0.0447  0.8866
16420TIP3    H170675   5.627   4.986  17.137 -1.9064  0.9548  1.2579
16420TIP3    H270676   5.488   4.925  17.142 -1.1745 -0.9799 -0.4124
16421TIP3   OH270677   3.600   0.467  13.109  0.4351  0.1650 -0.3620
16421TIP3    H170678   3.573   0.378  13.086  0.4583  0.4928 -1.7328
16421TIP3    H270679   3.695   0.462  13.119  0.2620 -0.3341  1.4332
16422TIP3   OH270680   1.915   1.197  15.931  0.5059  0.2591 -0.2272
16422TIP3    H170681   1.859   1.273  15.922 -1.0654 -0.5846  1.8044
16422TIP3    H270682   1.974   1.218  16.004 -0.3015 -0.6403  0.7102
16423TIP3   OH270683   2.022   1.374  14.719 -0.6121 -0.3205  0.0047
16423TIP3    H170684   2.037   1.322  14.641 -1.2165 -0.9459  0.2980
16423TIP3    H270685   2.078   1.334  14.786 -1.0348 -0.5596  0.2155
16424TIP3   OH270686   3.375   2.855   3.088 -0.5236  0.0636  0.0230
16424TIP3    H170687   3.377   2.950   3.091 -2.3123  0.1125  1.3446
16424TIP3    H270688   3.283   2.833   3.078 -0.1659 -1.5414 -0.0384
16425TIP3   OH270689   4.955   2.752   0.128  0.3665 -0.1666  0.0132
16425TIP3    H170690   4.949   2.757   0.033  0.1699 -0.8161 -0.0160
16425TIP3    H270691   4.888   2.811   0.160 -0.4121 -0.8817 -0.2655
16426TIP3   OH270692   6.260   5.455   2.362  0.6961  0.5740 -0.1603
16426TIP3    H170693   6.355   5.450   2.369  0.7597  1.8438  0.2924
16426TIP3    H270694   6.237   5.534   2.412 -0.6857 -0.2322  0.5483
16427TIP3   OH270695   3.148   6.196  14.094 -0.2873 -0.3253  0.0952
16427TIP3    H170696   3.097   6.115  14.100 -1.5106  0.4672  0.9075
16427TIP3    H270697   3.184   6.196  14.006 -0.3891 -1.6820  0.0365
16428TIP3   OH270698   1.748   5.425  13.358  0.7670  0.0395  0.1501
16428TIP3    H170699   1.742   5.333  13.334  0.4901 -0.1730  1.0036
16428TIP3    H270700   1.738   5.473  13.275  0.9314 -0.6908 -0.2958
16429TIP3   OH270701   4.872   2.785   0.503 -0.0936  0.3758  0.2975
16429TIP3    H170702   4.829   2.870   0.499  0.8761  0.8620 -0.0711
16429TIP3    H270703   4.960   2.801   0.469  0.2044 -0.7068  0.5277
16430TIP3   OH270704   4.674   6.643  11.876 -0.1760  0.0004 -0.3945
16430TIP3    H170705   4.716   6.713  11.826  1.6014 -0.1353  0.7920
16430TIP3    H270706   4.583   6.671  11.885  0.2285  1.5989 -0.9207
16431TIP3   OH270707   3.784   0.119  10.745 -0.7779 -0.2058  0.3511
16431TIP3    H170708   3.831   0.050  10.698 -0.8785 -1.2529  1.7045
16431TIP3    H270709   3.714   0.145  10.685  0.0822 -0.3046 -0.7289
16432TIP3   OH270710   5.513   5.141  15.067 -0.1732 -0.2742  0.3989
16432TIP3    H170711   5.579   5.154  15.134 -1.0505  0.6212  1.1205
16432TIP3    H270712   5.482   5.229  15.046  0.7418 -0.4403 -1.8967
16433TIP3   OH270713   5.620   6.407   3.603  0.1548  0.3732  0.4072
16433TIP3    H170714   5.584   6.326   3.567 -1.9084  1.3674  0.0774
16433TIP3    H270715   5.674   6.378   3.676 -0.7100 -1.3081  0.4397
16434TIP3   OH270716   1.471   0.765  13.951  0.4793  0.8107  0.1506
16434TIP3    H170717   1.491   0.681  13.993  1.1517  1.1253  0.4714
16434TIP3    H270718   1.402   0.744  13.888  1.1632 -0.1401 -0.3180
16435TIP3   OH270719   5.617   4.271  11.924 -0.1601 -0.0907 -0.0511
16435TIP3    H170720   5.602   4.288  12.017 -2.5608 -0.2548 -0.3439
16435TIP3    H270721   5.530   4.270  11.885  0.7797  0.1542 -2.3652
16436TIP3   OH270722   5.560   0.390   5.030  0.4310  0.1537  0.3928
16436TIP3    H170723   5.596   0.442   4.959 -0.0636 -2.0180 -1.5872
16436TIP3    H270724   5.496   0.448   5.072  0.1019  1.2524 -1.5006
16437TIP3   OH270725   5.059   2.617   5.572  0.0777  0.1364 -0.3336
16437TIP3    H170726   4.978   2.637   5.525  0.1205 -0.6863 -0.7721
16437TIP3    H270727   5.054   2.524   5.590 -0.2639  0.5490  1.9604
16438TIP3   OH270728   6.428   5.657  15.136  0.8041  0.2312  0.0182
16438TIP3    H170729   6.381   5.602  15.073  1.2959 -0.2082  0.0349
16438TIP3    H270730   6.458   5.597  15.203 -0.1623  0.7665  0.9630
16439TIP3   OH270731   5.877   2.531   1.211  0.4805  0.4197  0.4889
16439TIP3    H170732   5.795   2.486   1.192 -0.2324  1.5832  0.7039
16439TIP3    H270733   5.865   2.567   1.299  1.1190  0.8247  0.4180
16440TIP3   OH270734   5.439   4.063  11.771  0.2208 -0.0105 -0.4578
16440TIP3    H170735   5.381   4.139  11.778  2.0637  1.5372 -0.8879
16440TIP3    H270736   5.506   4.090  11.708  3.1517 -0.4063  2.1826
16441TIP3   OH270737   2.208   5.178   0.218  0.1650  0.6719  0.2186
16441TIP3    H170738   2.126   5.130   0.221  0.7839 -0.4799 -0.4793
16441TIP3    H270739   2.218   5.216   0.305 -0.9512  0.5931  0.3883
16442TIP3   OH270740   5.464   3.714  11.922  0.1030  0.3694 -0.2253
16442TIP3    H170741   5.447   3.731  11.829 -1.6732 -0.1371 -0.0400
16442TIP3    H270742   5.534   3.648  11.922  1.0969  1.3905 -1.1390
16443TIP3   OH270743   3.005   1.085  10.747  0.0809 -0.5529  0.4086
16443TIP3    H170744   3.072   1.137  10.700 -0.9792 -0.5670 -1.1939
16443TIP3    H270745   3.054   1.012  10.784  1.2864  0.5107  1.0134
16444TIP3   OH270746   4.159   3.303   2.819 -0.4745  0.4281  0.1902
16444TIP3    H170747   4.230   3.310   2.755 -0.6285  0.3642  0.0091
16444TIP3    H270748   4.203   3.301   2.904 -0.1824 -0.8578  0.0280
16445TIP3   OH270749   6.692   4.502   3.121  0.0785 -0.2104  0.5853
16445TIP3    H170750   6.781   4.473   3.101  1.4032  2.1845  2.4311
16445TIP3    H270751   6.677   4.473   3.211 -0.1140  1.2042  1.0402
16446TIP3   OH270752   3.937   2.947  16.937  0.3543 -0.5679 -0.0481
16446TIP3    H170753   3.938   3.042  16.946  1.7339 -0.6999  1.5346
16446TIP3    H270754   3.975   2.930  16.851  1.5948  0.2802  0.3111
16447TIP3   OH270755   0.325   4.985   0.462 -0.4903 -0.1090 -0.4402
16447TIP3    H170756   0.418   5.004   0.464 -0.2383 -1.1727 -1.0448
16447TIP3    H270757   0.313   4.918   0.529 -0.0323 -2.9707 -3.0087
16448TIP3   OH270758   5.766   4.354  11.325  0.0321 -0.2175 -0.2192
16448TIP3    H170759   5.706   4.392  11.261 -1.4037 -1.4075  0.3444
16448TIP3    H270760   5.821   4.427  11.354 -1.1985  0.9391 -0.7346
16449TIP3   OH270761   0.372   2.306   4.309 -0.3308 -0.5675 -0.6786
16449TIP3    H170762   0.348   2.306   4.402  0.4158  0.2041 -0.4709
16449TIP3    H270763   0.292   2.281   4.264 -1.4204  1.3802  0.0271
16450TIP3   OH270764   4.744   2.439  14.693 -0.1236  0.3625  0.2785
16450TIP3    H170765   4.709   2.514  14.645  0.4943  0.6409  0.2467
16450TIP3    H270766   4.669   2.383  14.710 -0.3177  0.1390 -1.2287
16451TIP3   OH270767   4.345   3.622  12.163 -0.6227 -0.2482  0.0359
16451TIP3    H170768   4.416   3.559  12.153  1.0269  1.1912  1.8392
16451TIP3    H270769   4.316   3.640  12.074  1.7482 -0.4160 -0.8467
16452TIP3   OH270770   3.899   4.397   1.263  0.2947  0.1911 -0.4773
16452TIP3    H170771   3.857   4.447   1.193  0.7090  0.1138 -0.7806
16452TIP3    H270772   3.993   4.405   1.246  0.3450 -2.2901 -1.6468
16453TIP3   OH270773   0.019   0.156   0.479 -0.3602 -0.1683 -0.0160
16453TIP3    H170774  -0.071   0.183   0.495 -0.0764  0.4674  0.6003
16453TIP3    H270775   0.021   0.132   0.387 -1.1145 -0.0108 -0.0808
16454TIP3   OH270776   4.850   4.449   5.280 -0.4640  0.9858  0.0473
16454TIP3    H170777   4.806   4.517   5.331  0.3401  2.2298 -0.8297
16454TIP3    H270778   4.807   4.452   5.194  0.0073  0.8499 -0.1981
16455TIP3   OH270779   2.467   4.106   1.952 -0.5099 -0.2772  0.9037
16455TIP3    H170780   2.471   4.078   2.044 -0.6624 -2.5985  0.2502
16455TIP3    H270781   2.392   4.059   1.916  1.2917 -1.8008 -1.1269
16456TIP3   OH270782   0.356   3.176   0.602 -0.6231  0.6331  0.1674
16456TIP3    H170783   0.429   3.173   0.541 -0.4667 -0.4600  0.3812
16456TIP3    H270784   0.377   3.108   0.667 -1.1000  1.3296  1.0631
16457TIP3   OH270785   2.564   5.803  13.909 -0.1067 -0.7408  0.4304
16457TIP3    H170786   2.644   5.756  13.929  1.2493  1.9472  1.8232
16457TIP3    H270787   2.505   5.782  13.982 -0.8693 -2.8814 -0.6988
16458TIP3   OH270788   1.611   6.755   4.030  0.6281 -0.2265  0.0510
16458TIP3    H170789   1.559   6.729   4.106  1.3309 -0.6872  0.3772
16458TIP3    H270790   1.653   6.675   4.000  0.2132 -0.0844 -0.9448
16459TIP3   OH270791   4.178   5.190   6.093 -0.2006  0.3959 -0.5014
16459TIP3    H170792   4.269   5.220   6.082 -0.1495  0.6697  0.5511
16459TIP3    H270793   4.136   5.260   6.141 -0.8313  0.0208 -0.5021
16460TIP3   OH270794   6.366   3.590   0.814  0.2318 -0.5592  0.2391
16460TIP3    H170795   6.420   3.650   0.864  0.0919  0.6289 -0.9790
16460TIP3    H270796   6.281   3.634   0.806 -0.9404 -2.3075  1.9666
16461TIP3   OH270797   5.315   3.349   5.875  0.3039 -0.0910 -0.8560
16461TIP3    H170798   5.345   3.266   5.911 -1.3061 -0.5545 -0.5382
16461TIP3    H270799   5.222   3.338   5.861 -0.0838  1.8757 -0.2266
16462TIP3   OH270800   4.880   0.642   0.033  0.5969  0.1890 -0.5148
16462TIP3    H170801   4.922   0.667   0.115  0.5352  0.5491 -0.5905
16462TIP3    H270802   4.803   0.700   0.027  0.2525 -0.2661 -0.5168
16463TIP3   OH270803   2.886   4.515   1.821  0.1700 -0.3759 -0.1437
16463TIP3    H170804   2.902   4.436   1.874 -2.7009 -2.0093 -1.4301
16463TIP3    H270805   2.894   4.485   1.731  0.0667  1.0752 -0.6559
16464TIP3   OH270806   6.009   5.287  15.314  0.1101  0.5438  0.4165
16464TIP3    H170807   6.092   5.336  15.312  0.3079  0.2236  0.7849
16464TIP3    H270808   5.989   5.277  15.407 -0.6042  1.0522  0.3261
16465TIP3   OH270809   4.299   4.607   6.240  0.0232  0.0492 -0.4267
16465TIP3    H170810   4.247   4.640   6.313  0.6696 -0.4349  0.2665
16465TIP3    H270811   4.245   4.539   6.199  0.8872 -1.9816  1.5911
16466TIP3   OH270812   3.426   4.849  15.598  0.4658 -0.6620 -0.1700
16466TIP3    H170813   3.349   4.904  15.609  1.4318  0.9300 -0.9300
16466TIP3    H270814   3.461   4.874  15.512  1.4985 -1.7603 -0.0963
16467TIP3   OH270815   5.575   0.710  17.222  0.3772  0.1785 -0.2295
16467TIP3    H170816   5.548   0.654  17.150  0.9932  1.8454 -1.8400
16467TIP3    H270817   5.653   0.756  17.189 -0.5750  2.5887  0.6228
16468TIP3   OH270818   3.846   6.371   2.301 -0.1525  0.0754 -0.1654
16468TIP3    H170819   3.823   6.464   2.292  0.4071  0.1754 -0.6488
16468TIP3    H270820   3.765   6.324   2.281  0.1073  0.4045 -2.2974
16469TIP3   OH270821   5.221   5.664   6.819 -0.5396 -0.4594  0.0696
16469TIP3    H170822   5.235   5.579   6.778  1.1843  1.2522 -3.3252
16469TIP3    H270823   5.149   5.703   6.770 -1.2796  0.1007  1.5464
16470TIP3   OH270824   4.115   1.297   5.636 -0.2447  0.5100 -0.0127
16470TIP3    H170825   4.039   1.245   5.611 -1.2237  1.2939  1.2066
16470TIP3    H270826   4.189   1.251   5.597 -1.3652 -0.0100 -1.6529
16471TIP3   OH270827   1.504   4.103  12.594 -0.2471  0.3603  0.1116
16471TIP3    H170828   1.475   4.103  12.503 -2.2313 -2.2628  0.6269
16471TIP3    H270829   1.423   4.101  12.646  0.8231  1.3829  1.9384
16472TIP3   OH270830   6.593   3.525   4.624 -0.1801 -0.7049  0.5332
16472TIP3    H170831   6.580   3.594   4.688 -1.8906 -0.6776  0.1826
16472TIP3    H270832   6.618   3.448   4.675 -0.7472 -0.4828  1.1453
16473TIP3   OH270833   1.066   4.151  15.613  0.5734 -0.7435  0.1980
16473TIP3    H170834   1.049   4.057  15.619 -0.6633 -0.4822  2.0187
16473TIP3    H270835   1.107   4.164  15.528  0.4325 -2.8777 -0.2408
16474TIP3   OH270836   0.393   3.881  13.404 -0.3458 -0.2251 -0.1064
16474TIP3    H170837   0.359   3.964  13.439  0.5774 -0.1850  0.7627
16474TIP3    H270838   0.319   3.841  13.359 -1.1551  0.4747  0.5723
16475TIP3   OH270839   5.624   3.840  11.344  0.1472 -0.1451 -0.1332
16475TIP3    H170840   5.719   3.848  11.339  0.2930 -0.9229  1.0167
16475TIP3    H270841   5.603   3.772  11.279  0.3566  0.1103 -0.4725
16476TIP3   OH270842   6.226   6.692  14.580  0.0807  0.6009  0.4723
16476TIP3    H170843   6.196   6.734  14.660  2.3748 -0.5630  2.0429
16476TIP3    H270844   6.308   6.736  14.558  1.4154 -1.5084  0.9362
16477TIP3   OH270845   4.814   1.181  12.713 -0.1732  0.1799 -0.1004
16477TIP3    H170846   4.749   1.181  12.644  2.7195  1.4709 -3.1091
16477TIP3    H270847   4.790   1.254  12.769 -2.3207 -0.5917  0.0803
16478TIP3   OH270848   4.158   2.829  15.276  0.0664  0.0551 -0.1587
16478TIP3    H170849   4.248   2.860  15.291 -0.4365  1.0171  0.9936
16478TIP3    H270850   4.154   2.812  15.182  1.0627  1.2948 -0.4500
16479TIP3   OH270851   3.615   6.440  16.789 -0.0483  0.1191  0.4429
16479TIP3    H170852   3.676   6.367  16.775 -1.5114 -1.2013  0.6986
16479TIP3    H270853   3.603   6.444  16.884 -0.7857 -0.0033  0.3598
16480TIP3   OH270854   2.146   1.748  15.849  0.0001 -0.0663  0.4820
16480TIP3    H170855   2.089   1.684  15.807 -0.2674  1.5730 -1.8812
16480TIP3    H270856   2.127   1.740  15.943 -1.9605 -1.5695  0.0177
16481TIP3   OH270857   4.184   4.824  11.092 -0.0570 -0.4352  0.0840
16481TIP3    H170858   4.267   4.827  11.140 -1.2888 -0.1189  2.3491
16481TIP3    H270859   4.177   4.911  11.052  0.4199 -0.2348  0.4246
16482TIP3   OH270860   5.872   4.594   1.107  0.0265  0.2405  0.0961
16482TIP3    H170861   5.779   4.603   1.086 -0.1407 -0.5487  0.4802
16482TIP3    H270862   5.896   4.507   1.076  0.1757 -0.2859  1.6071
16483TIP3   OH270863   0.908   1.803   5.647 -0.4716 -0.4641 -0.0093
16483TIP3    H170864   0.816   1.830   5.643 -0.9072 -1.8364  0.2172
16483TIP3    H270865   0.930   1.809   5.740 -0.3504 -0.2252 -0.0517
16484TIP3   OH270866   6.037   0.781   2.604  0.3104 -0.0652  0.3892
16484TIP3    H170867   6.051   0.802   2.696  0.9738  0.0992  0.2510
16484TIP3    H270868   5.958   0.829   2.580  0.5533  0.4791  0.6753
16485TIP3   OH270869   5.865   0.608   2.268  0.5219  0.3319  0.0940
16485TIP3    H170870   5.957   0.587   2.255 -0.1597 -1.8837 -1.8782
16485TIP3    H270871   5.826   0.527   2.303 -1.0920  0.3740 -1.4725
16486TIP3   OH270872   0.973   2.860   5.789 -0.1043  0.0549 -0.2067
16486TIP3    H170873   0.985   2.937   5.734  1.7464  0.3241  0.5291
16486TIP3    H270874   0.929   2.893   5.867 -0.7025  0.0649 -0.5369
16487TIP3   OH270875   6.177   5.568   1.664  0.5240  0.3527  0.3485
16487TIP3    H170876   6.154   5.647   1.615 -0.9176 -0.0977  0.2670
16487TIP3    H270877   6.174   5.595   1.756 -2.5030 -0.1593  0.4865
16488TIP3   OH270878   1.698   2.166   4.937 -0.1522 -0.1437 -0.1875
16488TIP3    H170879   1.614   2.184   4.980 -0.3624 -0.4104 -0.4868
16488TIP3    H270880   1.744   2.109   4.999 -0.2576 -0.1315 -0.0971
16489TIP3   OH270881   4.361   2.595  12.624  0.0627  0.2271 -0.4437
16489TIP3    H170882   4.321   2.509  12.615 -0.7689  0.4510  0.7005
16489TIP3    H270883   4.288   2.656  12.613 -0.2448  0.6267  2.6758
16490TIP3   OH270884   2.972   1.051   2.878 -0.2438 -0.3743 -0.6592
16490TIP3    H170885   3.058   1.059   2.837  0.3362  0.4724  0.6288
16490TIP3    H270886   2.988   1.001   2.958 -1.0570 -0.6760 -0.6717
16491TIP3   OH270887   4.106   6.693   4.665  0.0042 -0.1056 -0.0782
16491TIP3    H170888   4.131   6.770   4.717  0.7186  1.5245 -2.6350
16491TIP3    H270889   4.043   6.646   4.720  1.1105  1.1566  2.4366
16492TIP3   OH270890   0.796   0.199   5.663 -0.2411  0.2924  0.0862
16492TIP3    H170891   0.862   0.268   5.663 -0.7461  0.8445 -2.2136
16492TIP3    H270892   0.714   0.244   5.646 -0.3698 -0.9358 -3.1261
16493TIP3   OH270893   2.456   2.955  11.059 -0.3135  0.3516 -0.2974
16493TIP3    H170894   2.512   2.928  10.987  1.4734  1.3080  0.6727
16493TIP3    H270895   2.465   3.050  11.064 -0.1217  0.2818  1.3722
16494TIP3   OH270896   5.932   4.418   3.028 -0.2994  0.2955 -0.2327
16494TIP3    H170897   5.998   4.486   3.040  1.2953 -1.4923  1.9478
16494TIP3    H270898   5.854   4.465   2.998  0.9690  2.9239  0.3336
16495TIP3   OH270899   2.259   5.936  11.369 -0.6686  0.6303  0.7581
16495TIP3    H170900   2.214   6.008  11.323  0.4475  0.4104 -0.7548
16495TIP3    H270901   2.196   5.864  11.366 -0.6169  0.6069 -0.5233
16496TIP3   OH270902   2.170   3.127  16.460 -0.0496  0.0456 -0.1942
16496TIP3    H170903   2.215   3.083  16.532 -1.8221 -1.1244  0.2493
16496TIP3    H270904   2.226   3.111  16.384 -0.6238 -3.1489 -0.0863
16497TIP3   OH270905   0.984   1.703  16.332 -0.1894  0.8398  0.2572
16497TIP3    H170906   0.944   1.770  16.388 -1.8186 -1.4022  1.9542
16497TIP3    H270907   0.943   1.621  16.360  3.0722 -1.1699 -0.3718
16498TIP3   OH270908   4.567   4.777   4.369  0.3115  0.2133 -0.5003
16498TIP3    H170909   4.488   4.769   4.316  0.4012 -1.2215 -0.4640
16498TIP3    H270910   4.594   4.687   4.385  0.8974  0.6318  1.0815
16499TIP3   OH270911   2.419   0.468  16.373 -0.9430  0.2428  0.2421
16499TIP3    H170912   2.437   0.413  16.449 -0.5634 -1.9912 -1.3543
16499TIP3    H270913   2.327   0.449  16.351 -1.0542  0.8737  0.1353
16500TIP3   OH270914   4.760   6.556   6.662  0.2781  0.4675 -0.5371
16500TIP3    H170915   4.765   6.652   6.669  0.3447  0.4131  0.2868
16500TIP3    H270916   4.688   6.540   6.602  1.3152  1.0599 -1.9835
16501TIP3   OH270917   4.106   1.570   0.098  0.1124 -0.4371  0.2171
16501TIP3    H170918   4.163   1.645   0.114  0.7428 -0.8893  0.1362
16501TIP3    H270919   4.128   1.508   0.168 -2.0997  0.3768  1.7597
16502TIP3   OH270920   1.071   2.953   1.768 -0.5293 -0.3380  0.2320
16502TIP3    H170921   1.016   3.030   1.785  1.7450  1.7939 -1.4801
16502TIP3    H270922   1.020   2.901   1.705 -1.2363  0.7954 -0.1597
16503TIP3   OH270923   2.212   0.420   2.147  0.0712  0.3625 -0.5192
16503TIP3    H170924   2.172   0.501   2.115 -1.0537  0.3163  0.7130
16503TIP3    H270925   2.181   0.352   2.087 -0.7152  0.5221 -0.2958
16504TIP3   OH270926   3.957   1.484  15.237  0.3653  0.2102 -0.3061
16504TIP3    H170927   4.014   1.485  15.313 -0.6371 -1.4745  0.5334
16504TIP3    H270928   3.965   1.571  15.199  3.2828  0.1158 -0.1218
16505TIP3   OH270929   2.407   1.165   0.986  0.1125  0.2670  0.0058
16505TIP3    H170930   2.483   1.174   0.929 -0.2428 -0.9415 -0.6938
16505TIP3    H270931   2.332   1.182   0.929 -0.2963 -1.7887 -0.1496
16506TIP3   OH270932   0.419   4.124  10.796  0.1293 -0.4769 -0.1034
16506TIP3    H170933   0.492   4.167  10.841 -0.2202 -0.1836  0.1941
16506TIP3    H270934   0.446   4.119  10.705  1.5152 -2.4817  0.3525
16507TIP3   OH270935   2.761   2.541  12.627 -0.5343  0.1242  0.1950
16507TIP3    H170936   2.697   2.546  12.556 -0.0699 -0.1420 -0.2503
16507TIP3    H270937   2.842   2.512  12.584 -0.7337 -1.9805  1.1297
16508TIP3   OH270938   3.991   5.749   0.641  0.3104 -0.1598 -0.2356
16508TIP3    H170939   3.992   5.657   0.667  1.0508 -0.3051 -0.7439
16508TIP3    H270940   4.077   5.782   0.665 -0.7956  1.1231  2.3242
16509TIP3   OH270941   3.986   2.359   4.012 -0.0525  0.5109 -0.3245
16509TIP3    H170942   3.902   2.393   3.980  0.9930  2.2697 -1.4013
16509TIP3    H270943   3.998   2.402   4.097 -0.0711  0.5967 -0.3642
16510TIP3   OH270944   2.689   1.349   5.066 -0.5442  0.1629  0.2286
16510TIP3    H170945   2.650   1.293   4.999  1.9652 -1.6995  0.1779
16510TIP3    H270946   2.622   1.354   5.135 -1.7758 -0.9013 -0.8443
16511TIP3   OH270947   4.776   4.795   3.151 -0.9402 -0.2353  0.1369
16511TIP3    H170948   4.753   4.754   3.235  0.2380  0.3082  0.7539
16511TIP3    H270949   4.711   4.865   3.141 -0.3505  0.5092  1.2473
16512TIP3   OH270950   4.936   4.539   5.680  0.2629 -0.0360 -0.2882
16512TIP3    H170951   4.844   4.561   5.669 -0.2409 -1.1281  1.4063
16512TIP3    H270952   4.950   4.540   5.775  1.2810 -2.4814 -0.3293
16513TIP3   OH270953   0.261   1.828  15.582  0.1700  0.1408 -0.0568
16513TIP3    H170954   0.199   1.785  15.640  0.3350 -0.7945 -0.5487
16513TIP3    H270955   0.324   1.759  15.559 -0.0235  0.4195 -1.5158
16514TIP3   OH270956   4.586   1.938   4.654  0.2205  0.2822 -0.0020
16514TIP3    H170957   4.642   1.865   4.682  0.5578  0.9790  1.2284
16514TIP3    H270958   4.646   1.997   4.609  0.3907  0.7983  0.8865
16515TIP3   OH270959   3.149   6.525   5.822  0.4003  0.1564  0.4248
16515TIP3    H170960   3.070   6.571   5.795  1.2244  0.1063 -2.3826
16515TIP3    H270961   3.122   6.474   5.899 -2.7073 -1.0208 -1.2811
16516TIP3   OH270962   0.460   1.754  17.187 -0.1468  0.5029  0.9887
16516TIP3    H170963   0.463   1.824  17.251 -2.1933 -0.3385  2.0753
16516TIP3    H270964   0.469   1.674  17.238  0.9737 -0.1028 -0.1006
16517TIP3   OH270965   1.177   1.841  12.468  0.3940 -0.8294  0.2667
16517TIP3    H170966   1.102   1.808  12.419 -0.3284  0.8493  0.1870
16517TIP3    H270967   1.142   1.860  12.555  0.5975  0.4101  0.0913
16518TIP3   OH270968   6.421   2.138   2.860 -0.4583 -0.0471 -0.3690
16518TIP3    H170969   6.384   2.157   2.774 -2.7335  1.5562  0.8501
16518TIP3    H270970   6.355   2.084   2.903  0.3901 -0.3642  0.5606
16519TIP3   OH270971   0.074   4.079  15.621 -0.5021 -0.8549  0.1208
16519TIP3    H170972   0.047   3.993  15.654  1.6116 -2.0742 -1.1691
16519TIP3    H270973   0.169   4.078  15.627 -0.3853  1.0182 -0.8703
16520TIP3   OH270974   0.329   1.034  12.533 -0.7627 -0.0777  0.1481
16520TIP3    H170975   0.376   0.956  12.563 -0.2124 -0.5829 -1.8736
16520TIP3    H270976   0.286   1.068  12.611 -0.7119 -2.1966  1.1558
16521TIP3   OH270977   4.391   6.453  12.930  0.0830  0.6131  0.3800
16521TIP3    H170978   4.405   6.436  12.837  0.8457 -0.1635  0.6174
16521TIP3    H270979   4.346   6.537  12.933 -1.3433 -0.0802 -0.7415
16522TIP3   OH270980   2.382   1.050  14.259  0.7691  0.4948 -0.9161
16522TIP3    H170981   2.418   1.104  14.329  0.7979  0.5206 -0.9518
16522TIP3    H270982   2.444   0.977  14.250  0.0082 -0.3097  0.1041
16523TIP3   OH270983   1.617   2.117  11.925  0.6467 -0.6409  0.1416
16523TIP3    H170984   1.639   2.071  12.006  2.3127 -0.2498 -0.0652
16523TIP3    H270985   1.624   2.210  11.947  0.3155 -0.5181 -0.2505
16524TIP3   OH270986   2.468   5.626   0.780  0.0720  0.1663  0.0306
16524TIP3    H170987   2.539   5.672   0.736  0.9235  0.0773  1.2359
16524TIP3    H270988   2.490   5.632   0.873 -0.8381 -0.9668  0.3481
16525TIP3   OH270989   1.873   0.602  17.236  0.1290 -0.4607  0.3346
16525TIP3    H170990   1.857   0.519  17.190  0.0016 -1.0575  1.4068
16525TIP3    H270991   1.923   0.655  17.174  0.6990 -1.5556 -0.1822
16526TIP3   OH270992   0.820   0.154   3.299  0.2852  0.0929  0.0274
16526TIP3    H170993   0.885   0.109   3.245 -0.1752  0.1419 -0.5720
16526TIP3    H270994   0.872   0.214   3.353  0.8794 -0.9087  0.6200
16527TIP3   OH270995   1.747   2.678  13.801  0.2225 -0.4298  0.4642
16527TIP3    H170996   1.762   2.722  13.885 -0.8188 -1.6566  1.3386
16527TIP3    H270997   1.653   2.691  13.783  0.2337 -0.9944 -0.0281
16528TIP3   OH270998   3.467   0.716   0.472  0.4511 -0.4218 -0.4176
16528TIP3    H170999   3.377   0.707   0.440  0.3050 -2.7457  0.4636
16528TIP3    H271000   3.516   0.746   0.395 -1.1117  1.3527 -0.7932
16529TIP3   OH271001   5.140   4.633   2.185 -0.4148 -0.0766  0.2603
16529TIP3    H171002   5.130   4.723   2.155  1.6993  0.4501  1.0083
16529TIP3    H271003   5.050   4.600   2.193 -1.2037  1.8099 -0.4223
16530TIP3   OH271004   3.301   1.401   0.461  0.1511  0.3115 -0.2076
16530TIP3    H171005   3.211   1.372   0.475  0.5417 -0.9884 -0.2978
16530TIP3    H271006   3.353   1.321   0.464  1.4626  1.1752  1.0432
16531TIP3   OH271007   2.622   0.762   2.791 -0.5810 -0.0742  0.0297
16531TIP3    H171008   2.715   0.741   2.799 -0.7287 -0.2710  1.5956
16531TIP3    H271009   2.577   0.684   2.825 -1.3595 -0.2455 -1.2996
16532TIP3   OH271010   2.791   2.198  15.007  0.4275 -0.2004  0.4683
16532TIP3    H171011   2.837   2.125  15.048  0.3015 -1.1199 -0.9354
16532TIP3    H271012   2.754   2.161  14.927 -1.3395  0.9243  0.6979
16533TIP3   OH271013   5.914   4.468   2.691  0.5371  0.6078 -0.1080
16533TIP3    H171014   5.927   4.383   2.734 -1.9025 -0.2896 -0.9839
16533TIP3    H271015   6.001   4.493   2.661  1.2121 -2.0659 -0.6778
16534TIP3   OH271016   0.509   2.596   0.812  0.2959 -0.1073  0.3060
16534TIP3    H171017   0.492   2.644   0.731 -1.2728  1.4391  1.4825
16534TIP3    H271018   0.432   2.540   0.823 -0.3792  1.0505  1.6413
16535TIP3   OH271019   4.412   2.399   1.966 -0.0046 -0.0520 -0.1640
16535TIP3    H171020   4.437   2.343   2.040  0.6338 -0.3910 -0.6350
16535TIP3    H271021   4.478   2.468   1.966 -0.8162  0.7635  0.4488
16536TIP3   OH271022   1.825   5.168   6.224  0.4083  0.5312  0.2069
16536TIP3    H171023   1.908   5.214   6.235  0.6926  0.6774 -2.1216
16536TIP3    H271024   1.836   5.086   6.273  2.2563  0.1902 -0.7164
16537TIP3   OH271025   2.235   6.184   1.172 -0.3817 -0.4830 -0.1752
16537TIP3    H171026   2.169   6.139   1.225 -0.0714 -2.7934 -1.6168
16537TIP3    H271027   2.188   6.208   1.092  0.1670 -0.8707 -0.6202
16538TIP3   OH271028   1.034   6.250   6.519 -0.2824  0.7173  0.0966
16538TIP3    H171029   0.956   6.296   6.550 -0.0093  2.4153 -1.5249
16538TIP3    H271030   1.009   6.216   6.433  1.0430  2.2759 -0.9659
16539TIP3   OH271031   2.847   2.494  12.048  0.0107  0.2002 -0.4042
16539TIP3    H171032   2.935   2.513  12.081  0.3118  1.3023 -1.7197
16539TIP3    H271033   2.822   2.412  12.090  1.4936  0.0918  0.3167
16540TIP3   OH271034   2.976   1.565  14.075 -0.1517  0.1886  0.1031
16540TIP3    H171035   3.020   1.481  14.064  0.4066  0.5657 -0.5943
16540TIP3    H271036   2.927   1.578  13.994  1.8505  1.7240 -0.9443
16541TIP3   OH271037   0.216   6.593  17.150 -0.1882  0.6493  0.0149
16541TIP3    H171038   0.289   6.559  17.202 -1.7141 -0.9831  1.1923
16541TIP3    H271039   0.252   6.601  17.062  0.9300 -1.9703  0.1393
16542TIP3   OH271040   6.503   0.262   5.799 -0.4719  0.2659 -0.1956
16542TIP3    H171041   6.512   0.237   5.707 -1.8291 -1.1696  0.0213
16542TIP3    H271042   6.582   0.226   5.841  0.0428  0.7300 -0.7406
16543TIP3   OH271043   3.773   3.854   0.272  0.2186  0.1357 -0.8946
16543TIP3    H171044   3.785   3.946   0.295  0.9808  0.3795 -2.1712
16543TIP3    H271045   3.855   3.812   0.295 -0.1899 -0.2781 -0.1513
16544TIP3   OH271046   4.508   5.954  14.216  0.2326  0.1230  0.3581
16544TIP3    H171047   4.450   6.007  14.270 -0.9200  0.2174 -0.9068
16544TIP3    H271048   4.449   5.903  14.161  1.3502 -1.1249  0.2835
16545TIP3   OH271049   1.651   4.421  11.956 -0.3780  0.0420  0.1705
16545TIP3    H171050   1.692   4.483  12.016 -0.5905 -0.1753  0.5464
16545TIP3    H271051   1.617   4.474  11.885 -0.3221  0.3281  0.3570
16546TIP3   OH271052   1.985   0.781   1.048  0.4808 -0.0756 -0.0023
16546TIP3    H171053   1.906   0.814   1.090  0.9223  0.9698  0.0392
16546TIP3    H271054   1.959   0.697   1.010 -0.5084  0.0183  0.4446
16547TIP3   OH271055   3.313   5.295  12.159  0.0828 -0.1021 -0.9146
16547TIP3    H171056   3.276   5.262  12.241  1.5294 -1.4357 -0.7623
16547TIP3    H271057   3.372   5.365  12.185 -0.4173  0.3451 -0.9524
16548TIP3   OH271058   6.169   0.333   3.760  0.1622 -0.2640 -0.2511
16548TIP3    H171059   6.192   0.336   3.853 -1.5093 -0.2589  0.2008
16548TIP3    H271060   6.178   0.423   3.729 -0.1679 -0.0927  0.1465
16549TIP3   OH271061   2.732   2.559   0.421  0.3331  0.6625 -0.2951
16549TIP3    H171062   2.771   2.507   0.350 -0.1964 -0.1791  0.0174
16549TIP3    H271063   2.805   2.612   0.454  1.4111 -1.3255  0.6733
16550TIP3   OH271064   2.528   3.565   1.786 -0.1194  0.0792 -0.1346
16550TIP3    H171065   2.476   3.497   1.828  0.6257 -0.0822  0.5575
16550TIP3    H271066   2.531   3.540   1.694 -0.6918 -0.2717 -0.0645
16551TIP3   OH271067   3.405   0.047  16.947 -0.5280 -0.2518  0.1704
16551TIP3    H171068   3.406   0.063  16.853 -2.0519  1.2825  0.3736
16551TIP3    H271069   3.383  -0.046  16.955  1.3091 -0.8427 -0.9661
16552TIP3   OH271070   3.649   1.064   5.114 -0.2604  0.3197  0.2871
16552TIP3    H171071   3.727   1.011   5.096 -0.5877 -0.4453  1.0850
16552TIP3    H271072   3.582   1.001   5.138 -1.1141  0.9809 -0.2773
16553TIP3   OH271073   0.310   6.327   6.013 -0.1130 -0.3717 -0.7531
16553TIP3    H171074   0.237   6.359   6.066 -0.8393 -1.3996 -1.1057
16553TIP3    H271075   0.322   6.236   6.040  1.4485 -0.0597 -0.2767
16554TIP3   OH271076   5.319   2.700  14.936 -0.2002 -0.3584  0.4387
16554TIP3    H171077   5.242   2.748  14.965  0.8558  1.5069  0.2890
16554TIP3    H271078   5.287   2.643  14.866 -1.4102  0.5103  0.2532
16555TIP3   OH271079   4.724   3.630   0.823  0.1141 -0.3727 -0.4986
16555TIP3    H171080   4.809   3.604   0.788 -0.1731  1.6272 -2.9710
16555TIP3    H271081   4.660   3.591   0.764 -0.4429  1.9209 -1.5274
16556TIP3   OH271082   5.536   1.309   5.279 -0.4536  0.0909  0.2295
16556TIP3    H171083   5.547   1.214   5.282 -1.2600 -0.0726 -1.0709
16556TIP3    H271084   5.492   1.332   5.361 -2.4406 -1.0052 -0.4660
16557TIP3   OH271085   3.781   0.877   0.904  0.0369  0.5108  0.1308
16557TIP3    H171086   3.734   0.944   0.952  0.0550  1.1738 -0.7353
16557TIP3    H271087   3.851   0.925   0.859 -0.3731  0.0314 -1.0583
16558TIP3   OH271088   2.286   2.829  15.282  0.2089  0.2053 -0.2046
16558TIP3    H171089   2.196   2.810  15.257 -0.3399  1.7558  0.4467
16558TIP3    H271090   2.304   2.915  15.244  1.0875  0.3237  0.4410
16559TIP3   OH271091   0.875   5.225  11.913  0.0371 -0.8268  0.0039
16559TIP3    H171092   0.877   5.243  11.819  0.5329 -0.1048  0.1490
16559TIP3    H271093   0.927   5.145  11.923  0.3211 -0.6815 -0.2859
16560TIP3   OH271094   4.976   1.865  13.927 -0.5838 -0.0937  0.4122
16560TIP3    H171095   4.898   1.916  13.950 -0.4132  0.2547  0.2195
16560TIP3    H271096   5.035   1.927  13.885  0.4466  0.0304  1.9208
16561TIP3   OH271097   2.265   0.722  14.064  0.2444 -0.0366 -0.4289
16561TIP3    H171098   2.257   0.817  14.058 -1.1777 -0.0933  0.3408
16561TIP3    H271099   2.356   0.705  14.037  0.7004  1.5709 -0.0475
16562TIP3   OH271100   4.725   4.243   4.749 -0.0670  0.6352  0.2029
16562TIP3    H171101   4.760   4.330   4.768  1.7383  0.1111 -0.5096
16562TIP3    H271102   4.800   4.193   4.715 -1.5183 -0.5752 -1.4255
16563TIP3   OH271103   6.527   2.593  10.537  0.1178  0.1779  0.1375
16563TIP3    H171104   6.440   2.553  10.535  0.5396 -0.7687 -0.1403
16563TIP3    H271105   6.586   2.520  10.552  1.0322  0.4905 -1.6812
16564TIP3   OH271106   6.193   5.341  14.210 -0.3598 -0.0990 -0.2201
16564TIP3    H171107   6.247   5.412  14.246 -0.2293  0.3082 -1.1733
16564TIP3    H271108   6.191   5.275  14.279  0.2822  0.4402  0.3361
16565TIP3   OH271109   0.795   3.348   1.007 -0.1170 -0.4548  0.0149
16565TIP3    H171110   0.877   3.332   0.960  0.1179 -1.1767  0.6464
16565TIP3    H271111   0.821   3.396   1.085 -0.4159  0.1011 -0.2198
16566TIP3   OH271112   4.443   3.588   0.731  0.0015  0.3874  0.4134
16566TIP3    H171113   4.468   3.516   0.673 -0.2772  0.0426  0.7184
16566TIP3    H271114   4.357   3.615   0.700 -0.4974 -0.3210  1.1542
16567TIP3   OH271115   4.019   1.696  12.180 -0.0612  0.0333  0.3985
16567TIP3    H171116   3.982   1.618  12.138 -0.0536  0.2866 -0.0793
16567TIP3    H271117   3.971   1.769  12.141  0.8262  0.3570 -0.1092
16568TIP3   OH271118   6.567   2.951   4.060  0.1754 -0.4464  0.0615
16568TIP3    H171119   6.489   3.003   4.042 -1.0944 -1.4745  2.2244
16568TIP3    H271120   6.547   2.865   4.024  0.6870 -0.4852 -0.1408
16569TIP3   OH271121   6.160   1.394  16.381 -0.2098 -0.2087  0.5716
16569TIP3    H171122   6.155   1.409  16.475  0.3640  1.8260  0.3178
16569TIP3    H271123   6.110   1.465  16.342  0.9599 -0.0242 -0.6883
16570TIP3   OH271124   2.516   5.431  15.569  0.5121 -0.2768  0.0450
16570TIP3    H171125   2.569   5.367  15.522 -1.4947 -1.0970 -1.2336
16570TIP3    H271126   2.463   5.473  15.501 -1.4377 -0.4838  1.3422
16571TIP3   OH271127   5.212   2.721   0.209  0.4462  0.3085 -0.1722
16571TIP3    H171128   5.194   2.752   0.298 -1.0117  0.9883 -0.6562
16571TIP3    H271129   5.128   2.731   0.163  1.3564  0.7315 -1.8364
16572TIP3   OH271130   0.253   1.539   2.768 -0.0973 -0.0170  0.3096
16572TIP3    H171131   0.221   1.503   2.850 -0.0525 -0.7134  0.0233
16572TIP3    H271132   0.344   1.562   2.786  0.0951 -0.7407  0.2810
16573TIP3   OH271133   3.595   1.313  11.038  0.2206  0.0196 -0.3385
16573TIP3    H171134   3.526   1.277  10.982  1.8015 -1.6509 -1.3278
16573TIP3    H271135   3.606   1.403  11.008 -0.0772 -0.3552 -1.6191
16574TIP3   OH271136   4.799   6.539   5.289  0.6386 -0.1756 -0.3071
16574TIP3    H171137   4.819   6.512   5.199  0.8289  0.9905 -0.6351
16574TIP3    H271138   4.705   6.555   5.289  0.3768 -1.5878  0.1106
16575TIP3   OH271139   2.475   2.283   5.288  0.1229  0.0881 -0.2232
16575TIP3    H171140   2.406   2.219   5.272 -0.3724  0.5249  0.1424
16575TIP3    H271141   2.556   2.232   5.285 -0.1750 -0.3673 -1.0454
16576TIP3   OH271142   1.539   1.735  15.442  0.1327  0.4289  0.5754
16576TIP3    H171143   1.547   1.757  15.349 -0.7265  0.8996  0.6015
16576TIP3    H271144   1.609   1.672  15.458 -1.0154 -1.3331 -0.9126
16577TIP3   OH271145   5.257   4.615   3.178  0.2095  0.8096 -0.3626
16577TIP3    H171146   5.231   4.694   3.225  1.9431  1.6938 -0.8045
16577TIP3    H271147   5.311   4.567   3.240  1.2084  1.2107 -0.9059
16578TIP3   OH271148   6.455   5.957   5.947 -0.4714  0.4047 -0.7243
16578TIP3    H171149   6.464   5.875   5.994 -0.5184 -0.4588 -2.1434
16578TIP3    H271150   6.532   5.960   5.890 -0.1526  1.6555 -0.2528
16579TIP3   OH271151   2.549   3.275  16.345 -0.2062 -0.2784  0.0598
16579TIP3    H171152   2.629   3.224  16.331 -0.7542 -0.9933 -0.5453
16579TIP3    H271153   2.550   3.340  16.275 -0.6605 -0.9436 -0.5747
16580TIP3   OH271154   0.729   6.013  11.526  0.0734 -0.7402 -0.5456
16580TIP3    H171155   0.794   6.066  11.573 -0.7672  0.1740 -0.3650
16580TIP3    H271156   0.652   6.014  11.583 -0.8204  0.0248 -1.7251
16581TIP3   OH271157   0.125   5.073   0.970 -0.2724 -0.5738  0.0500
16581TIP3    H171158   0.197   5.066   0.908  0.4677  4.7168 -0.0786
16581TIP3    H271159   0.056   5.018   0.933  2.3266 -2.8420 -1.7903
16582TIP3   OH271160   1.531   6.197  12.020 -0.0710  0.4897 -0.4239
16582TIP3    H171161   1.449   6.184  11.972  0.5864 -0.9129 -1.2442
16582TIP3    H271162   1.506   6.245  12.098 -1.7663 -0.3198 -0.4194
16583TIP3   OH271163   2.997   2.124   0.282 -0.0159  0.4302  0.0404
16583TIP3    H171164   3.072   2.081   0.323 -1.2721 -1.5889  0.3109
16583TIP3    H271165   3.017   2.123   0.188  0.4567  0.2573  0.1397
16584TIP3   OH271166   0.110   1.460  11.803  0.3022  0.0943 -0.1243
16584TIP3    H171167   0.151   1.530  11.753 -0.5339  1.2671  0.7781
16584TIP3    H271168   0.122   1.486  11.895  1.0123 -1.5490  0.2855
16585TIP3   OH271169   6.508   1.337   2.716 -0.1697  0.1969  0.0613
16585TIP3    H171170   6.572   1.279   2.676  0.2524 -0.7535  2.0249
16585TIP3    H271171   6.462   1.377   2.642  2.3292  0.5544 -1.4105
16586TIP3   OH271172   5.820   3.098   3.707 -0.0951 -0.1092 -0.2141
16586TIP3    H171173   5.791   3.051   3.786  1.2852  0.9591  0.9881
16586TIP3    H271174   5.870   3.034   3.658  0.4816 -0.3390  0.6443
16587TIP3   OH271175   3.230   4.513   0.793  0.1874 -0.8572 -0.2358
16587TIP3    H171176   3.135   4.504   0.798  0.0496  0.2318 -0.5562
16587TIP3    H271177   3.253   4.570   0.866  0.6517 -1.4483  0.0865
16588TIP3   OH271178   1.368   6.260  13.708  0.2944  0.5220  0.0225
16588TIP3    H171179   1.460   6.261  13.734  0.3428  0.8873 -0.1602
16588TIP3    H271180   1.323   6.309  13.776  0.3190  0.8416 -0.1861
16589TIP3   OH271181   1.966   3.152  12.822  0.2089  0.6109 -0.7990
16589TIP3    H171182   2.032   3.221  12.824 -0.2716  1.1276 -2.0206
16589TIP3    H271183   1.883   3.198  12.821 -0.0995  0.0805 -2.9012
16590TIP3   OH271184   0.606   0.568  12.715  0.5389 -0.0325  0.2475
16590TIP3    H171185   0.677   0.627  12.739 -0.7414  1.3286  0.8072
16590TIP3    H271186   0.547   0.570  12.790 -1.4094  0.9445 -1.2280
16591TIP3   OH271187   5.879   0.310   0.276 -0.5068 -0.1617 -0.1580
16591TIP3    H171188   5.788   0.281   0.270 -0.9246  0.8374  0.9176
16591TIP3    H271189   5.875   0.404   0.259  0.0629  0.2083  1.5500
16592TIP3   OH271190   0.322   4.751  16.985 -0.0076  0.1714 -0.4033
16592TIP3    H171191   0.394   4.692  17.006  0.4942  1.3510  1.5341
16592TIP3    H271192   0.243   4.698  16.995  0.4426 -0.2800  0.9567
16593TIP3   OH271193   2.244   6.084   2.248 -0.1043 -0.4488 -0.1879
16593TIP3    H171194   2.335   6.057   2.241  0.6291  1.7672  0.1621
16593TIP3    H271195   2.218   6.057   2.336  0.1635 -1.1627 -0.3176
16594TIP3   OH271196   4.842   5.051   4.327 -0.3405  0.7708  0.7130
16594TIP3    H171197   4.756   5.089   4.309 -0.0098  0.8125 -0.9710
16594TIP3    H271198   4.894   5.075   4.251  1.2286  0.8985  1.7865
16595TIP3   OH271199   5.137   4.161   0.951 -0.0344 -0.1096 -0.1250
16595TIP3    H171200   5.166   4.151   1.042 -1.4047 -2.1569  0.1740
16595TIP3    H271201   5.063   4.221   0.955  0.5239  0.5772 -0.0422
16596TIP3   OH271202   2.349   4.679   1.382  0.6891  0.1328 -0.0515
16596TIP3    H171203   2.440   4.705   1.366  0.6523 -0.4955 -1.3935
16596TIP3    H271204   2.306   4.688   1.297 -0.3532 -0.1942  0.4256
16597TIP3   OH271205   5.954   0.248   5.816  0.6221  0.5716  0.0814
16597TIP3    H171206   5.860   0.252   5.797  0.5010  1.0626  0.7511
16597TIP3    H271207   5.981   0.162   5.785 -0.7479 -1.0031  2.8945
16598TIP3   OH271208   1.864   2.056  17.036  0.4348  0.0907 -0.3009
16598TIP3    H171209   1.948   2.099  17.053  0.1904 -0.1501  1.8468
16598TIP3    H271210   1.855   1.993  17.107 -0.6383 -1.3686 -1.6629
16599TIP3   OH271211   4.415   2.709  14.477 -0.2179 -0.3018  0.0150
16599TIP3    H171212   4.381   2.787  14.521 -0.9521  0.5276 -1.9090
16599TIP3    H271213   4.341   2.649  14.473  0.3192 -1.0906  1.4004
16600TIP3   OH271214   3.153   6.048   0.905 -0.1764 -0.2567 -0.2176
16600TIP3    H171215   3.181   6.139   0.915 -0.8250 -0.0827  0.0826
16600TIP3    H271216   3.092   6.034   0.978 -1.3453 -0.4308 -1.2043
16601TIP3   OH271217   2.818   4.296   3.732  0.2765 -0.1042  0.3408
16601TIP3    H171218   2.745   4.343   3.772 -0.7446 -1.7415  0.4684
16601TIP3    H271219   2.886   4.363   3.721 -1.3087  1.5216 -0.0075
16602TIP3   OH271220   2.174   2.998   0.159 -0.3462  0.2802  0.4512
16602TIP3    H171221   2.250   2.941   0.144 -0.0203  0.5031  1.2134
16602TIP3    H271222   2.155   3.036   0.073  2.0502  2.2381  0.6516
16603TIP3   OH271223   0.653   5.505  15.856  0.2505  0.5681  0.2295
16603TIP3    H171224   0.743   5.498  15.888  0.2242 -0.6938  0.0685
16603TIP3    H271225   0.611   5.423  15.883 -0.0136 -0.1821 -2.2001
16604TIP3   OH271226   4.365   6.413   0.137 -0.0418 -0.1652  0.1017
16604TIP3    H171227   4.417   6.353   0.190 -0.2812  0.0964  0.6303
16604TIP3    H271228   4.325   6.357   0.070  0.8029 -0.3896 -0.2235
16605TIP3   OH271229   3.147   0.039  14.364  0.0898  0.1927 -0.3255
16605TIP3    H171230   3.188   0.087  14.292 -0.3923 -0.6173 -1.1607
16605TIP3    H271231   3.219   0.021  14.424  0.4068  1.3101 -0.3544
16606TIP3   OH271232   4.329   1.762   0.524  0.0648 -0.5841  0.6717
16606TIP3    H171233   4.270   1.732   0.455  1.0227 -1.4732  0.2172
16606TIP3    H271234   4.326   1.857   0.519  1.0909 -0.6176 -1.4629
16607TIP3   OH271235   6.428   6.136  14.348 -0.0548 -0.3285 -0.3775
16607TIP3    H171236   6.410   6.083  14.426 -0.9176  1.3383  0.6238
16607TIP3    H271237   6.523   6.129  14.336 -0.0445 -1.4202  0.2061
16608TIP3   OH271238   4.559   6.662   0.748  0.4490  0.1003  0.0603
16608TIP3    H171239   4.645   6.670   0.789  0.4359  0.5927  0.0045
16608TIP3    H271240   4.523   6.751   0.753  0.4649  0.1743 -1.0551
16609TIP3   OH271241   2.848   1.133  13.256  0.4953  0.0728 -0.2314
16609TIP3    H171242   2.853   1.181  13.339  0.9535  1.9221 -1.2832
16609TIP3    H271243   2.817   1.046  13.281 -2.2719  1.4223  1.5922
16610TIP3   OH271244   3.308   4.669   0.987  0.0216 -0.2211 -0.1373
16610TIP3    H171245   3.325   4.703   1.075  1.0218  0.6903 -0.6669
16610TIP3    H271246   3.395   4.648   0.952 -0.1653  1.3174 -1.6428
16611TIP3   OH271247   1.495   1.969   5.452 -0.0814  0.0809  0.1456
16611TIP3    H171248   1.491   2.017   5.370  0.0359  0.1661  0.1873
16611TIP3    H271249   1.589   1.965   5.472 -0.0525 -0.5786 -0.0966
16612TIP3   OH271250   0.614   1.555  15.222 -0.1267  0.2652  0.2082
16612TIP3    H171251   0.688   1.506  15.257  0.5578  1.3897  0.3986
16612TIP3    H271252   0.645   1.590  15.139 -1.0775 -0.7515 -0.6026
16613TIP3   OH271253   3.211   4.007  13.195 -0.2396  0.0588 -0.0543
16613TIP3    H171254   3.193   3.917  13.171 -0.1198 -0.1146  0.4892
16613TIP3    H271255   3.125   4.048  13.202 -0.3642 -0.3418  0.9189
16614TIP3   OH271256   1.020   1.218  13.012  0.6452 -0.0160  0.3802
16614TIP3    H171257   0.972   1.147  13.055  0.4539  0.7660  1.4930
16614TIP3    H271258   1.092   1.174  12.967 -1.2094 -1.2636 -1.5875
16615TIP3   OH271259   5.753   4.974   4.316  0.6405 -0.7954 -0.0352
16615TIP3    H171260   5.778   4.886   4.343  2.1498 -0.7274 -1.0959
16615TIP3    H271261   5.799   5.032   4.377  1.3753 -0.7120 -0.6579
16616TIP3   OH271262   1.263   1.326   4.102  0.0546 -0.0486 -0.0094
16616TIP3    H171263   1.240   1.238   4.073  0.2095 -0.4457  1.0033
16616TIP3    H271264   1.235   1.384   4.031  2.8088 -1.1359 -2.1733
16617TIP3   OH271265   1.954   4.080   1.984  0.0029 -0.0010  0.3724
16617TIP3    H171266   1.931   4.170   2.007  3.1795  0.9020  0.4697
16617TIP3    H271267   1.909   4.065   1.901 -1.1127  1.4470  0.6701
16618TIP3   OH271268   1.196   5.591  11.149 -0.4066  0.6248  0.2357
16618TIP3    H171269   1.165   5.505  11.120 -0.6761  0.5928  0.6140
16618TIP3    H271270   1.220   5.636  11.069  1.9565 -0.6448  0.1566
16619TIP3   OH271271   0.775   1.225  11.855  0.5630  0.2084  0.3474
16619TIP3    H171272   0.764   1.162  11.784  1.8319 -0.2583  0.5514
16619TIP3    H271273   0.707   1.291  11.839  0.3252 -0.3040 -0.8461
16620TIP3   OH271274   6.142   5.143   1.200  0.2578 -0.2830 -0.3836
16620TIP3    H171275   6.220   5.093   1.224  1.4635  1.1128 -1.1908
16620TIP3    H271276   6.150   5.224   1.251 -1.7376 -0.9080  1.0294
16621TIP3   OH271277   4.753   0.246  15.630  0.4376 -0.5274 -0.5393
16621TIP3    H171278   4.802   0.247  15.712  0.4879 -0.9112 -0.5603
16621TIP3    H271279   4.711   0.332  15.625 -0.4152 -0.8682  0.4055
16622TIP3   OH271280   4.340   0.214   5.393  0.2525  0.1074 -0.0100
16622TIP3    H171281   4.304   0.133   5.429 -1.0274 -0.5514 -2.5750
16622TIP3    H271282   4.266   0.276   5.396  0.7170  0.6588  0.2882
16623TIP3   OH271283   5.370   2.889   3.146  0.4224  0.2794  0.1129
16623TIP3    H171284   5.380   2.886   3.241  1.0902  0.7417  0.0726
16623TIP3    H271285   5.300   2.952   3.131 -1.2330 -1.4290  0.3526
16624TIP3   OH271286   1.375   4.044  13.044 -0.0959 -0.1985  0.2124
16624TIP3    H171287   1.325   4.125  13.052 -1.9186 -1.2851  0.2409
16624TIP3    H271288   1.381   4.011  13.133 -1.4537 -1.2767 -0.0649
16625TIP3   OH271289   0.224   3.475   4.311  0.3968  0.1640  0.2573
16625TIP3    H171290   0.194   3.388   4.339  1.3285 -0.6015 -1.0102
16625TIP3    H271291   0.319   3.470   4.317  0.4746  0.9708 -0.2241
16626TIP3   OH271292   2.279   3.209   1.617 -0.0309 -0.0111 -0.1200
16626TIP3    H171293   2.318   3.222   1.703  0.1352 -0.8385 -0.0627
16626TIP3    H271294   2.185   3.220   1.631  0.1276  1.5293 -0.1690
16627TIP3   OH271295   5.595   3.108  10.845  0.1766 -0.5846  0.1707
16627TIP3    H171296   5.607   3.202  10.854  1.0727 -0.2965 -2.8634
16627TIP3    H271297   5.511   3.098  10.800  1.5926 -0.8746 -2.6846
16628TIP3   OH271298   3.090   3.779   4.563 -0.1711 -0.2449 -0.6505
16628TIP3    H171299   3.037   3.811   4.637 -0.9364 -2.1136 -0.3521
16628TIP3    H271300   3.172   3.829   4.570 -1.3562  1.8090 -0.3760
16629TIP3   OH271301   0.451   6.170   0.430  0.0891 -0.3423  0.0022
16629TIP3    H171302   0.447   6.187   0.524 -1.8912  0.0790 -0.1067
16629TIP3    H271303   0.408   6.085   0.419 -0.0373 -0.2145 -0.5390
16630TIP3   OH271304   2.518   2.957  10.409 -0.0803 -0.6452 -0.2446
16630TIP3    H171305   2.479   2.885  10.458 -0.5835 -1.0437 -1.2022
16630TIP3    H271306   2.602   2.973  10.452 -0.8474 -0.4314  1.2432
16631TIP3   OH271307   4.580   6.065   0.504 -0.4785 -0.2664  0.4449
16631TIP3    H171308   4.523   5.992   0.528  1.6352 -1.8822  0.8946
16631TIP3    H271309   4.561   6.133   0.569 -1.6872 -0.8499  0.7197
16632TIP3   OH271310   4.797   5.587  12.819 -0.4069  0.4494 -0.4438
16632TIP3    H171311   4.835   5.583  12.907 -2.0179 -1.7042  0.2601
16632TIP3    H271312   4.703   5.588  12.834 -0.8354 -2.5102 -2.0590
16633TIP3   OH271313   4.723   5.299  16.700  0.1671 -0.0396 -0.4668
16633TIP3    H171314   4.735   5.337  16.613 -1.9841  0.3679 -0.6376
16633TIP3    H271315   4.659   5.356  16.742  1.7929  0.2861  1.7620
16634TIP3   OH271316   2.352   4.670   6.579 -0.5725 -0.5274 -0.2830
16634TIP3    H171317   2.367   4.579   6.607 -1.3940 -0.6218 -0.1216
16634TIP3    H271318   2.418   4.721   6.626 -2.2706 -0.5949  2.4184
16635TIP3   OH271319   1.190   6.743  12.444 -0.1311 -0.2710 -0.3990
16635TIP3    H171320   1.113   6.780  12.488  2.7472  2.6233  2.7952
16635TIP3    H271321   1.183   6.774  12.353 -3.3126 -1.3352 -0.6397
16636TIP3   OH271322   6.164   4.450  12.025 -0.5684  0.3975  0.8266
16636TIP3    H171323   6.154   4.529  12.078  1.8545 -0.1998  2.3662
16636TIP3    H271324   6.141   4.378  12.084  1.1265 -0.2200  0.7951
16637TIP3   OH271325   0.315   0.494   3.088 -0.2610  0.0268 -0.2833
16637TIP3    H171326   0.342   0.456   3.172 -2.1282  0.6171  0.6304
16637TIP3    H271327   0.240   0.442   3.060  0.0719  0.1050 -1.3945
16638TIP3   OH271328   4.715   6.590  12.659  0.5461  0.3273 -0.3630
16638TIP3    H171329   4.747   6.663  12.713  0.1770  0.0857  0.1898
16638TIP3    H271330   4.761   6.513  12.692  0.6222  0.2384 -0.6696
16639TIP3   OH271331   5.997   2.355  16.210 -0.6015 -0.0765 -0.0716
16639TIP3    H171332   6.013   2.378  16.301 -1.7037 -0.3737  0.2110
16639TIP3    H271333   6.074   2.306  16.183  1.4211  3.0056 -0.4104
16640TIP3   OH271334   3.162   2.812  13.678  0.1181  0.3526 -0.1076
16640TIP3    H171335   3.135   2.720  13.673  1.3420 -0.0494  0.2928
16640TIP3    H271336   3.084   2.861  13.652 -1.0102 -0.7351  1.0736
16641TIP3   OH271337   4.924   6.543  16.642  0.0701  0.1334 -0.2891
16641TIP3    H171338   4.913   6.526  16.736  2.0863 -2.0786 -0.3474
16641TIP3    H271339   4.992   6.611  16.638 -0.3460  0.5640 -0.1668
16642TIP3   OH271340   6.020   3.486  11.090 -0.1419 -0.1527 -0.1464
16642TIP3    H171341   6.085   3.448  11.030  0.4924 -0.2533  0.5860
16642TIP3    H271342   5.960   3.414  11.109  1.2507 -0.9724  1.5088
16643TIP3   OH271343   0.856   4.770   2.761 -0.1033 -0.0250  0.4744
16643TIP3    H171344   0.808   4.736   2.837  0.5394  0.4108  1.0953
16643TIP3    H271345   0.803   4.843   2.729 -0.5321 -0.4070  0.3147
16644TIP3   OH271346   4.545   1.629  13.737 -0.7194  0.2608 -0.0432
16644TIP3    H171347   4.637   1.652  13.751 -0.8125  1.6643 -1.3993
16644TIP3    H271348   4.498   1.711  13.753 -1.7210 -0.3957  0.4371
16645TIP3   OH271349   2.962   4.675   3.166 -0.2086  0.0566  0.2845
16645TIP3    H171350   2.917   4.604   3.120 -0.7078  0.9225 -0.6058
16645TIP3    H271351   2.951   4.751   3.109 -1.5179  1.3741  2.1965
16646TIP3   OH271352   2.592   3.751  11.789  0.5470  0.2813 -0.4427
16646TIP3    H171353   2.562   3.754  11.698 -0.6301  0.1802 -0.0691
16646TIP3    H271354   2.665   3.813  11.792  0.1299  0.8320 -1.2822
16647TIP3   OH271355   0.809   2.466   3.774  0.2736 -0.0161  0.1272
16647TIP3    H171356   0.850   2.450   3.859 -0.1765 -1.2804  0.1245
16647TIP3    H271357   0.882   2.466   3.712  0.7239  1.8538  0.5843
16648TIP3   OH271358   4.286   4.584   3.783 -0.4322  0.0199  0.6900
16648TIP3    H171359   4.283   4.491   3.761 -0.0142  0.3144 -0.7340
16648TIP3    H271360   4.294   4.586   3.878  0.0784 -1.4114  0.6993
16649TIP3   OH271361   0.844   5.531   0.457  0.6168  0.1697  0.2477
16649TIP3    H171362   0.761   5.572   0.478 -0.8608 -2.5877  0.3140
16649TIP3    H271363   0.859   5.553   0.365 -0.6479  0.0206 -0.0108
16650TIP3   OH271364   1.508   4.963   5.762  0.0184  0.3594 -0.4957
16650TIP3    H171365   1.493   4.871   5.784  3.6637  0.2339  2.5981
16650TIP3    H271366   1.466   5.012   5.834  0.0504  0.9737 -0.8865
16651TIP3   OH271367   4.957   1.440   0.448  0.0501  0.4065 -0.1918
16651TIP3    H171368   5.020   1.469   0.382 -0.8919  0.6527 -0.9872
16651TIP3    H271369   4.887   1.505   0.446 -1.7001 -1.4043 -1.4283
16652TIP3   OH271370   5.732   4.163  11.546 -0.1561 -0.4155  0.3360
16652TIP3    H171371   5.643   4.129  11.545 -0.3574  0.0885 -1.4003
16652TIP3    H271372   5.736   4.224  11.472  1.4810 -0.0375  0.6901
16653TIP3   OH271373   3.041   1.205  16.204 -0.2720 -0.6838 -0.5631
16653TIP3    H171374   3.002   1.247  16.127  1.0037 -0.0261 -0.8790
16653TIP3    H271375   2.995   1.244  16.278  1.1908  1.7354 -0.8127
16654TIP3   OH271376   1.851   0.530  16.362  0.2511  0.5238 -0.3371
16654TIP3    H171377   1.903   0.538  16.442 -0.3871  0.1921  0.1299
16654TIP3    H271378   1.825   0.438  16.360 -0.1088  0.6293 -0.6820
16655TIP3   OH271379   5.528   2.387   1.681 -0.5575 -0.4762  0.0540
16655TIP3    H171380   5.466   2.337   1.628 -1.0755  0.0269  0.1843
16655TIP3    H271381   5.476   2.422   1.753 -0.2848  0.5825 -0.2544
16656TIP3   OH271382   4.891   3.438  16.185 -0.0520 -0.4649  0.9056
16656TIP3    H171383   4.796   3.425  16.184 -0.0858 -0.2950 -0.5791
16656TIP3    H271384   4.902   3.532  16.171  0.3334 -0.5155  0.8597
16657TIP3   OH271385   5.295   5.930  15.334 -0.0892 -0.1081 -0.2213
16657TIP3    H171386   5.289   5.847  15.381  2.5936 -0.4162 -0.2721
16657TIP3    H271387   5.262   5.911  15.246 -1.6064 -0.4919  0.3997
16658TIP3   OH271388   2.636   4.326  13.088 -0.0870  0.0681 -0.0552
16658TIP3    H171389   2.630   4.323  12.992  0.4656  0.1293 -0.0946
16658TIP3    H271390   2.625   4.419  13.109  0.0598  0.0919 -0.0804
16659TIP3   OH271391   2.115   3.882   4.062 -0.0406 -0.5822 -0.1483
16659TIP3    H171392   2.114   3.811   4.126 -0.4994 -1.8803 -1.5504
16659TIP3    H271393   2.087   3.842   3.980 -2.2497  1.5915 -0.6146
16660TIP3   OH271394   6.534   1.215  13.925 -0.0176  0.4696  0.2979
16660TIP3    H171395   6.603   1.270  13.885  0.8060 -0.8834 -0.2204
16660TIP3    H271396   6.452   1.256  13.898  0.5747  1.6583  0.2466
16661TIP3   OH271397   3.860   5.313  11.617 -0.5715  0.1624  0.2081
16661TIP3    H171398   3.896   5.241  11.565 -1.1885  0.2900 -0.4045
16661TIP3    H271399   3.779   5.337  11.573 -1.6785 -0.4290  1.8242
16662TIP3   OH271400   0.704   3.627  13.237  0.1833  0.6024 -0.5604
16662TIP3    H171401   0.748   3.626  13.152 -0.0015  0.4927 -0.6555
16662TIP3    H271402   0.676   3.718  13.249  0.8714  0.7828 -0.2720
16663TIP3   OH271403   6.022   6.696   2.737  0.3558 -0.0943 -0.0379
16663TIP3    H171404   6.036   6.732   2.825 -0.3956  2.6917 -0.9429
16663TIP3    H271405   6.102   6.718   2.689  0.6852 -1.4285 -0.1209
16664TIP3   OH271406   1.316   2.690   2.893  0.3703 -0.3886  0.2010
16664TIP3    H171407   1.266   2.648   2.962 -0.0910 -0.3701 -0.1160
16664TIP3    H271408   1.250   2.735   2.839  0.8813  1.1004  0.7773
16665TIP3   OH271409   5.876   1.956   3.169  0.0060  0.2927 -0.1067
16665TIP3    H171410   5.853   1.921   3.083  0.3354  2.0074 -0.9474
16665TIP3    H271411   5.839   2.045   3.169  2.1654  1.2519  0.5039
16666TIP3   OH271412   0.065   6.598  15.728  0.6387 -0.8087  0.8338
16666TIP3    H171413   0.031   6.646  15.653 -1.7802  0.8816  2.8368
16666TIP3    H271414   0.026   6.511  15.720 -1.2776 -0.0276  1.0897
16667TIP3   OH271415   5.665   3.474  16.609 -0.7543 -0.2194 -0.4552
16667TIP3    H171416   5.633   3.457  16.521 -2.9353 -0.7139  0.3632
16667TIP3    H271417   5.617   3.412  16.664  2.1796 -1.5271  0.8788
16668TIP3   OH271418   0.230   3.209   2.817  0.0559 -0.1204 -0.7609
16668TIP3    H171419   0.231   3.297   2.780  1.9306  0.0575 -0.3478
16668TIP3    H271420   0.271   3.154   2.751  0.5953 -0.3506 -0.2385
16669TIP3   OH271421   5.883   2.604   3.693  0.4335  0.1704  0.1240
16669TIP3    H171422   5.957   2.583   3.751  0.3840  0.8479  0.4340
16669TIP3    H271423   5.823   2.530   3.705  1.0570 -0.3966 -0.1377
16670TIP3   OH271424   0.733   1.987   3.480  0.1901  0.2816 -0.4521
16670TIP3    H171425   0.738   1.906   3.429 -0.8297  0.9074 -1.5914
16670TIP3    H271426   0.679   1.963   3.556  0.0646 -0.1699 -0.6769
16671TIP3   OH271427   0.887   3.587  15.639  0.1853 -0.2048 -0.0057
16671TIP3    H171428   0.805   3.547  15.610  0.0467 -0.1664  0.3261
16671TIP3    H271429   0.954   3.544  15.586 -0.0567 -0.1689 -0.3470
16672TIP3   OH271430   5.660   3.279  13.674 -0.3346 -0.2646  0.1032
16672TIP3    H171431   5.653   3.348  13.608 -1.7902 -0.1590  0.3355
16672TIP3    H271432   5.697   3.204  13.627  1.6132  0.7338 -0.0738
16673TIP3   OH271433   4.574   2.255  15.748 -0.2881  0.1846  0.1536
16673TIP3    H171434   4.547   2.180  15.801 -4.2621  0.3726 -1.2756
16673TIP3    H271435   4.503   2.318  15.759  0.9723  2.0832 -1.8398
16674TIP3   OH271436   2.999   5.312   0.647 -0.4930  0.9266 -0.1602
16674TIP3    H171437   2.914   5.352   0.662 -3.0813 -1.7226 -5.2761
16674TIP3    H271438   3.057   5.385   0.624 -1.8111  2.6113  1.5658
16675TIP3   OH271439   0.951   4.936   1.759  0.2754  0.0041  0.0057
16675TIP3    H171440   1.027   4.993   1.762  0.4158 -0.0886 -1.1774
16675TIP3    H271441   0.984   4.853   1.725 -0.3068 -0.1053 -0.3156
16676TIP3   OH271442   1.260   1.259   4.374  0.4202  0.3812  0.2202
16676TIP3    H171443   1.343   1.286   4.414 -0.6462  4.1905  0.2907
16676TIP3    H271444   1.253   1.314   4.296 -2.8974  1.8305  1.3603
16677TIP3   OH271445   4.202   2.134   1.941  0.0760  0.0772 -0.2856
16677TIP3    H171446   4.133   2.071   1.961  0.5244 -0.5358 -0.6457
16677TIP3    H271447   4.198   2.197   2.013  1.0751 -1.5778  1.2801
16678TIP3   OH271448   2.320   0.826  12.442 -0.1286  0.2295  0.8093
16678TIP3    H171449   2.392   0.766  12.459 -0.5304  0.3541  3.4226
16678TIP3    H271450   2.249   0.796  12.499 -2.6696 -0.6111 -2.5091
16679TIP3   OH271451   3.796   3.882   0.570  0.1478  0.7704 -0.2416
16679TIP3    H171452   3.752   3.855   0.489  0.8903 -0.9609 -0.0991
16679TIP3    H271453   3.882   3.840   0.566 -0.0302  0.1230  1.7438
16680TIP3   OH271454   3.198   4.740  10.464  0.4354 -0.0907 -0.6027
16680TIP3    H171455   3.239   4.780  10.387  1.4421  0.3582  0.1312
16680TIP3    H271456   3.272   4.704  10.514 -0.1903 -0.3488  0.1613
16681TIP3   OH271457   0.947   0.375  12.494 -0.1579 -0.0102  0.1167
16681TIP3    H171458   0.937   0.400  12.402  0.0238  0.1263  0.1329
16681TIP3    H271459   0.994   0.448  12.533 -0.5569  0.0944  0.4012
16682TIP3   OH271460   0.081   3.305  12.725 -0.4846  0.3847 -0.1759
16682TIP3    H171461   0.169   3.328  12.755  0.0301 -0.7537 -0.7581
16682TIP3    H271462   0.037   3.269  12.803 -0.1888  0.2808 -0.0571
16683TIP3   OH271463   1.520   2.907  15.645 -0.1193 -0.0154 -0.0878
16683TIP3    H171464   1.503   2.902  15.739  0.8709 -1.3698  0.0416
16683TIP3    H271465   1.607   2.869  15.633 -0.4904 -0.4930 -1.6171
16684TIP3   OH271466   4.643   6.439   2.555 -0.1617  0.6884  0.3217
16684TIP3    H171467   4.558   6.425   2.512 -0.3296 -0.3736  0.9606
16684TIP3    H271468   4.634   6.525   2.597 -0.3414  1.3010 -0.9160
16685TIP3   OH271469   0.617   1.517   5.655 -0.6963  0.3601  0.0106
16685TIP3    H171470   0.681   1.484   5.592 -0.1613 -1.7265  1.5318
16685TIP3    H271471   0.532   1.499   5.617 -0.3974  0.8913 -0.9342
16686TIP3   OH271472   1.473   6.687  13.126 -0.1433 -1.0485 -0.2178
16686TIP3    H171473   1.527   6.609  13.135  2.0087  0.4243  0.5323
16686TIP3    H271474   1.511   6.735  13.052 -0.8537 -0.3047 -0.1161
16687TIP3   OH271475   1.763   3.065   5.663 -0.3497  0.1118  0.2628
16687TIP3    H171476   1.676   3.036   5.691 -1.9699  2.7182 -1.5776
16687TIP3    H271477   1.786   3.135   5.725 -1.0982  1.5948 -1.0522
16688TIP3   OH271478   4.565   6.503  17.211 -0.0425  0.3821  0.0150
16688TIP3    H171479   4.627   6.431  17.198 -0.7582 -0.3556  0.5526
16688TIP3    H271480   4.492   6.463  17.259 -1.5815  0.8944 -1.7660
16689TIP3   OH271481   6.260   1.236   6.014  0.0848  0.9897  0.2620
16689TIP3    H171482   6.251   1.141   6.015  1.5414  0.8178  2.0986
16689TIP3    H271483   6.204   1.266   6.086  0.1554  1.4730  0.1190
16690TIP3   OH271484   1.803   4.840  13.688  0.0366  0.2983 -0.2724
16690TIP3    H171485   1.873   4.779  13.664  0.2157  0.6558 -0.6799
16690TIP3    H271486   1.844   4.900  13.750 -0.1060  0.0743  0.0366
16691TIP3   OH271487   0.503   5.912  17.072  0.1979 -0.0369 -0.4962
16691TIP3    H171488   0.409   5.915  17.052  0.1193 -1.8988 -0.5620
16691TIP3    H271489   0.541   5.859  17.002  0.9745 -0.9761  0.6074
16692TIP3   OH271490   6.495   4.793   4.530  0.1561 -0.5236 -0.0222
16692TIP3    H171491   6.440   4.717   4.550 -0.3170 -0.2933 -0.4258
16692TIP3    H271492   6.531   4.819   4.615 -0.4441 -0.6212  0.2715
16693TIP3   OH271493   1.346   0.553  16.855 -0.0917  0.4413 -0.0781
16693TIP3    H171494   1.425   0.499  16.859 -0.0194  0.5850  0.7488
16693TIP3    H271495   1.355   0.603  16.774  0.8731  0.7600  0.2128
16694TIP3   OH271496   2.416   0.260  11.677  0.0630 -0.5879  0.4332
16694TIP3    H171497   2.323   0.252  11.701 -0.2109  0.0440 -0.3717
16694TIP3    H271498   2.416   0.319  11.602  1.0561 -1.2175 -0.0796
16695TIP3   OH271499   3.426   0.742   2.320 -0.5933 -0.1699 -0.1179
16695TIP3    H171500   3.489   0.790   2.265  0.4463 -0.0676  1.1147
16695TIP3    H271501   3.393   0.673   2.263  1.2093 -0.6895 -0.6172
16696TIP3   OH271502   5.956   1.764   2.089 -0.1856 -0.1665 -0.5836
16696TIP3    H171503   5.980   1.696   2.152  1.6191  0.3305 -0.6742
16696TIP3    H271504   6.011   1.747   2.013  0.7087  1.6625 -0.4097
16697TIP3   OH271505   2.082   2.629  15.513 -0.5652 -0.6176  0.0471
16697TIP3    H171506   2.113   2.709  15.555 -1.2948 -1.2583  1.8813
16697TIP3    H271507   2.001   2.655  15.469 -2.4193 -0.8660  3.0692
16698TIP3   OH271508   2.492   0.069  11.880 -0.5132  0.0530 -0.5041
16698TIP3    H171509   2.451   0.152  11.857  0.2551  0.9427  1.1450
16698TIP3    H271510   2.554   0.051  11.809  0.1946  1.5447 -0.2988
16699TIP3   OH271511   3.362   3.783   4.262  0.2913 -0.1550 -0.1091
16699TIP3    H171512   3.422   3.709   4.272 -0.8332 -1.2756 -1.2948
16699TIP3    H271513   3.305   3.778   4.339  1.3050  0.5560  0.7117
16700TIP3   OH271514   3.640   3.984   3.600  0.3141  0.3044  0.1146
16700TIP3    H171515   3.667   4.031   3.521 -0.3515  0.6673  0.0973
16700TIP3    H271516   3.628   3.894   3.571 -0.5238  0.5561 -0.3428
16701TIP3   OH271517   5.938   6.341  16.373  0.3376 -0.1282  0.1524
16701TIP3    H171518   5.871   6.374  16.432 -0.9511 -1.4361 -0.5012
16701TIP3    H271519   5.902   6.258  16.340  1.9041 -0.4422 -0.8834
16702TIP3   OH271520   4.518   2.632  11.224  0.0096  0.4073 -0.0859
16702TIP3    H171521   4.489   2.710  11.271  1.0282  1.9342 -1.8391
16702TIP3    H271522   4.440   2.601  11.178 -0.0164  1.4802 -0.7963
16703TIP3   OH271523   3.306   3.916  10.603 -0.3957 -0.8218  0.1200
16703TIP3    H171524   3.342   4.005  10.604 -0.8748 -0.5814 -1.4008
16703TIP3    H271525   3.383   3.859  10.597 -0.0976 -0.5107  0.8645
16704TIP3   OH271526   2.635   2.275  11.941 -0.1712 -0.2771  0.0639
16704TIP3    H171527   2.593   2.354  11.908  0.6872  0.7480  1.3334
16704TIP3    H271528   2.565   2.228  11.988 -0.4764  0.1818  0.0712
16705TIP3   OH271529   0.815   2.091   4.514  0.0178  0.1888  0.2501
16705TIP3    H171530   0.885   2.027   4.501 -0.2606 -0.3135  1.1370
16705TIP3    H271531   0.736   2.048   4.480  0.0850  0.6590 -0.5263
16706TIP3   OH271532   1.808   6.726   4.460  0.1711  0.3456 -0.5143
16706TIP3    H171533   1.865   6.799   4.487 -1.1235  1.0258  0.4899
16706TIP3    H271534   1.778   6.688   4.542  0.1533 -0.8136 -1.0366
16707TIP3   OH271535   3.074   2.294   3.478 -0.3194  0.1162  0.0950
16707TIP3    H171536   3.087   2.357   3.407 -0.5292  0.2187  0.1464
16707TIP3    H271537   3.049   2.213   3.433 -0.2858  0.1339  0.0432
16708TIP3   OH271538   3.377   4.203  13.323  0.2882 -0.3664  0.0190
16708TIP3    H171539   3.326   4.165  13.251  1.8505  1.2535 -2.0979
16708TIP3    H271540   3.432   4.131  13.354 -0.4101 -1.1019 -0.4266
16709TIP3   OH271541   0.842   3.328   2.975 -0.2529 -0.0626 -0.1355
16709TIP3    H171542   0.770   3.298   2.920  0.3750 -1.4297 -0.2370
16709TIP3    H271543   0.858   3.418   2.945 -3.5419  1.2586  1.6160
16710TIP3   OH271544   3.589   2.991  14.423 -0.0535  0.4428 -0.4697
16710TIP3    H171545   3.497   3.019  14.419  0.3755  1.9826 -0.4199
16710TIP3    H271546   3.586   2.906  14.466 -1.4266  0.6476 -0.0847
16711TIP3   OH271547   3.394   6.197  13.035 -0.3267  0.3198  0.8059
16711TIP3    H171548   3.390   6.143  13.114 -4.1741  0.7977  1.0978
16711TIP3    H271549   3.488   6.202  13.015  0.5025 -3.8713  2.4751
16712TIP3   OH271550   0.899   5.070   0.447 -0.3558  0.3234  0.2759
16712TIP3    H171551   0.923   5.158   0.416 -2.5453  0.8617 -0.0903
16712TIP3    H271552   0.916   5.013   0.372 -4.1992  1.3834 -1.6733
16713TIP3   OH271553   2.292   1.331  16.779  0.7204 -0.2565  0.5301
16713TIP3    H171554   2.386   1.334  16.761  0.2525  1.5113 -2.0945
16713TIP3    H271555   2.281   1.387  16.856  1.7041  0.4884  0.1529
16714TIP3   OH271556   5.181   3.081   1.731  0.2836  0.0615  0.5342
16714TIP3    H171557   5.211   3.079   1.640 -2.4466  2.8466 -0.6113
16714TIP3    H271558   5.234   3.150   1.771  1.6368 -1.3100  1.2135
16715TIP3   OH271559   0.125   3.204   2.342  0.1621  0.5491  0.6639
16715TIP3    H171560   0.079   3.124   2.370  2.2548 -0.1219  2.4186
16715TIP3    H271561   0.184   3.174   2.273  0.0399  0.8359  0.4343
16716TIP3   OH271562   6.332   1.725  13.397  0.0783  0.1481 -0.4924
16716TIP3    H171563   6.309   1.750  13.486 -0.8609 -0.8854 -0.4241
16716TIP3    H271564   6.296   1.637  13.386 -0.9336  0.7287 -2.2857
16717TIP3   OH271565   6.097   4.972  13.716 -0.3517  0.3041  0.4776
16717TIP3    H171566   6.156   5.046  13.699  0.0978  0.0504  0.9131
16717TIP3    H271567   6.022   4.988  13.659  1.6996 -1.3058 -2.9852
16718TIP3   OH271568   3.366   3.424   4.204 -0.2657 -0.4368  0.0718
16718TIP3    H171569   3.454   3.424   4.241  0.3263  1.4954 -1.2302
16718TIP3    H271570   3.364   3.348   4.145  0.7025 -0.1916 -0.2830
16719TIP3   OH271571   1.133   5.089  13.779 -0.1582  0.2132 -0.2957
16719TIP3    H171572   1.054   5.043  13.750  0.1965 -0.7313  0.1749
16719TIP3    H271573   1.189   5.092  13.702 -1.3994  2.6697 -1.2112
16720TIP3   OH271574   0.945   2.638  15.709  1.0120  0.3004 -0.2488
16720TIP3    H171575   0.887   2.575  15.665 -1.3867  0.8880  1.8409
16720TIP3    H271576   1.020   2.586  15.738 -0.2331 -1.2992  0.1995
16721TIP3   OH271577   4.378   4.207   1.032  0.4875  0.2123 -0.7551
16721TIP3    H171578   4.326   4.286   1.019 -0.3449 -0.3407 -0.9078
16721TIP3    H271579   4.366   4.157   0.951 -2.7242 -2.1356  0.9280
16722TIP3   OH271580   2.415   3.630  12.535  0.0150 -0.1492 -0.3747
16722TIP3    H171581   2.467   3.701  12.571 -0.6456  0.3038 -0.2981
16722TIP3    H271582   2.425   3.638  12.440  0.3181 -0.2548 -0.3553
16723TIP3   OH271583   6.603   1.096   3.698  0.1058  0.0167  0.0268
16723TIP3    H171584   6.548   1.168   3.729  0.9043 -0.0187  1.6123
16723TIP3    H271585   6.552   1.056   3.627 -1.7299  0.2076  1.1750
16724TIP3   OH271586   4.649   4.520  12.959  0.2279 -0.6213 -0.1305
16724TIP3    H171587   4.667   4.448  13.020 -3.0088 -0.1468  1.6297
16724TIP3    H271588   4.582   4.485  12.901 -0.4692  0.5437 -0.0556
16725TIP3   OH271589   1.390   4.570  14.607 -0.2405 -0.4828 -0.0319
16725TIP3    H171590   1.470   4.526  14.636 -0.6848 -0.0102  2.1458
16725TIP3    H271591   1.418   4.625  14.534  1.6097  0.2089  1.1274
16726TIP3   OH271592   4.171   3.138   1.233 -0.0607 -0.8076 -0.0163
16726TIP3    H171593   4.238   3.133   1.165 -0.8002 -0.5456 -0.7804
16726TIP3    H271594   4.134   3.050   1.236  0.5812 -1.0681  0.7009
16727TIP3   OH271595   4.975   6.285   3.688 -0.3233  0.1188  0.0280
16727TIP3    H171596   4.884   6.307   3.706 -0.9611 -2.4930  0.3525
16727TIP3    H271597   4.972   6.195   3.656  2.1835 -0.2306  0.5751
16728TIP3   OH271598   2.365   2.821  12.599 -0.3910 -0.0304 -0.2660
16728TIP3    H171599   2.361   2.863  12.513  0.6444  0.7609  0.0503
16728TIP3    H271600   2.399   2.733  12.582 -1.1767 -0.2462 -0.7689
16729TIP3   OH271601   5.614   0.300  11.664 -0.1203 -0.2287 -0.6110
16729TIP3    H171602   5.535   0.283  11.716 -0.3982  0.4701 -0.7991
16729TIP3    H271603   5.588   0.367  11.602  0.7341  0.3052 -0.4107
16730TIP3   OH271604   2.460   0.380  12.480 -0.5647  0.8409  0.9004
16730TIP3    H171605   2.468   0.321  12.555 -1.0268  1.1629  1.2059
16730TIP3    H271606   2.451   0.467  12.519  0.7243  1.2049  0.4505
16731TIP3   OH271607   6.345   5.577  14.263 -0.2770  0.0099 -0.5384
16731TIP3    H171608   6.321   5.629  14.341 -1.3959 -1.1708 -0.0519
16731TIP3    H271609   6.439   5.565  14.270 -0.1700  1.0031 -0.0579
16732TIP3   OH271610   6.354   4.715  14.202 -0.7235  0.1576 -0.0526
16732TIP3    H171611   6.380   4.625  14.219 -0.5648  0.2535  0.2158
16732TIP3    H271612   6.316   4.745  14.284 -2.6898 -0.3201 -0.7485
16733TIP3   OH271613   2.082   1.963   4.552  0.3130  0.5580  0.1507
16733TIP3    H171614   2.155   1.921   4.599  0.5409  0.6186 -0.1476
16733TIP3    H271615   2.117   2.048   4.525  0.3991  0.2614 -0.6917
16734TIP3   OH271616   5.867   0.766  13.665 -0.0159  0.2572  0.4790
16734TIP3    H171617   5.790   0.709  13.664 -0.7780  1.2112  1.5515
16734TIP3    H271618   5.833   0.852  13.690  1.2592  0.9411 -0.0499
16735TIP3   OH271619   1.444   3.120   0.434 -0.1126  0.0248  0.1327
16735TIP3    H171620   1.468   3.200   0.480  0.8195 -0.2692  0.1643
16735TIP3    H271621   1.385   3.150   0.364  2.0704  1.0840 -1.3685
16736TIP3   OH271622   4.705   0.849  16.027  0.3930 -0.0069  0.2636
16736TIP3    H171623   4.790   0.870  16.065  0.1042  1.5213  0.1226
16736TIP3    H271624   4.719   0.767  15.980  1.5240 -0.2996  1.0802
16737TIP3   OH271625   3.600   2.191  14.291 -0.4689  0.7299 -0.1825
16737TIP3    H171626   3.656   2.207  14.215 -0.9429 -1.6968 -1.1336
16737TIP3    H271627   3.529   2.137  14.257 -0.9269 -0.0745  1.8940
16738TIP3   OH271628   4.514   5.863   2.250 -0.0377 -0.6198 -0.4805
16738TIP3    H171629   4.501   5.785   2.197 -0.8858 -0.8073 -0.0206
16738TIP3    H271630   4.450   5.855   2.321  1.0949 -0.4120  0.6146
16739TIP3   OH271631   1.606   0.059  12.920 -0.3181 -0.7495 -0.4776
16739TIP3    H171632   1.544   0.128  12.947 -2.0546 -1.6463 -1.9757
16739TIP3    H271633   1.667   0.104  12.862 -0.2705 -0.0837  0.0723
16740TIP3   OH271634   5.370   3.616   3.861  0.5819  0.6562  0.3744
16740TIP3    H171635   5.426   3.643   3.788  1.1550  0.6106  0.7913
16740TIP3    H271636   5.428   3.613   3.936  0.1012  0.2159  0.7395
16741TIP3   OH271637   5.785   1.759  16.134  0.5486 -0.1560  0.6965
16741TIP3    H171638   5.761   1.775  16.225 -0.9236  1.9519  0.0221
16741TIP3    H271639   5.704   1.728  16.093  1.3309 -1.5853  0.2005
16742TIP3   OH271640   5.175   0.304   5.200 -0.2877  0.0846 -0.7194
16742TIP3    H171641   5.200   0.383   5.248 -1.5703 -0.2466  0.5255
16742TIP3    H271642   5.202   0.231   5.256  1.1074 -0.4146 -1.9651
16743TIP3   OH271643   4.573   1.326  15.279 -0.5136  0.2495  0.0225
16743TIP3    H171644   4.519   1.274  15.338 -1.0236  0.0691 -0.5824
16743TIP3    H271645   4.660   1.326  15.318 -0.2293 -1.9814 -0.5061
16744TIP3   OH271646   5.270   6.772   3.609 -0.2930  0.4808 -0.4500
16744TIP3    H171647   5.320   6.705   3.563 -1.6096 -0.3519 -0.7166
16744TIP3    H271648   5.180   6.759   3.580 -0.8574  1.1997  0.8842
16745TIP3   OH271649   2.888   3.812  13.592  0.3237  0.6327 -0.0239
16745TIP3    H171650   2.809   3.809  13.646 -0.4997  2.0339 -1.0637
16745TIP3    H271651   2.879   3.738  13.531  0.1088  0.4378  0.2432
16746TIP3   OH271652   4.025   5.866   4.369  0.4129  0.8984  0.0398
16746TIP3    H171653   4.075   5.946   4.353 -2.0056  2.3710 -0.6828
16746TIP3    H271654   3.975   5.852   4.289  0.7468 -1.3844  0.1602
16747TIP3   OH271655   1.004   3.560   6.241  0.5115 -0.2218 -0.0389
16747TIP3    H171656   0.910   3.563   6.222  0.6672 -0.5202 -0.9054
16747TIP3    H271657   1.017   3.629   6.306 -0.4818 -0.8709  0.8893
16748TIP3   OH271658   0.244   3.263  11.653 -0.1175 -0.1681  0.0834
16748TIP3    H171659   0.326   3.293  11.614  1.0172 -1.5862  1.2454
16748TIP3    H271660   0.233   3.316  11.732 -1.6676  1.7111 -1.2895
16749TIP3   OH271661   5.648   4.683  16.224  0.6413 -1.0566  0.5069
16749TIP3    H171662   5.668   4.697  16.316 -0.8189 -0.7931  0.8017
16749TIP3    H271663   5.658   4.770  16.184 -0.1347 -0.8709  0.7041
16750TIP3   OH271664   4.761   2.104   0.803 -0.1984  0.2079  0.1650
16750TIP3    H171665   4.713   2.121   0.884 -0.8160 -0.0224 -0.1501
16750TIP3    H271666   4.693   2.092   0.737  0.1734 -2.7796  0.1878
16751TIP3   OH271667   2.932   6.738  13.862 -0.4115 -0.5403  0.1507
16751TIP3    H171668   2.877   6.803  13.817  0.1068  1.4640  2.2560
16751TIP3    H271669   2.869   6.674  13.895 -0.8259 -2.0336 -3.1483
16752TIP3   OH271670   6.764   5.949   1.678  0.1008  0.6756  0.4640
16752TIP3    H171671   6.737   6.039   1.659 -1.2029  0.1501 -0.3122
16752TIP3    H271672   6.763   5.905   1.593 -0.7429 -0.4306  1.0129
16753TIP3   OH271673   3.475   3.337   1.387 -0.0246  0.3008 -0.6140
16753TIP3    H171674   3.492   3.429   1.365  0.0763  0.0992 -1.3968
16753TIP3    H271675   3.443   3.299   1.306  0.8494 -0.5893 -0.5515
16754TIP3   OH271676   5.762   5.539   0.862  0.3378  0.2626  0.2999
16754TIP3    H171677   5.787   5.632   0.861  0.2645  0.2814  0.0404
16754TIP3    H271678   5.820   5.498   0.797  1.7070 -0.2356  1.7691
16755TIP3   OH271679   2.639   2.179  14.785  0.0473 -0.5519  0.0598
16755TIP3    H171680   2.556   2.133  14.796 -0.5565  0.2816 -0.8364
16755TIP3    H271681   2.631   2.223  14.700  1.3514 -0.3543  0.0221
16756TIP3   OH271682   2.637   4.478   2.030  0.1749  0.5804  0.8550
16756TIP3    H171683   2.552   4.471   1.987  0.4087  0.0667  0.4664
16756TIP3    H271684   2.698   4.503   1.960  0.2650  1.4148  1.2216
16757TIP3   OH271685   0.895   0.684  11.073  0.2702 -0.0319  0.0480
16757TIP3    H171686   0.870   0.773  11.097  1.1228  0.9460 -2.3813
16757TIP3    H271687   0.974   0.667  11.124 -0.7561 -0.0525  1.7073
16758TIP3   OH271688   3.243   3.593   1.938 -0.5381  0.2050 -0.0063
16758TIP3    H171689   3.249   3.566   1.846 -0.8255  1.4827 -0.4119
16758TIP3    H271690   3.328   3.631   1.958 -0.6462  0.3881  0.1098
16759TIP3   OH271691   6.085   2.397  11.637  0.0255  0.0753  0.4166
16759TIP3    H171692   6.063   2.320  11.583 -2.0190  1.8668 -1.5455
16759TIP3    H271693   6.168   2.375  11.678  0.6801 -2.2800 -1.9070
16760TIP3   OH271694   0.453   6.298   3.776  0.4898 -0.1975 -0.5787
16760TIP3    H171695   0.525   6.243   3.744  1.0696 -0.3230  0.8568
16760TIP3    H271696   0.429   6.352   3.701  1.7651 -0.4947 -1.2343
16761TIP3   OH271697   2.721   5.909  13.070  0.3267  0.0388  0.1759
16761TIP3    H171698   2.633   5.882  13.046 -0.0979 -1.0435  2.6342
16761TIP3    H271699   2.769   5.827  13.080  1.4687  0.5935 -0.5521
16762TIP3   OH271700   6.476   4.246   0.941  0.4036 -0.0115 -0.2742
16762TIP3    H171701   6.407   4.222   0.879  0.3930 -0.0216 -0.2587
16762TIP3    H271702   6.462   4.189   1.016  0.0588  0.4023 -0.0191
16763TIP3   OH271703   5.273   0.680   1.476  0.2085  0.6183  0.0081
16763TIP3    H171704   5.226   0.665   1.394  0.7997  1.9074 -0.5920
16763TIP3    H271705   5.335   0.607   1.482  0.4203  0.7110 -0.8899
16764TIP3   OH271706   4.873   6.508  14.785  0.4628  0.1645  0.3260
16764TIP3    H171707   4.837   6.426  14.752 -0.2415  0.1723  1.0538
16764TIP3    H271708   4.963   6.486  14.810  2.1286  0.7820 -4.1638
16765TIP3   OH271709   4.057   2.075  11.135  0.3513 -0.2628 -0.2278
16765TIP3    H171710   4.045   1.980  11.127 -3.0237 -0.0588  0.6015
16765TIP3    H271711   4.054   2.107  11.045 -0.5838 -0.8359 -0.4244
16766TIP3   OH271712   5.813   3.300   5.577 -0.2864  0.1292  0.2164
16766TIP3    H171713   5.853   3.384   5.552 -0.4552 -0.3170 -1.6887
16766TIP3    H271714   5.755   3.322   5.650  1.6234  1.1940  1.5040
16767TIP3   OH271715   4.862   2.335  15.758 -0.0157 -0.0301  0.7629
16767TIP3    H171716   4.914   2.263  15.793 -1.1100 -0.3123  1.8885
16767TIP3    H271717   4.773   2.317  15.789 -0.0764  2.5755  2.3942
16768TIP3   OH271718   3.902   0.994  16.869  0.3843  0.1827 -0.0021
16768TIP3    H171719   3.807   0.989  16.870  0.4348 -1.3123  1.5013
16768TIP3    H271720   3.926   1.017  16.959  1.4396  1.0427 -0.4737
16769TIP3   OH271721   6.524   6.498   2.821 -0.1847  0.3835  0.2015
16769TIP3    H171722   6.619   6.507   2.823 -0.3609  2.7329  1.0658
16769TIP3    H271723   6.507   6.412   2.860  1.4900  1.0934  2.7649
16770TIP3   OH271724   1.525   6.734  15.063  0.5159 -0.1992 -0.0823
16770TIP3    H171725   1.569   6.805  15.015  0.9307  1.0639  2.0648
16770TIP3    H271726   1.432   6.744  15.041  0.6002  0.8621  0.0237
16771TIP3   OH271727   6.489   5.423   4.063  0.3937  0.1121  0.1286
16771TIP3    H171728   6.551   5.471   4.117  1.2605 -0.5329 -0.2664
16771TIP3    H271729   6.463   5.348   4.117  0.4625  0.0315  0.0512
16772TIP3   OH271730   6.142   6.220   1.796  0.7780 -0.1544  0.0394
16772TIP3    H171731   6.161   6.228   1.890 -1.6947 -0.0263  0.5796
16772TIP3    H271732   6.117   6.308   1.769 -1.2684 -0.7231 -0.0469
16773TIP3   OH271733   1.850   2.591   3.416  0.0381 -0.1647  0.7630
16773TIP3    H171734   1.894   2.588   3.501 -1.4178 -0.5387  1.5292
16773TIP3    H271735   1.841   2.685   3.397 -1.0127 -0.0423  1.7820
16774TIP3   OH271736   3.853   0.965   5.353  0.4375  0.5177  0.3276
16774TIP3    H171737   3.762   0.956   5.381  0.5175 -0.0052  0.4275
16774TIP3    H271738   3.855   0.930   5.264  0.9552 -1.5913  1.0874
16775TIP3   OH271739   1.161   0.433   1.038  0.2262  0.1490  0.3412
16775TIP3    H171740   1.117   0.446   1.122  1.8113  1.0098  1.0765
16775TIP3    H271741   1.167   0.337   1.030 -0.5297  0.0417  0.8591
16776TIP3   OH271742   5.618   0.567   5.750 -0.0193 -0.4598  0.4311
16776TIP3    H171743   5.566   0.531   5.822 -0.2548  0.6902  0.8574
16776TIP3    H271744   5.661   0.643   5.787  0.8293 -0.5586 -0.3247
16777TIP3   OH271745   5.285   4.613   3.581  0.0527 -0.4365  0.1425
16777TIP3    H171746   5.306   4.600   3.673  0.9403 -1.5903 -0.1952
16777TIP3    H271747   5.201   4.658   3.581 -0.6585 -1.6875  1.4963
16778TIP3   OH271748   3.674   3.896  12.607  0.6092 -0.0981 -0.2376
16778TIP3    H171749   3.739   3.938  12.551  1.8045 -1.0346  0.3875
16778TIP3    H271750   3.696   3.927  12.696  1.7381 -2.2065  0.2848
16779TIP3   OH271751   2.326   3.676  17.000  0.0184 -0.0939  0.4361
16779TIP3    H171752   2.358   3.721  16.922  0.9065  0.5808  1.1690
16779TIP3    H271753   2.293   3.593  16.968 -0.5839  0.6020 -0.7929
16780TIP3   OH271754   0.915   3.170  15.793 -0.7774 -0.2134 -0.3538
16780TIP3    H171755   0.860   3.221  15.853 -1.6397 -2.1427  0.5852
16780TIP3    H271756   0.993   3.225  15.780 -2.0952  1.8064 -0.2892
16781TIP3   OH271757   6.147   4.587   3.673  0.3777 -0.1390 -0.0093
16781TIP3    H171758   6.228   4.544   3.699  0.4443 -1.8274 -2.6096
16781TIP3    H271759   6.169   4.632   3.591 -1.1477 -0.0909 -0.4295
16782TIP3   OH271760   3.366   6.548   4.875 -0.5003  0.0395 -0.2969
16782TIP3    H171761   3.403   6.628   4.911 -1.9552  0.4357  0.3938
16782TIP3    H271762   3.363   6.563   4.781 -0.2637  0.5847 -0.2210
16783TIP3   OH271763   5.945   6.296   0.148 -0.3024  0.2507 -0.4564
16783TIP3    H171764   5.991   6.220   0.181 -2.1790 -0.4782  0.6542
16783TIP3    H271765   5.967   6.366   0.210  0.0671  0.1711 -0.4957
16784TIP3   OH271766   4.907   5.498  11.026 -0.8549 -0.0322  0.0845
16784TIP3    H171767   4.972   5.442  11.068  0.8762  2.8835  1.6486
16784TIP3    H271768   4.943   5.514  10.938 -0.2988  0.2626  0.3633
16785TIP3   OH271769   0.537   6.216  13.266  0.3878 -0.1315 -0.0025
16785TIP3    H171770   0.455   6.168  13.267  0.1503  0.2434 -0.8860
16785TIP3    H271771   0.513   6.306  13.247  0.8510  0.3183  1.4149
16786TIP3   OH271772   5.677   3.727  12.321  0.6864  0.3718 -0.2591
16786TIP3    H171773   5.585   3.729  12.293  0.4282  3.3463  0.4857
16786TIP3    H271774   5.727   3.731  12.240  0.1256  0.0433 -0.6238
16787TIP3   OH271775   2.945   3.144   5.273  0.1205 -0.0774 -0.0221
16787TIP3    H171776   2.863   3.195   5.277  1.1108  1.7450 -1.3174
16787TIP3    H271777   2.952   3.117   5.182  0.0726 -1.8401  0.4700
16788TIP3   OH271778   3.952   6.491   3.536 -0.2226 -0.0993  0.0898
16788TIP3    H171779   4.007   6.505   3.613 -0.1686 -1.7488  0.3974
16788TIP3    H271780   3.867   6.465   3.571 -0.2909 -0.5527 -0.3943
16789TIP3   OH271781   4.489   5.092  11.868  0.2066  0.5780  0.7901
16789TIP3    H171782   4.452   5.100  11.780 -0.0188  0.3495  0.8618
16789TIP3    H271783   4.566   5.036  11.857  1.4985  2.3564  0.3730
16790TIP3   OH271784   5.899   5.808   0.836  0.0844 -0.1157  0.1756
16790TIP3    H171785   5.838   5.819   0.763  2.1036  0.0994 -1.5668
16790TIP3    H271786   5.974   5.763   0.798  1.1926 -0.0300  2.1513
16791TIP3   OH271787   0.485   4.637   0.895  0.3583 -0.3486  0.0643
16791TIP3    H171788   0.552   4.589   0.845 -0.8417 -0.6196 -1.3712
16791TIP3    H271789   0.426   4.569   0.926 -0.3010  0.0291 -0.3397
16792TIP3   OH271790   5.115   2.054  12.443  0.1306 -0.0323 -0.3657
16792TIP3    H171791   5.031   2.018  12.414  0.4451 -1.3266  0.2582
16792TIP3    H271792   5.108   2.148  12.426 -0.9597 -0.2877 -1.4764
16793TIP3   OH271793   5.722   1.657   1.318 -0.3113  0.4307  0.2170
16793TIP3    H171794   5.748   1.599   1.390 -0.4393 -0.7118 -0.6265
16793TIP3    H271795   5.804   1.695   1.288 -0.3460  1.6220  1.5158
16794TIP3   OH271796   0.744   1.872  12.622 -0.3358  0.0407 -0.2467
16794TIP3    H171797   0.693   1.901  12.546  1.1037  0.6077 -1.0285
16794TIP3    H271798   0.682   1.821  12.675 -1.4629 -0.0400 -1.6051
16795TIP3   OH271799   5.148   4.203  14.310  0.0610  1.0841  0.4159
16795TIP3    H171800   5.209   4.237  14.375 -1.2284  0.7670  1.8574
16795TIP3    H271801   5.062   4.215  14.350 -0.8985  1.9881 -1.7468
16796TIP3   OH271802   4.461   3.473   5.990  0.4259  0.3999 -0.0396
16796TIP3    H171803   4.369   3.451   5.974  0.5077  1.1642 -1.9502
16796TIP3    H271804   4.461   3.568   6.003  1.0786  0.7302 -1.9833
16797TIP3   OH271805   6.144   6.428   2.665 -0.4196 -0.3392  0.0529
16797TIP3    H171806   6.083   6.501   2.672  1.1399  1.0593 -0.3800
16797TIP3    H271807   6.159   6.401   2.756 -2.3358 -1.3457  0.1319
16798TIP3   OH271808   1.643   4.083   4.283 -0.1187  0.5202 -0.3095
16798TIP3    H171809   1.732   4.110   4.307 -0.7918  0.9173  2.0335
16798TIP3    H271810   1.596   4.079   4.367 -2.1847 -0.1718 -1.4291
16799TIP3   OH271811   4.330   1.690  11.528 -0.6338 -0.0151  0.4137
16799TIP3    H171812   4.402   1.677  11.466  0.4696  1.9121  1.2373
16799TIP3    H271813   4.373   1.697  11.613 -2.0048 -0.9322  1.2182
16800TIP3   OH271814   6.382   6.693  13.955  0.6895  0.0895 -0.2180
16800TIP3    H171815   6.375   6.774  14.006  0.7623 -0.0949  0.0927
16800TIP3    H271816   6.324   6.706  13.881 -2.0835 -0.9288  1.6155
16801TIP3   OH271817   1.116   2.086  15.484  0.2207  0.5253  0.4620
16801TIP3    H171818   1.046   2.106  15.421 -1.4397 -0.8414  1.7919
16801TIP3    H271819   1.193   2.071  15.429 -1.2685 -1.0476 -1.3471
16802TIP3   OH271820   0.222   6.289   2.421 -0.2332 -0.7520 -0.6643
16802TIP3    H171821   0.210   6.195   2.433 -1.4058 -0.5371 -0.0600
16802TIP3    H271822   0.192   6.306   2.331 -2.7877 -0.5528  0.1362
16803TIP3   OH271823   6.734   3.508   3.072  0.3526  0.3818  0.5929
16803TIP3    H171824   6.704   3.539   3.157  1.1707 -0.3362  1.1621
16803TIP3    H271825   6.724   3.413   3.077 -0.5986  0.3991 -0.5172
16804TIP3   OH271826   4.768   4.093  15.158 -0.3597  0.3841  0.2065
16804TIP3    H171827   4.847   4.139  15.185 -0.0415  1.4194 -2.2313
16804TIP3    H271828   4.704   4.163  15.143 -1.6219 -0.3963  1.5786
16805TIP3   OH271829   5.915   0.815  10.821 -0.7912  0.4453 -0.4004
16805TIP3    H171830   5.823   0.798  10.804 -0.6774  1.4457 -2.2979
16805TIP3    H271831   5.921   0.824  10.916 -2.4148 -0.7821 -0.1459
16806TIP3   OH271832   4.893   1.209   4.143  0.0791  0.4502 -0.2232
16806TIP3    H171833   4.850   1.285   4.104  1.7354  1.7907  0.4666
16806TIP3    H271834   4.985   1.234   4.151  0.6470 -1.5499  0.2408
16807TIP3   OH271835   4.424   0.037   4.844  0.3809 -0.0371 -0.3716
16807TIP3    H171836   4.346   0.084   4.814 -0.2565 -0.5013  0.5010
16807TIP3    H271837   4.446   0.078   4.927 -0.9495 -2.0199  1.0653
16808TIP3   OH271838   2.113   5.232   6.254  0.3706 -0.1211  0.1723
16808TIP3    H171839   2.144   5.213   6.343  1.0465 -2.2184 -0.4277
16808TIP3    H271840   2.193   5.246   6.204  0.0088  0.6987 -0.1917
16809TIP3   OH271841   6.075   4.271  13.330 -0.6184 -0.5548 -0.0419
16809TIP3    H171842   6.038   4.321  13.403  0.2432  2.2980 -1.4069
16809TIP3    H271843   6.005   4.212  13.303 -2.6451  1.6187  0.1806
16810TIP3   OH271844   2.477   0.608   4.111 -0.5165  0.1888 -0.8155
16810TIP3    H171845   2.443   0.532   4.063  0.0661  0.8769 -2.3726
16810TIP3    H271846   2.541   0.648   4.052 -0.8735  1.9574 -0.0815
16811TIP3   OH271847   3.457   2.282  10.756 -0.2025 -0.4401 -0.1521
16811TIP3    H171848   3.509   2.332  10.694  0.9739 -1.0097  0.3411
16811TIP3    H271849   3.422   2.347  10.817 -0.6408  0.0217 -0.8935
16812TIP3   OH271850   6.696   3.661  13.544  0.1403  0.0198 -0.2294
16812TIP3    H171851   6.682   3.567  13.546 -1.2130  0.1949  0.9012
16812TIP3    H271852   6.630   3.696  13.605 -0.6473  1.8350 -2.0003
16813TIP3   OH271853   2.698   4.655  12.549  0.3584  0.5390 -0.8218
16813TIP3    H171854   2.794   4.652  12.548  0.3350 -1.5028 -2.0063
16813TIP3    H271855   2.675   4.709  12.473  0.6217 -1.7534 -2.6589
16814TIP3   OH271856   6.290   3.142  11.411  0.2993 -0.7994 -0.5243
16814TIP3    H171857   6.303   3.086  11.334  1.1114 -0.4950 -0.6200
16814TIP3    H271858   6.372   3.134  11.460  0.7294  0.8689 -0.9074
16815TIP3   OH271859   6.695   2.619  15.458  0.8051  0.5282  0.2128
16815TIP3    H171860   6.754   2.584  15.391  0.8960  0.4648  0.3250
16815TIP3    H271861   6.712   2.564  15.535 -0.6564 -0.6400 -0.2573
16816TIP3   OH271862   3.502   2.780  16.701 -0.1740 -0.1405 -0.3280
16816TIP3    H171863   3.567   2.849  16.714 -0.5829  0.1519  0.2366
16816TIP3    H271864   3.511   2.724  16.778 -1.0678  0.3058  0.1196
16817TIP3   OH271865   5.116   1.762   4.663  0.2303  0.1315 -0.0154
16817TIP3    H171866   5.049   1.769   4.730  0.4714  0.4392  0.1962
16817TIP3    H271867   5.198   1.750   4.711  0.1480 -1.9924 -0.2936
16818TIP3   OH271868   0.305   6.674  15.328  0.1457  1.1399  0.4766
16818TIP3    H171869   0.367   6.745  15.317 -0.1147  1.4071  0.7210
16818TIP3    H271870   0.228   6.701  15.277 -0.5315  1.7413  1.7687
16819TIP3   OH271871   3.804   5.496  14.617  0.5695 -0.2670  0.1399
16819TIP3    H171872   3.834   5.407  14.631  1.5947  0.1878  0.9845
16819TIP3    H271873   3.724   5.503  14.670  2.3418  0.2807  2.9697
16820TIP3   OH271874   1.416   1.083   1.051 -0.0389  0.1314 -0.2040
16820TIP3    H171875   1.347   1.054   1.111  0.2958 -1.3115 -0.4760
16820TIP3    H271876   1.430   1.008   0.993  0.6925  0.9637 -1.1209
16821TIP3   OH271877   6.562   3.833  12.335 -0.1455  0.8563  0.4248
16821TIP3    H171878   6.499   3.791  12.394 -1.3714  0.5169 -1.0771
16821TIP3    H271879   6.513   3.905  12.295 -0.6583 -1.1783 -3.0043
16822TIP3   OH271880   2.522   5.726  16.565  0.2581  0.8256  0.0730
16822TIP3    H171881   2.439   5.710  16.608  1.4779 -2.4748  1.5747
16822TIP3    H271882   2.504   5.712  16.472 -0.9378  0.4465  0.3476
16823TIP3   OH271883   3.563   0.078   1.768 -0.0659  0.4643  0.1931
16823TIP3    H171884   3.514   0.149   1.809  1.6497  1.7366  0.1346
16823TIP3    H271885   3.654   0.093   1.793  0.4362 -1.4067 -0.2874
16824TIP3   OH271886   3.884   4.487  12.581 -0.6914 -0.0978 -0.2767
16824TIP3    H171887   3.978   4.501  12.568 -0.4125 -0.8472  0.8003
16824TIP3    H271888   3.853   4.567  12.623 -0.1654 -0.5095  0.9606
16825TIP3   OH271889   5.964   0.597   2.860 -0.0484  0.1687 -0.0593
16825TIP3    H171890   5.948   0.524   2.919  1.0919  0.7947  1.0691
16825TIP3    H271891   6.053   0.582   2.826  0.2317  1.0633  0.2533
16826TIP3   OH271892   4.151   1.497  11.465 -0.1004  0.0454 -0.2242
16826TIP3    H171893   4.223   1.558  11.478  2.3185 -2.4562 -0.8065
16826TIP3    H271894   4.118   1.516  11.377  0.8504  0.2908 -0.5379
16827TIP3   OH271895   3.198   3.734  13.137  1.0824  0.4096  0.5861
16827TIP3    H171896   3.185   3.682  13.217 -0.4625  1.3602  0.9795
16827TIP3    H271897   3.219   3.669  13.070  0.2712 -0.6296  1.3030
16828TIP3   OH271898   2.431   0.028  12.225  0.4503  0.0381  0.1805
16828TIP3    H171899   2.393  -0.013  12.147 -0.7331  1.1703  0.1178
16828TIP3    H271900   2.510   0.070  12.193 -0.0587  0.5437 -0.4523
16829TIP3   OH271901   4.441   3.850   0.113  0.0698  0.4356 -0.5609
16829TIP3    H171902   4.467   3.942   0.117  0.3649  0.3137  0.9750
16829TIP3    H271903   4.352   3.848   0.147 -1.0855  0.5013 -3.3588
16830TIP3   OH271904   3.991   0.671   3.321 -0.4888 -0.6927  0.2477
16830TIP3    H171905   4.080   0.654   3.352 -1.2494 -1.3903  2.2226
16830TIP3    H271906   3.942   0.695   3.400 -2.1315 -0.6393 -0.7334
16831TIP3   OH271907   3.873   2.105   3.988  0.5150 -0.3925 -0.3081
16831TIP3    H171908   3.885   2.073   4.077  0.7719 -0.8638 -0.5097
16831TIP3    H271909   3.903   2.196   3.990  0.2533 -0.3137  0.1499
16832TIP3   OH271910   6.636   3.131   2.168 -0.6098  0.1417  0.0569
16832TIP3    H171911   6.599   3.218   2.151  0.2465  0.6022  0.4550
16832TIP3    H271912   6.644   3.127   2.264  0.5728  0.1648 -0.0266
16833TIP3   OH271913   6.712   5.372  14.676 -0.1352 -0.2560  0.0544
16833TIP3    H171914   6.621   5.403  14.670 -0.8955 -2.5163 -1.5276
16833TIP3    H271915   6.764   5.441  14.635 -1.5015 -0.0568 -1.4736
16834TIP3   OH271916   4.430   5.972   2.738 -0.6950  0.2258 -0.1935
16834TIP3    H171917   4.465   5.992   2.825  0.9196 -1.9812 -0.2319
16834TIP3    H271918   4.467   6.039   2.681  1.1181 -0.2962  0.2995
16835TIP3   OH271919   1.900   1.085   5.506 -0.8017  0.0475  0.3021
16835TIP3    H171920   1.934   1.113   5.591  0.5144  1.4231 -0.6243
16835TIP3    H271921   1.917   1.159   5.447  0.5678 -1.7294 -1.7181
16836TIP3   OH271922   2.287   6.290   5.495 -0.5696 -0.2336  1.1640
16836TIP3    H171923   2.253   6.206   5.526  0.5506 -0.5978  1.4518
16836TIP3    H271924   2.274   6.349   5.569  0.0116 -0.5348  1.5127
16837TIP3   OH271925   3.255   6.038  13.804 -0.0556  0.0903  0.0915
16837TIP3    H171926   3.271   5.981  13.729 -1.4068 -0.5711  0.2648
16837TIP3    H271927   3.334   6.091  13.812  1.4917 -2.1390  0.2656
16838TIP3   OH271928   0.858   3.656  17.092 -0.2190  0.1860 -0.0319
16838TIP3    H171929   0.800   3.602  17.037  0.1094  0.4670 -0.6668
16838TIP3    H271930   0.801   3.723  17.128 -0.2187  0.7132 -0.9940
16839TIP3   OH271931   4.799   1.266  11.372  0.0176  0.2182 -0.4863
16839TIP3    H171932   4.831   1.310  11.294  0.5076 -0.5865 -0.7543
16839TIP3    H271933   4.877   1.255  11.427  0.0474 -0.9044 -0.7223
16840TIP3   OH271934   2.800   6.043   1.641  0.2995  0.5826 -0.1002
16840TIP3    H171935   2.801   6.071   1.550 -0.2520 -0.7152 -0.5216
16840TIP3    H271936   2.802   6.124   1.691  2.1165  1.3023 -1.2430
16841TIP3   OH271937   0.465   0.799  16.249 -0.1256 -0.5929 -0.5251
16841TIP3    H171938   0.437   0.712  16.219 -1.4529 -0.6321  0.6855
16841TIP3    H271939   0.557   0.788  16.272 -0.0604 -1.4742 -1.1476
16842TIP3   OH271940   5.311   4.272   4.503  0.1723 -0.9022  0.5022
16842TIP3    H171941   5.225   4.253   4.467 -0.0932 -3.0012  2.0450
16842TIP3    H271942   5.367   4.202   4.470  1.2511  0.2278 -0.1834
16843TIP3   OH271943   3.092   0.330  13.949 -0.3036 -0.5433 -0.2168
16843TIP3    H171944   3.025   0.323  14.018  1.6353  0.9950  2.0096
16843TIP3    H271945   3.128   0.242  13.942  0.8710 -0.3532  2.3714
16844TIP3   OH271946   2.789   6.568  11.119 -0.0823  0.1162  0.5403
16844TIP3    H171947   2.704   6.604  11.096 -0.3088 -0.0064  1.1866
16844TIP3    H271948   2.806   6.502  11.052 -0.2352  0.5354  0.0842
16845TIP3   OH271949   1.467   1.866   0.739  0.9253 -0.4151  0.3236
16845TIP3    H171950   1.437   1.953   0.765  1.0079  0.2811 -1.6909
16845TIP3    H271951   1.438   1.808   0.809 -0.6428  0.9830  0.8843
16846TIP3   OH271952   5.548   5.787  14.668  0.4819 -0.1266 -0.4248
16846TIP3    H171953   5.644   5.783  14.665  0.4372 -1.6292 -2.8693
16846TIP3    H271954   5.529   5.879  14.686  2.3932  0.4249 -0.9179
16847TIP3   OH271955   1.692   2.934  12.992 -0.5829 -0.9744  0.0216
16847TIP3    H171956   1.710   2.853  12.944  1.7296 -0.6272  0.1592
16847TIP3    H271957   1.737   3.002  12.941 -1.1801 -0.0248  0.7378
16848TIP3   OH271958   3.900   2.316  11.765  0.7065 -0.7348 -0.1485
16848TIP3    H171959   3.925   2.225  11.783  0.7606 -0.7289 -0.1940
16848TIP3    H271960   3.930   2.364  11.843  0.7247 -0.7480 -0.1475
16849TIP3   OH271961   6.186   1.642   4.242  0.0172 -0.7254  0.1214
16849TIP3    H171962   6.134   1.602   4.173  0.3897 -0.8983 -0.0633
16849TIP3    H271963   6.181   1.580   4.315 -1.0345 -0.1660  0.5395
16850TIP3   OH271964   3.112   1.601   4.434 -0.2373 -0.3560  0.1902
16850TIP3    H171965   3.173   1.537   4.471  0.2697 -0.4165 -0.7289
16850TIP3    H271966   3.117   1.676   4.493 -0.5498 -0.9998  1.0637
16851TIP3   OH271967   1.162   6.339  16.442  0.0041 -0.0461 -0.0815
16851TIP3    H171968   1.070   6.336  16.417  0.1637 -0.0554 -0.6800
16851TIP3    H271969   1.177   6.430  16.469 -0.5383 -0.3873  1.4311
16852TIP3   OH271970   6.727   4.811  12.353 -0.5404  0.9285 -0.3065
16852TIP3    H171971   6.674   4.889  12.373 -1.9073 -0.2785  1.0643
16852TIP3    H271972   6.667   4.738  12.367  1.2578 -0.4747  0.3951
16853TIP3   OH271973   2.936   4.904  15.970 -0.2208 -0.3650  0.3280
16853TIP3    H171974   3.010   4.959  15.946  0.4956 -1.0579  0.8965
16853TIP3    H271975   2.975   4.818  15.988 -0.9712 -0.4030  1.9528
16854TIP3   OH271976   2.679   4.382   0.608 -0.5326  0.1340  0.0536
16854TIP3    H171977   2.627   4.405   0.685  0.2787 -1.3640  1.0954
16854TIP3    H271978   2.768   4.372   0.641 -0.0690  0.0026 -1.1889
16855TIP3   OH271979   1.108   3.519   6.742 -0.1053 -0.5834  0.2675
16855TIP3    H171980   1.127   3.439   6.791  0.9148 -0.3889  0.2244
16855TIP3    H271981   1.039   3.494   6.681  1.4434 -1.9695 -1.0398
16856TIP3   OH271982   0.818   4.495   1.320  0.1764  0.1998  0.2325
16856TIP3    H171983   0.766   4.414   1.316  0.3322  0.0394  1.1389
16856TIP3    H271984   0.832   4.519   1.229  2.0907 -2.0604 -0.1593
16857TIP3   OH271985   2.958   3.365  13.886  0.7087 -0.0744  0.3038
16857TIP3    H171986   3.020   3.393  13.819 -0.7874 -0.0583 -1.1256
16857TIP3    H271987   2.894   3.435  13.891 -0.2480 -0.9307  0.3589
16858TIP3   OH271988   5.254   0.851  13.751  0.1724 -0.2913  0.2750
16858TIP3    H171989   5.214   0.787  13.810  1.1842 -0.9411  0.3013
16858TIP3    H271990   5.210   0.933  13.770  0.2989 -0.5394  1.7785
16859TIP3   OH271991   5.825   6.438   2.540  0.2690 -0.4650 -0.8084
16859TIP3    H171992   5.847   6.451   2.448  1.0375 -0.4154 -0.6248
16859TIP3    H271993   5.843   6.345   2.556 -1.7068 -0.9504 -1.1850
16860TIP3   OH271994   4.461   3.600   2.840  0.1797  0.1301  0.2215
16860TIP3    H171995   4.437   3.675   2.894 -0.0812  0.3478 -0.1894
16860TIP3    H271996   4.404   3.529   2.870 -0.1648  0.3290  0.0384
16861TIP3   OH271997   1.590   1.549  15.069  0.4841  0.8230 -0.6800
16861TIP3    H171998   1.523   1.481  15.063 -2.7478  3.7371 -1.0925
16861TIP3    H271999   1.609   1.571  14.977  0.0265  1.7194 -0.5728
16862TIP3   OH272000   6.399   5.661  11.964 -0.4438 -0.3019 -0.1509
16862TIP3    H172001   6.374   5.707  12.044 -0.1218 -1.8147  0.8713
16862TIP3    H272002   6.450   5.586  11.994 -0.3268 -0.9257 -1.7814
16863TIP3   OH272003   6.523   1.320  12.409  0.3244  0.3389  0.1964
16863TIP3    H172004   6.476   1.241  12.437 -1.2390  1.0960 -0.2021
16863TIP3    H272005   6.543   1.304  12.316  1.9258 -0.4620  0.6433
16864TIP3   OH272006   3.349   0.351   3.732 -0.2215 -0.2597  0.1205
16864TIP3    H172007   3.380   0.266   3.701 -1.7525 -0.3338 -1.3837
16864TIP3    H272008   3.281   0.330   3.796  0.0764 -0.1496  0.4763
16865TIP3   OH272009   1.135   5.941   6.424  0.0713  0.1433 -0.1797
16865TIP3    H172010   1.097   5.998   6.357  1.3805  0.9662 -0.2644
16865TIP3    H272011   1.070   5.940   6.494 -0.5418  0.6990 -0.7224
16866TIP3   OH272012   5.181   0.913   1.568 -0.2949  0.0595  0.3940
16866TIP3    H172013   5.225   0.830   1.548  3.8479  1.9098  0.6785
16866TIP3    H272014   5.166   0.953   1.482  1.1734  0.5064  0.3100
16867TIP3   OH272015   6.713   1.394  17.236  0.5945  0.2891 -0.2281
16867TIP3    H172016   6.801   1.390  17.273  0.8442 -0.2098 -0.8544
16867TIP3    H272017   6.727   1.412  17.143 -0.0265  1.8520 -0.0587
16868TIP3   OH272018   1.853   1.910   3.533  0.1527  0.3357  0.0042
16868TIP3    H172019   1.813   1.872   3.611  1.4955  2.7217  1.9797
16868TIP3    H272020   1.947   1.895   3.544  0.3855  0.8033 -1.1202
16869TIP3   OH272021   4.621   3.340  11.787  0.1173  0.5036 -0.6835
16869TIP3    H172022   4.665   3.297  11.859  0.0590 -0.6864 -1.3286
16869TIP3    H272023   4.551   3.280  11.762 -0.7250  1.5150 -0.8654
16870TIP3   OH272024   0.944   4.002  11.980 -0.5640  0.3825  0.0892
16870TIP3    H172025   0.856   4.002  12.017 -1.0388 -3.3422 -0.6486
16870TIP3    H272026   0.988   3.928  12.022  1.6341  1.0693 -0.8596
16871TIP3   OH272027   6.050   5.411  12.355 -0.4809  0.0003  0.3969
16871TIP3    H172028   5.968   5.429  12.310 -0.2579  0.8761  0.3218
16871TIP3    H272029   6.101   5.360  12.293 -0.4242  0.6572 -0.1072
16872TIP3   OH272030   5.359   2.578   5.417 -0.3214 -0.0585  0.3093
16872TIP3    H172031   5.277   2.601   5.461 -0.6512  0.4414 -0.5452
16872TIP3    H272032   5.331   2.534   5.337  0.2238  0.9992 -0.4714
16873TIP3   OH272033   5.183   5.630   3.665 -0.3576 -0.0295  0.4789
16873TIP3    H172034   5.255   5.597   3.718 -0.7106 -1.0396  0.3617
16873TIP3    H272035   5.105   5.612   3.717 -0.6772 -0.7352 -0.2301
16874TIP3   OH272036   1.419   0.758  14.751 -0.0098 -0.4148  0.0028
16874TIP3    H172037   1.413   0.759  14.847  1.5950 -0.4065  0.1256
16874TIP3    H272038   1.471   0.680  14.731 -0.8405 -0.7559 -0.9121
16875TIP3   OH272039   5.167   6.141  15.713 -0.6536 -0.6826 -0.2823
16875TIP3    H172040   5.097   6.080  15.686 -0.4613 -0.3944 -1.4344
16875TIP3    H272041   5.181   6.119  15.806 -2.1952 -0.8223 -0.0411
16876TIP3   OH272042   4.426   5.185  12.405 -0.3207  0.8757 -0.2183
16876TIP3    H172043   4.455   5.170  12.315  4.5983  0.7252  1.1213
16876TIP3    H272044   4.409   5.279  12.409 -3.7062  0.4963 -1.8562
16877TIP3   OH272045   1.784   5.840  14.830 -0.2414  0.0713  0.3033
16877TIP3    H172046   1.752   5.785  14.902  0.5540  1.9898  2.2231
16877TIP3    H272047   1.712   5.899  14.811 -0.2408 -0.0558 -0.1017
16878TIP3   OH272048   5.021   5.475   4.578 -0.2482  0.7768  0.0005
16878TIP3    H172049   5.045   5.504   4.666 -0.8830  0.7758  0.1788
16878TIP3    H272050   5.036   5.380   4.581  0.2201  0.8450 -0.0579
16879TIP3   OH272051   1.123   5.745   5.431  0.7164  0.6897 -0.0053
16879TIP3    H172052   1.133   5.654   5.462  1.0125  0.7823  0.1694
16879TIP3    H272053   1.211   5.780   5.431  0.6063  0.9653 -0.1245
16880TIP3   OH272054   6.301   2.759  13.695  0.0782 -0.7887 -0.3278
16880TIP3    H172055   6.390   2.795  13.701  0.7095 -2.4154  0.5788
16880TIP3    H272056   6.255   2.796  13.770  0.1626 -0.4115 -0.4606
16881TIP3   OH272057   5.387   4.319  11.243  0.2642 -0.7465  0.2226
16881TIP3    H172058   5.307   4.366  11.264 -1.5912 -1.5845 -3.9129
16881TIP3    H272059   5.450   4.348  11.309 -3.4727 -0.5030  4.1009
16882TIP3   OH272060   3.480   3.703   1.878  0.2878  0.2680 -0.2966
16882TIP3    H172061   3.501   3.782   1.828  0.7693  0.4992  0.2518
16882TIP3    H272062   3.547   3.640   1.851  1.3310  0.7844  0.9362
16883TIP3   OH272063   5.778   6.655   0.562 -0.4578  0.5950  0.3167
16883TIP3    H172064   5.861   6.649   0.516  0.4844 -1.5859  2.0989
16883TIP3    H272065   5.788   6.728   0.623  0.5652 -0.2663  1.2104
16884TIP3   OH272066   4.553   0.027  14.672  0.3304 -0.2544 -0.1407
16884TIP3    H172067   4.534   0.103  14.616 -0.8053 -1.6324 -1.7375
16884TIP3    H272068   4.470   0.008  14.715  0.4040 -1.0149 -0.3231
16885TIP3   OH272069   3.877   2.010  13.355  0.0836  0.4797  0.1079
16885TIP3    H172070   3.950   1.949  13.367 -1.1734 -0.9846  0.7187
16885TIP3    H272071   3.887   2.074  13.425 -0.5825 -1.1807  1.8044
16886TIP3   OH272072   5.667   3.403   5.875  0.4927 -0.3921 -0.1816
16886TIP3    H172073   5.615   3.455   5.936  0.8336 -0.2105 -0.0397
16886TIP3    H272074   5.680   3.319   5.920 -0.1316 -0.6387 -0.4485
16887TIP3   OH272075   3.551   6.331  14.733 -0.2831  0.2040  0.0794
16887TIP3    H172076   3.602   6.256  14.763 -0.6814 -0.0800  0.0453
16887TIP3    H272077   3.614   6.384  14.684  0.0252 -0.0509  0.1950
16888TIP3   OH272078   3.886   2.514  14.931 -0.5855 -0.6473 -0.2695
16888TIP3    H172079   3.884   2.466  14.848 -3.4574  0.3139 -0.8472
16888TIP3    H272080   3.794   2.532  14.951 -0.0543 -1.1859  3.3611
16889TIP3   OH272081   2.454   6.698   3.137 -0.0527  0.5191 -0.1385
16889TIP3    H172082   2.436   6.660   3.223  1.7309  1.3310  0.6384
16889TIP3    H272083   2.494   6.627   3.087 -0.7852  0.1408 -0.1960
16890TIP3   OH272084   0.024   2.156   5.039  0.6098 -0.1567  0.3043
16890TIP3    H172085   0.112   2.141   5.075  0.3205  0.4114  1.2716
16890TIP3    H272086  -0.023   2.075   5.059  1.4361 -1.2996 -1.9798
16891TIP3   OH272087   2.662   4.467   0.286 -0.3306  0.0604 -0.3612
16891TIP3    H172088   2.672   4.390   0.230 -1.1985  0.2305 -0.7603
16891TIP3    H272089   2.651   4.432   0.374 -1.5536 -0.3146 -0.6528
16892TIP3   OH272090   6.567   2.072   3.859 -0.1362  0.4009  0.4794
16892TIP3    H172091   6.495   2.128   3.887  0.3939  1.0949  0.4723
16892TIP3    H272092   6.642   2.104   3.908  0.1071 -0.5350  0.7441
16893TIP3   OH272093   1.648   6.376  15.853  0.0952 -0.2658 -0.1728
16893TIP3    H172094   1.554   6.385  15.866  0.1934 -0.1373  0.4652
16893TIP3    H272095   1.676   6.316  15.923  0.6872  0.6892  0.4242
16894TIP3   OH272096   3.074   0.661  15.542  0.0217 -0.3020 -0.1188
16894TIP3    H172097   3.143   0.682  15.605 -0.1392  1.0016 -0.3412
16894TIP3    H272098   3.115   0.601  15.480  0.2571 -1.3992  1.0628
16895TIP3   OH272099   3.629   5.417  15.935  0.1280 -0.9429 -0.1798
16895TIP3    H172100   3.537   5.413  15.907 -0.1475 -1.7838  0.7912
16895TIP3    H272101   3.664   5.331  15.913 -0.3280 -1.9588  2.7197
16896TIP3   OH272102   1.248   3.123  17.101 -0.4259 -0.3005  0.3257
16896TIP3    H172103   1.225   3.063  17.172 -2.4573  1.6727  1.4851
16896TIP3    H272104   1.201   3.089  17.025 -2.3241  0.2285  1.1913
16897TIP3   OH272105   2.880   5.843  16.689 -0.5475  0.6307  0.3843
16897TIP3    H172106   2.809   5.810  16.745 -1.1751 -0.4278 -0.9696
16897TIP3    H272107   2.905   5.767  16.636 -1.1364  1.9992 -1.9524
16898TIP3   OH272108   1.451   1.037   2.916  0.1164 -0.0824  0.6181
16898TIP3    H172109   1.390   1.084   2.972 -0.5355  1.7455 -1.5139
16898TIP3    H272110   1.510   0.992   2.978 -2.5443 -0.9260  2.7384
16899TIP3   OH272111   1.719   3.622  14.509  0.3292 -0.5571 -0.4218
16899TIP3    H172112   1.666   3.626  14.589 -0.0994  2.4117 -0.7247
16899TIP3    H272113   1.699   3.537  14.471 -2.9668 -0.2697  0.3639
16900TIP3   OH272114   5.418   2.528   1.886  0.0060 -0.1526 -0.1246
16900TIP3    H172115   5.495   2.545   1.940 -0.7638  2.5101  0.2520
16900TIP3    H272116   5.344   2.530   1.947 -0.6121 -0.0095 -0.8611
16901TIP3   OH272117   3.647   5.902  13.193  0.0339 -0.0687  0.1444
16901TIP3    H172118   3.671   5.838  13.125  0.7628  0.1375  0.2036
16901TIP3    H272119   3.723   5.961  13.198 -0.9205  1.2573 -0.4386
16902TIP3   OH272120   5.347   0.235   3.670  0.3101 -0.4584 -0.3573
16902TIP3    H172121   5.274   0.294   3.650  0.1497  0.3526  2.2332
16902TIP3    H272122   5.307   0.148   3.672 -0.4418 -0.1189  0.1529
16903TIP3   OH272123   5.640   2.438  16.799  0.0818  0.2958  0.4917
16903TIP3    H172124   5.576   2.369  16.780  0.5929 -0.2193  0.5885
16903TIP3    H272125   5.684   2.408  16.878 -1.5126  2.0499  2.1567
16904TIP3   OH272126   1.798   0.610   3.271 -0.0633  0.6526  0.1851
16904TIP3    H172127   1.819   0.540   3.332 -0.5243  0.4661  0.1309
16904TIP3    H272128   1.874   0.668   3.275  0.2663  0.2200  0.3249
16905TIP3   OH272129   3.231   5.571  15.896 -0.3855  0.2295 -0.3054
16905TIP3    H172130   3.221   5.625  15.974 -1.2323 -1.7906  1.0823
16905TIP3    H272131   3.144   5.571  15.856  0.2119  1.8115 -1.6901
16906TIP3   OH272132   0.090   5.743   5.578 -0.7856  0.2863  0.1119
16906TIP3    H172133   0.080   5.723   5.485 -1.3720  0.1024  0.2078
16906TIP3    H272134   0.182   5.728   5.596 -0.4618  1.2488 -0.6538
16907TIP3   OH272135   5.801   2.436   3.999  0.0249  0.2431  0.0141
16907TIP3    H172136   5.806   2.342   3.983  0.7122  0.3506 -0.4390
16907TIP3    H272137   5.854   2.475   3.930  0.4232  0.9137  0.6779
16908TIP3   OH272138   1.777   6.746  11.597  0.1469 -0.3097 -0.4734
16908TIP3    H172139   1.696   6.753  11.648  0.8428 -2.0993  0.9749
16908TIP3    H272140   1.847   6.749  11.662  1.3263  1.4481 -1.7162
16909TIP3   OH272141   3.935   6.400  14.757  0.1510  0.4015 -0.6355
16909TIP3    H172142   3.888   6.396  14.841  3.1918  0.6510  1.2378
16909TIP3    H272143   3.946   6.309  14.731  0.3858  0.2507 -0.0215
16910TIP3   OH272144   6.113   4.490   2.087  0.2573 -0.3058 -0.3131
16910TIP3    H172145   6.142   4.477   2.177 -0.2118 -1.0079 -0.2495
16910TIP3    H272146   6.033   4.541   2.095  0.6219  0.2858 -0.3875
16911TIP3   OH272147   2.484   2.391   0.843 -0.5431  0.3018  0.2838
16911TIP3    H172148   2.538   2.383   0.764  1.5851 -1.9383  1.7913
16911TIP3    H272149   2.401   2.348   0.820  0.6316 -1.7856 -0.3380
16912TIP3   OH272150   5.763   6.422   6.016 -0.0631 -0.0244  0.1283
16912TIP3    H172151   5.682   6.449   6.060  0.5892 -0.2797  1.5195
16912TIP3    H272152   5.780   6.333   6.048  0.5879 -0.1159 -0.4320
16913TIP3   OH272153   2.861   5.061   5.331  0.2507 -0.8134  0.1444
16913TIP3    H172154   2.782   5.103   5.297  0.5989 -1.6044 -1.7773
16913TIP3    H272155   2.933   5.105   5.286  0.7824 -1.3870  0.4144
16914TIP3   OH272156   4.930   6.507   0.834  0.0172 -0.1632 -0.8390
16914TIP3    H172157   4.944   6.575   0.768  0.7414  0.5715  0.0434
16914TIP3    H272158   4.885   6.552   0.905  0.2985 -0.6590 -0.3409
16915TIP3   OH272159   2.927   6.078   1.368 -0.2405 -0.0559 -0.9307
16915TIP3    H172160   2.842   6.087   1.325  0.1014  2.8912 -1.1645
16915TIP3    H272161   2.987   6.050   1.299 -0.3963  1.1284 -1.5579
16916TIP3   OH272162   3.834   1.232  12.107 -0.6988 -0.1260 -0.2803
16916TIP3    H172163   3.836   1.137  12.112 -0.2687 -0.0818  0.7293
16916TIP3    H272164   3.764   1.252  12.045 -2.4413 -1.0673  1.2851
16917TIP3   OH272165   5.017   5.280  13.657  0.0567  0.3183  0.1662
16917TIP3    H172166   5.087   5.265  13.594  1.8880  0.9456  1.9307
16917TIP3    H272167   5.030   5.370  13.687 -1.1327  0.2414  0.9922
16918TIP3   OH272168   6.692   2.380  11.566  0.3584  0.4726  0.4251
16918TIP3    H172169   6.677   2.318  11.494 -0.0595 -0.9080  1.6620
16918TIP3    H272170   6.707   2.464  11.522  0.4947 -0.3984 -1.2866
16919TIP3   OH272171   2.601   1.945  10.879 -0.0316  0.2373  0.0522
16919TIP3    H172172   2.603   1.942  10.783 -1.1269  0.6900  0.0052
16919TIP3    H272173   2.693   1.939  10.904  0.5992  2.9523 -1.1390
16920TIP3   OH272174   5.496   4.486  12.273  0.1431 -0.3058 -0.3388
16920TIP3    H172175   5.401   4.497  12.263  0.5986  2.6126 -3.1912
16920TIP3    H272176   5.528   4.575  12.286  2.5269 -1.2618  0.8014
16921TIP3   OH272177   3.868   5.703   3.795 -0.3572 -0.3977 -0.0571
16921TIP3    H172178   3.810   5.767   3.836  0.2281 -0.4476  0.8702
16921TIP3    H272179   3.870   5.630   3.857  2.6353  0.5990  1.1948
16922TIP3   OH272180   3.946   4.983   5.212  0.7069  0.3694  0.0071
16922TIP3    H172181   3.986   4.935   5.285  0.7343  0.3496 -0.0210
16922TIP3    H272182   4.001   4.961   5.136 -1.7766 -3.1558 -1.0316
16923TIP3   OH272183   2.517   1.382   5.293  0.1592 -0.0580  0.1517
16923TIP3    H172184   2.523   1.305   5.350  1.4457 -0.3007 -0.2645
16923TIP3    H272185   2.576   1.446   5.334 -0.6552  0.6003  0.3163
16924TIP3   OH272186   1.249   4.059   3.154 -0.0785 -0.1621 -0.0309
16924TIP3    H172187   1.243   3.965   3.167  0.1279 -0.1598  0.0752
16924TIP3    H272188   1.256   4.070   3.059  0.2394 -0.2720 -0.0223
16925TIP3   OH272189   5.944   3.065  15.186 -0.0738  0.0910 -0.0581
16925TIP3    H172190   5.895   3.028  15.112  0.4674  1.7177 -1.2916
16925TIP3    H272191   5.936   3.159  15.175  0.7756  0.3824  1.4888
16926TIP3   OH272192   2.219   4.088  13.581 -0.3683  0.2986 -0.3294
16926TIP3    H172193   2.132   4.066  13.549 -0.7172 -2.3353  2.0689
16926TIP3    H272194   2.204   4.126  13.667  0.7974 -1.9351  0.9625
16927TIP3   OH272195   5.876   5.730   5.844 -0.0846  0.1967  0.1347
16927TIP3    H172196   5.831   5.668   5.902 -0.8083  0.8501  0.2887
16927TIP3    H272197   5.838   5.713   5.758  0.3226 -0.1436  0.0215
16928TIP3   OH272198   4.316   5.801   5.215 -0.1157 -0.1965 -0.3290
16928TIP3    H172199   4.273   5.721   5.186 -0.1300 -0.6344  0.8609
16928TIP3    H272200   4.328   5.789   5.309 -0.4828  1.3626 -0.0528
16929TIP3   OH272201   4.713   1.807  10.611  0.0612 -0.1897  0.0839
16929TIP3    H172202   4.715   1.736  10.676 -2.1466  0.5388  1.0513
16929TIP3    H272203   4.773   1.779  10.543 -1.2771 -3.3954  0.0539
16930TIP3   OH272204   6.206   6.401  15.263 -0.3492  0.1014  0.0880
16930TIP3    H172205   6.140   6.421  15.196 -1.1496  0.1980  0.8926
16930TIP3    H272206   6.283   6.374  15.213 -0.5749  1.2214 -0.9095
16931TIP3   OH272207   6.185   4.179  14.664 -0.3367 -0.5282 -0.5369
16931TIP3    H172208   6.178   4.125  14.585 -1.0001 -0.4237 -0.5543
16931TIP3    H272209   6.181   4.269  14.631  0.3761 -0.4668 -0.4728
16932TIP3   OH272210   3.167   6.121  15.729 -0.4531 -0.0901 -0.0193
16932TIP3    H172211   3.224   6.196  15.710  0.5554 -1.1274 -1.2993
16932TIP3    H272212   3.220   6.044  15.705 -1.6433 -1.1999  0.7675
16933TIP3   OH272213   0.785   0.000  14.705 -0.3694  0.0115  0.2849
16933TIP3    H172214   0.862   0.045  14.671  0.1647 -1.0575  0.0528
16933TIP3    H272215   0.738   0.068  14.754 -0.6827  1.3667 -1.7459
16934TIP3   OH272216   3.954   1.136   0.812 -0.1224 -0.3448 -0.0845
16934TIP3    H172217   3.927   1.215   0.859 -1.3996 -0.9913  0.3000
16934TIP3    H272218   4.024   1.166   0.754 -0.6635  1.0971 -0.0392
16935TIP3   OH272219   0.914   3.026   2.922  0.4435 -0.7790  0.4280
16935TIP3    H172220   0.979   3.097   2.923  0.1533 -0.5217  1.2365
16935TIP3    H272221   0.851   3.050   2.990  0.3430 -1.8157  0.7139
16936TIP3   OH272222   0.551   4.307  12.184 -0.3210  0.3042 -0.1784
16936TIP3    H172223   0.529   4.288  12.276 -1.1383  1.4504 -0.1180
16936TIP3    H272224   0.547   4.221  12.141 -2.4126  0.0455  0.3797
16937TIP3   OH272225   6.687   5.398   4.521  0.1512  0.1044 -0.0528
16937TIP3    H172226   6.698   5.383   4.428 -0.6323  2.0707 -0.5089
16937TIP3    H272227   6.599   5.435   4.530  0.7813  1.4416  1.2372
16938TIP3   OH272228   2.673   1.772   1.763  0.2130  0.1756  0.5374
16938TIP3    H172229   2.590   1.790   1.808 -0.3269  0.4696 -0.5382
16938TIP3    H272230   2.720   1.714   1.823 -1.0147 -0.4717  0.9256
16939TIP3   OH272231   4.024   1.498   1.613  0.4603 -0.1390  0.2129
16939TIP3    H172232   4.061   1.415   1.643 -0.1347 -0.1807  0.8731
16939TIP3    H272233   4.076   1.565   1.656  1.0172 -0.1637 -0.4134
16940TIP3   OH272234   5.519   4.220   3.313  0.0800  0.4343 -0.1290
16940TIP3    H172235   5.455   4.251   3.378 -1.4815  0.3765 -1.5727
16940TIP3    H272236   5.564   4.299   3.284  0.1901  0.5687  0.3966
16941TIP3   OH272237   3.296   4.993  15.211  0.2257  0.3364  0.4118
16941TIP3    H172238   3.288   4.953  15.298 -1.9552  1.8420  0.9819
16941TIP3    H272239   3.379   5.041  15.215  0.0259  0.6169  1.7725
16942TIP3   OH272240   2.330   2.104   5.813 -0.2801 -0.0524 -0.2006
16942TIP3    H172241   2.340   2.100   5.718 -0.9142  0.8402 -0.3227
16942TIP3    H272242   2.271   2.032   5.834  0.0943 -0.4311 -0.4466
16943TIP3   OH272243   1.305   6.630  16.505  0.0825  0.7645 -0.1500
16943TIP3    H172244   1.386   6.681  16.516 -0.5673  1.9349 -0.5854
16943TIP3    H272245   1.285   6.637  16.412 -0.5482  0.5198 -0.0322
16944TIP3   OH272246   2.284   4.230  11.651  0.1351  0.3772  0.0784
16944TIP3    H172247   2.213   4.277  11.606  0.5207  1.9440  1.0441
16944TIP3    H272248   2.240   4.184  11.722 -0.0630  0.3664 -0.0479
16945TIP3   OH272249   6.247   5.845   3.109  1.0280 -0.3080 -0.4945
16945TIP3    H172250   6.275   5.784   3.041  0.1184 -0.4444 -0.7637
16945TIP3    H272251   6.159   5.815   3.133  0.1695  1.4259 -1.3029
16946TIP3   OH272252   3.954   6.738  16.647 -0.3578  0.3929  0.7195
16946TIP3    H172253   4.029   6.739  16.706 -0.2149  0.7501  0.5347
16946TIP3    H272254   3.878   6.738  16.705 -0.2778  3.2654  0.9825
16947TIP3   OH272255   3.959   4.393   4.710 -0.2867  0.1072 -0.4247
16947TIP3    H172256   3.908   4.455   4.658 -1.5456 -1.1588 -0.7568
16947TIP3    H272257   3.939   4.415   4.801 -0.6364  0.2772 -0.5419
16948TIP3   OH272258   3.398   2.807   1.243  0.6554  0.1021 -0.2792
16948TIP3    H172259   3.436   2.721   1.258 -1.9776 -0.7307  2.4633
16948TIP3    H272260   3.420   2.857   1.321 -2.8860 -0.1612  1.0414
16949TIP3   OH272261   2.990   3.119   0.857  0.1424  0.4748 -1.1061
16949TIP3    H172262   3.034   3.035   0.851 -0.1080  0.1512  0.9510
16949TIP3    H272263   2.933   3.111   0.933 -2.0896  1.5240 -2.5546
16950TIP3   OH272264   2.098   0.110  14.879  0.4502  0.1468  0.2312
16950TIP3    H172265   2.088   0.040  14.944 -0.0179  1.3560  1.5090
16950TIP3    H272266   2.148   0.178  14.924  2.0451  0.1384 -1.4143
16951TIP3   OH272267   5.705   3.936  16.403 -0.1007 -0.1463 -0.4819
16951TIP3    H172268   5.708   3.888  16.486 -0.2673  0.4247 -0.1411
16951TIP3    H272269   5.767   3.889  16.346  0.6080 -0.0828  0.2171
16952TIP3   OH272270   4.555   4.074  13.325  0.2271 -0.0819 -0.5341
16952TIP3    H172271   4.488   4.052  13.260  0.8719 -1.5421 -0.7486
16952TIP3    H272272   4.598   3.991  13.344  2.6445  0.9548 -1.1501
16953TIP3   OH272273   1.852   1.653   3.993 -0.0704 -0.5314  0.2945
16953TIP3    H172274   1.819   1.570   3.959  0.3209 -0.2773 -0.7435
16953TIP3    H272275   1.942   1.633   4.020  0.5697 -0.1013 -1.4237
16954TIP3   OH272276   5.956   3.610   0.057 -0.1416  0.0516 -0.3801
16954TIP3    H172277   5.992   3.562  -0.018 -1.2282  0.1869 -1.0206
16954TIP3    H272278   5.920   3.691   0.018 -3.4182 -1.1823 -0.2811
16955TIP3   OH272279   5.913   5.402   2.530  0.6598  0.1710  0.1349
16955TIP3    H172280   5.937   5.345   2.457  0.7632 -1.7086  1.5498
16955TIP3    H272281   5.826   5.435   2.507  0.8950  0.0102 -1.0488
16956TIP3   OH272282   4.973   0.431   0.461 -0.1250 -0.0854  0.5367
16956TIP3    H172283   5.010   0.518   0.478 -1.7245  0.3747  2.0513
16956TIP3    H272284   4.885   0.450   0.428  0.2696 -1.1437 -1.1982
16957TIP3   OH272285   1.979   4.964  14.651 -0.0165  0.3517 -0.4287
16957TIP3    H172286   1.937   5.026  14.711  1.2988  0.0894  0.8179
16957TIP3    H272287   1.995   5.015  14.572 -0.4838  1.1220 -0.0474
16958TIP3   OH272288   5.101   1.285  14.252  0.5856  0.5092  0.3162
16958TIP3    H172289   5.171   1.238  14.299 -0.0505 -0.3362  0.4475
16958TIP3    H272290   5.142   1.314  14.170  1.0624 -0.0735  0.3411
16959TIP3   OH272291   4.350   5.039   4.675 -0.3710 -0.2038  0.0967
16959TIP3    H172292   4.283   5.095   4.634 -1.2230  0.6785  2.4965
16959TIP3    H272293   4.389   5.095   4.742  2.0817 -1.0734 -0.5286
16960TIP3   OH272294   0.217   1.904   3.606 -0.1483 -0.2305  0.1792
16960TIP3    H172295   0.218   1.990   3.564  1.4525  0.1139  0.8511
16960TIP3    H272296   0.125   1.887   3.625 -0.4562  1.5091  0.3847
16961TIP3   OH272297   6.482   1.032  11.436 -0.0262 -0.0145 -0.5165
16961TIP3    H172298   6.442   1.073  11.513  0.5812  0.9151 -0.6831
16961TIP3    H272299   6.508   0.945  11.467 -1.0503 -0.1726 -0.0701
16962TIP3   OH272300   3.686   5.896  13.730  0.5407  0.2900  0.3480
16962TIP3    H172301   3.691   5.991  13.738 -0.6983  0.2448  2.4800
16962TIP3    H272302   3.651   5.881  13.642  1.8235  1.7250 -0.4608
16963TIP3   OH272303   3.317   5.468  14.147  0.5634 -1.0118 -0.3647
16963TIP3    H172304   3.395   5.523  14.157 -0.2468 -0.1294  1.5711
16963TIP3    H272305   3.305   5.462  14.052  2.0913  0.0998 -0.6847
16964TIP3   OH272306   5.812   3.413  10.828 -0.8678 -0.0817  0.3497
16964TIP3    H172307   5.839   3.490  10.877 -0.7281  0.3366 -0.3585
16964TIP3    H272308   5.725   3.434  10.795 -0.2030  0.4747 -1.1962
16965TIP3   OH272309   5.654   2.871   1.101  0.4965  0.4236 -0.4326
16965TIP3    H172310   5.709   2.877   1.179 -2.0789 -0.9537  1.6675
16965TIP3    H272311   5.587   2.806   1.124 -0.5654  0.1500 -3.7270
16966TIP3   OH272312   4.237   0.931  16.584  0.0394 -0.1805  0.5176
16966TIP3    H172313   4.283   0.862  16.632  0.7956 -0.0351  0.0115
16966TIP3    H272314   4.287   0.942  16.504 -0.0113  1.0494  0.6452
16967TIP3   OH272315   5.883   5.546  15.501 -0.2858  0.6351  0.4791
16967TIP3    H172316   5.887   5.523  15.594  0.9963  1.2334  0.5916
16967TIP3    H272317   5.790   5.538  15.478 -0.2706 -2.4019  1.0513
16968TIP3   OH272318   2.288   0.516   6.029  0.1047 -0.1202  0.3284
16968TIP3    H172319   2.295   0.428   6.066 -0.2766  0.2294  1.2633
16968TIP3    H272320   2.296   0.574   6.105  1.5567  0.7024 -0.4121
16969TIP3   OH272321   3.322   2.248  15.910  0.0745  0.1776 -0.0795
16969TIP3    H172322   3.249   2.306  15.886  1.4627  1.9604 -0.1544
16969TIP3    H272323   3.359   2.287  15.990 -1.2397 -2.7538  2.1726
16970TIP3   OH272324   3.144   6.446  15.086 -0.9229 -0.1489  0.2316
16970TIP3    H172325   3.199   6.521  15.066 -1.5762  0.4826  0.7344
16970TIP3    H272326   3.172   6.378  15.024 -1.1022  0.8785 -1.0201
16971TIP3   OH272327   2.615   5.333   1.128 -0.0646 -0.4443  0.2933
16971TIP3    H172328   2.688   5.360   1.184  0.4469 -1.0010 -0.0834
16971TIP3    H272329   2.541   5.387   1.156  0.1053 -0.8946  1.6901
16972TIP3   OH272330   6.576   5.299   1.728  0.0972 -0.1974 -0.2850
16972TIP3    H172331   6.635   5.254   1.667  0.1940  0.1002 -0.4094
16972TIP3    H272332   6.504   5.237   1.740 -0.7239  0.3674 -1.9336
16973TIP3   OH272333   4.830   1.828  15.033  0.6017 -0.3170 -0.4062
16973TIP3    H172334   4.894   1.821  15.103 -0.6542 -0.7738  0.7492
16973TIP3    H272335   4.866   1.777  14.961  0.2458 -3.1147  1.2543
16974TIP3   OH272336   4.780   3.231  12.001  0.0132 -0.3282  0.2977
16974TIP3    H172337   4.871   3.206  11.984  0.6109  2.9533 -2.4656
16974TIP3    H272338   4.785   3.299  12.067  0.0143  1.8542 -1.8217
16975TIP3   OH272339   2.363   6.332   0.581 -0.6005  0.2547 -0.3773
16975TIP3    H172340   2.406   6.405   0.537 -0.4725  0.9879  0.9111
16975TIP3    H272341   2.365   6.261   0.518  1.4907  0.6149 -0.7775
16976TIP3   OH272342   3.287   5.213  14.191  0.1422  0.2153 -0.0710
16976TIP3    H172343   3.266   5.300  14.226  1.2741  0.5888 -0.3089
16976TIP3    H272344   3.334   5.230  14.110 -0.0387 -0.6335 -0.3618
16977TIP3   OH272345   4.843   0.873  14.951  0.3063  0.1099 -0.1463
16977TIP3    H172346   4.754   0.868  14.917  0.5941 -0.8848 -0.7837
16977TIP3    H272347   4.896   0.827  14.886  0.7711 -2.5827  1.9644
16978TIP3   OH272348   2.005   0.028  12.992 -0.4242 -0.4167  0.3417
16978TIP3    H172349   1.981   0.108  12.944 -2.5046  0.1837  2.1882
16978TIP3    H272350   2.095   0.043  13.020 -0.5880  1.0892  0.1952
16979TIP3   OH272351   0.276   2.179  12.792  0.4325 -0.7029 -0.3688
16979TIP3    H172352   0.255   2.158  12.701 -3.2057 -2.0673  0.6244
16979TIP3    H272353   0.241   2.267  12.804  1.2301 -0.3826 -0.3477
16980TIP3   OH272354   1.686   5.734  12.282 -0.5517 -1.0112  0.4386
16980TIP3    H172355   1.665   5.640  12.276 -2.0559 -0.6435 -0.8384
16980TIP3    H272356   1.769   5.737  12.328  0.1555 -3.0806 -0.5564
16981TIP3   OH272357   4.780   2.960   5.483  0.2795 -0.1127 -0.6195
16981TIP3    H172358   4.788   3.044   5.527  0.9193 -0.6618  0.3701
16981TIP3    H272359   4.804   2.977   5.392 -0.6488  0.9717 -0.6668
16982TIP3   OH272360   4.180   0.623  15.434  0.2267  0.0214 -0.3281
16982TIP3    H172361   4.245   0.578  15.380 -0.5431 -0.7533 -0.6286
16982TIP3    H272362   4.115   0.556  15.455  0.1729  0.4676  1.0342
16983TIP3   OH272363   2.609   5.798   3.849  0.8728 -0.3740  0.7451
16983TIP3    H172364   2.581   5.710   3.872 -0.5424 -0.5739 -1.4024
16983TIP3    H272365   2.527   5.846   3.833  1.6391  0.7127 -0.1027
16984TIP3   OH272366   2.424   0.436   4.568  0.3669 -0.1375 -0.6266
16984TIP3    H172367   2.458   0.395   4.488 -1.2115  0.9649 -1.9233
16984TIP3    H272368   2.400   0.525   4.541  0.9525  0.6881  1.3972
16985TIP3   OH272369   5.531   0.121  14.181  0.0060  0.2277  0.8107
16985TIP3    H172370   5.581   0.042  14.162  1.4570  1.2648  0.1258
16985TIP3    H272371   5.469   0.128  14.109  0.6527  0.3096  0.2492
16986TIP3   OH272372   1.772   2.108  11.059 -0.0331  0.4746 -0.6706
16986TIP3    H172373   1.849   2.103  11.003 -0.5402 -2.3724 -1.2716
16986TIP3    H272374   1.698   2.113  10.998 -0.5422 -1.6877 -0.3098
16987TIP3   OH272375   3.964   0.044  16.005 -0.0295  0.5660  0.5071
16987TIP3    H172376   3.877   0.032  15.966  1.3351 -1.9783 -2.1519
16987TIP3    H272377   3.982  -0.039  16.049  1.5567  0.5503 -0.1138
16988TIP3   OH272378   6.721   2.897  10.591  0.3396 -0.1857  0.2262
16988TIP3    H172379   6.770   2.960  10.644 -0.8391  1.3883 -0.4732
16988TIP3    H272380   6.696   2.946  10.513 -0.4080 -1.6227 -0.4748
16989TIP3   OH272381   5.320   6.046  13.331  0.2215  0.5768  0.4077
16989TIP3    H172382   5.371   6.031  13.411  1.9130 -0.2127 -0.7557
16989TIP3    H272383   5.315   5.959  13.290 -2.5812  0.4906  0.6983
16990TIP3   OH272384   6.553   3.051   1.505 -0.1588  0.1344  0.6537
16990TIP3    H172385   6.499   3.130   1.495 -1.4152 -0.4963  2.1618
16990TIP3    H272386   6.490   2.979   1.502  0.9947 -0.8659 -0.8793
16991TIP3   OH272387   0.710   0.531   2.106 -0.2455 -0.1730  0.5708
16991TIP3    H172388   0.621   0.513   2.075 -0.0628 -0.2937  0.1111
16991TIP3    H272389   0.719   0.626   2.102 -0.0384 -0.2208 -0.2743
16992TIP3   OH272390   1.218   5.427   2.204 -0.0347  0.1308 -0.5233
16992TIP3    H172391   1.278   5.364   2.164 -2.2734 -1.1749 -2.0361
16992TIP3    H272392   1.188   5.383   2.284  2.2126  1.5231  1.2192
16993TIP3   OH272393   4.541   5.670  12.816  0.3481 -0.1748 -0.6142
16993TIP3    H172394   4.483   5.742  12.840  0.2629 -0.4372 -0.0086
16993TIP3    H272395   4.508   5.595  12.866  1.9558 -0.0434  0.7432
16994TIP3   OH272396   1.269   1.837  16.460 -0.1544  0.0163  0.4506
16994TIP3    H172397   1.348   1.796  16.426 -0.8806 -1.9915  1.0268
16994TIP3    H272398   1.236   1.775  16.526 -2.5713  0.4102 -0.2747
16995TIP3   OH272399   5.377   6.485  13.151 -0.0251 -0.6106  0.2426
16995TIP3    H172400   5.392   6.431  13.073  1.7709  1.0111 -0.6169
16995TIP3    H272401   5.361   6.421  13.221  0.1908 -2.1776 -1.0741
16996TIP3   OH272402   0.086   0.418  13.630  0.0723 -0.1374 -0.4185
16996TIP3    H172403  -0.003   0.389  13.612 -0.0591  0.9580 -1.6389
16996TIP3    H272404   0.141   0.347  13.597 -0.3252 -0.8051  0.3193
16997TIP3   OH272405   4.064   4.612  14.809  0.2826 -0.1613 -0.4810
16997TIP3    H172406   4.009   4.663  14.870 -0.1538 -0.7373 -0.3869
16997TIP3    H272407   4.129   4.675  14.778  0.2724  0.2423  0.2819
16998TIP3   OH272408   0.769   1.831  13.173  0.2531  0.2016  0.0230
16998TIP3    H172409   0.843   1.820  13.113  0.1450  1.3893 -0.3536
16998TIP3    H272410   0.809   1.863  13.254  0.1260  1.4535 -0.3774
16999TIP3   OH272411   3.301   0.170  12.938 -0.0135 -0.1049 -0.3395
16999TIP3    H172412   3.248   0.145  13.014  1.5425  0.1969  0.8883
16999TIP3    H272413   3.242   0.224  12.885 -1.6573 -1.6952 -0.2320
17000TIP3   OH272414   0.068   5.248   1.311 -0.4079  0.6411  0.4853
17000TIP3    H172415   0.063   5.153   1.301  0.2196  0.8068 -1.8619
17000TIP3    H272416   0.161   5.268   1.313 -0.5326  1.2510  0.5268
17001TIP3   OH272417   1.967   2.467  11.683  0.0347  0.3925 -0.7157
17001TIP3    H172418   2.025   2.537  11.714 -0.1939  0.6423 -0.8425
17001TIP3    H272419   1.950   2.489  11.591  0.2139 -0.0060 -0.8444
17002TIP3   OH272420   2.986   2.374  14.773 -0.3159  0.2366  0.3642
17002TIP3    H172421   3.039   2.301  14.807 -1.8057 -0.0364  2.3072
17002TIP3    H272422   2.938   2.405  14.849 -1.9135  1.3508 -1.0412
17003TIP3   OH272423   4.106   2.914  16.702  0.6298 -0.0166  0.5455
17003TIP3    H172424   4.148   2.855  16.640 -0.2223 -0.5275  0.4343
17003TIP3    H272425   4.049   2.969  16.648  0.2207 -0.1638  0.8282
17004TIP3   OH272426   3.274   1.642  14.492 -0.0692  0.2612  0.2161
17004TIP3    H172427   3.292   1.691  14.412 -0.1334 -0.1223 -0.0320
17004TIP3    H272428   3.196   1.591  14.472  0.2781 -0.3126  0.3129
17005TIP3   OH272429   1.337   6.539   2.241 -0.0421 -0.0484 -0.0639
17005TIP3    H172430   1.255   6.494   2.259 -0.7623  0.5159 -1.6962
17005TIP3    H272431   1.312   6.629   2.222  0.8957  0.0555 -0.9329
17006TIP3   OH272432   2.916   4.599   4.103 -0.3592  0.0271  0.1984
17006TIP3    H172433   2.991   4.541   4.116 -0.2856  0.3016  1.0163
17006TIP3    H272434   2.841   4.539   4.100 -0.5852 -0.0289  3.4228
17007TIP3   OH272435   3.569   6.026   3.328  0.2629  0.1234 -0.5427
17007TIP3    H172436   3.575   6.079   3.248  1.1344  1.0288  0.1074
17007TIP3    H272437   3.484   5.983   3.321 -0.4080  1.4850 -1.1723
17008TIP3   OH272438   5.386   6.631   2.173  0.5677  0.1512 -0.6767
17008TIP3    H172439   5.324   6.682   2.227  0.1630 -0.2388 -0.7672
17008TIP3    H272440   5.468   6.635   2.221  0.4366  0.5592 -0.4808
17009TIP3   OH272441   1.562   4.179  16.088  0.3363  0.3366  0.0802
17009TIP3    H172442   1.485   4.173  16.144 -0.4756  0.7329 -0.9643
17009TIP3    H272443   1.627   4.123  16.130 -0.6461 -0.3011  0.7786
17010TIP3   OH272444   5.069   5.541  15.194 -0.1961  0.5010  0.0449
17010TIP3    H172445   4.982   5.563  15.227 -0.7119  0.4688 -1.2283
17010TIP3    H272446   5.097   5.620  15.146  0.0650  0.1682 -0.3535
17011TIP3   OH272447   0.874   5.740  12.181  0.2891 -0.6251  0.8024
17011TIP3    H172448   0.940   5.686  12.139  0.3804 -0.4568  0.7265
17011TIP3    H272449   0.911   5.828  12.180 -0.1182 -0.4586  0.3839
17012TIP3   OH272450   2.844   4.974  14.463  0.2176 -0.2272 -0.4451
17012TIP3    H172451   2.906   4.923  14.410  0.9546  0.3221 -0.1220
17012TIP3    H272452   2.801   5.032  14.399 -1.8177 -2.3219 -1.1075
17013TIP3   OH272453   6.090   2.121   3.909  0.0286 -0.0909  0.6043
17013TIP3    H172454   6.181   2.134   3.882  0.2888 -0.1265  1.4562
17013TIP3    H272455   6.086   2.030   3.939 -0.2659 -0.0636  0.6530
17014TIP3   OH272456   4.560   5.637   1.013  0.5990  0.1169  0.1915
17014TIP3    H172457   4.512   5.587   0.946 -0.6945  0.9326  0.4855
17014TIP3    H272458   4.492   5.672   1.070  1.4374  2.4477 -0.1566
17015TIP3   OH272459   4.182   3.236  16.427 -0.8089  0.3244 -0.0726
17015TIP3    H172460   4.196   3.156  16.376 -0.4905  0.2079  0.1923
17015TIP3    H272461   4.124   3.289  16.373  1.0522  1.0559 -1.4742
17016TIP3   OH272462   5.054   0.951   4.229 -0.0820  0.3023 -0.1374
17016TIP3    H172463   5.045   1.012   4.155 -0.3938  0.7050  0.2271
17016TIP3    H272464   4.984   0.976   4.289  1.4577  1.3762  1.2893
17017TIP3   OH272465   4.093   3.763  16.758 -0.3458  0.2784  0.1345
17017TIP3    H172466   4.104   3.831  16.825  1.3154  0.0087  0.1765
17017TIP3    H272467   4.152   3.693  16.785 -1.0889 -0.6566 -0.5981
17018TIP3   OH272468   0.251   0.784   4.603  0.3765  0.3686 -0.1321
17018TIP3    H172469   0.210   0.830   4.675  1.1307 -1.3138  1.4515
17018TIP3    H272470   0.192   0.797   4.529 -2.8745 -1.5922  1.9092
17019TIP3   OH272471   2.573   5.851   2.008  0.4310  0.1279  0.0668
17019TIP3    H172472   2.588   5.821   1.919  0.1775 -1.0078  0.3935
17019TIP3    H272473   2.513   5.787   2.046  1.0949  0.1800  1.2742
17020TIP3   OH272474   1.599   3.889  17.134 -0.3476  0.3259 -0.0861
17020TIP3    H172475   1.527   3.843  17.176 -0.0177 -0.3579 -0.2525
17020TIP3    H272476   1.559   3.968  17.097 -0.4396  1.5872  2.5138
17021TIP3   OH272477   1.766   3.170   5.946 -0.1503  0.5776  0.2420
17021TIP3    H172478   1.808   3.246   5.985  0.2583  0.9572 -0.9162
17021TIP3    H272479   1.773   3.102   6.013 -1.0109  1.6831  1.5197
17022TIP3   OH272480   6.483   4.280   4.329 -0.1642 -0.3746  0.6768
17022TIP3    H172481   6.498   4.273   4.423  0.0800 -1.5708  0.5626
17022TIP3    H272482   6.571   4.284   4.290 -0.2591  0.7696  0.5154
17023TIP3   OH272483   3.778   0.103   5.739  0.4055 -0.6900  0.5454
17023TIP3    H172484   3.822   0.166   5.682  0.0999 -0.5203  0.4920
17023TIP3    H272485   3.685   0.114   5.719  0.3880 -1.6119  0.0607
17024TIP3   OH272486   4.008   3.359  15.863  0.2484  0.2405  0.0119
17024TIP3    H172487   4.089   3.307  15.866 -0.8428 -1.5492  1.9906
17024TIP3    H272488   3.948   3.305  15.811  0.1196  1.2629 -0.9213
17025TIP3   OH272489   6.391   6.325  15.076  0.5810 -0.0852  0.0780
17025TIP3    H172490   6.443   6.336  14.996  0.0731 -0.7873 -0.3524
17025TIP3    H272491   6.399   6.232  15.097 -0.3035 -0.1528  0.1390
17026TIP3   OH272492   1.774   5.320  10.998  0.0841 -0.4966  0.1260
17026TIP3    H172493   1.811   5.237  11.027  0.7468 -0.1973  0.1604
17026TIP3    H272494   1.698   5.333  11.054 -0.8844 -1.7716 -0.8353
17027TIP3   OH272495   3.135   2.233   6.040 -0.4683  0.4482  0.0024
17027TIP3    H172496   3.110   2.140   6.039  0.0268  0.3102 -0.0363
17027TIP3    H272497   3.231   2.231   6.034 -0.3023  0.9076  1.8764
17028TIP3   OH272498   0.690   1.621  12.370  0.3207  0.0288  0.6522
17028TIP3    H172499   0.674   1.562  12.297  3.4192  0.5547 -0.5910
17028TIP3    H272500   0.705   1.563  12.445  1.6935 -0.7552 -0.1924
17029TIP3   OH272501   3.217   6.684   5.432  0.4784 -0.3880  0.5400
17029TIP3    H172502   3.255   6.615   5.486 -2.2894 -0.9874  1.9395
17029TIP3    H272503   3.165   6.637   5.366 -0.2658  0.3470  0.5885
17030TIP3   OH272504   0.433   2.852   2.401  0.0024  0.0528 -0.1269
17030TIP3    H172505   0.461   2.795   2.473  0.5035 -0.7939 -0.9730
17030TIP3    H272506   0.496   2.925   2.402  0.7795 -0.6019 -0.4904
17031TIP3   OH272507   3.425   4.616  12.273  0.1395  0.2255 -0.1474
17031TIP3    H172508   3.434   4.693  12.328  1.6279  1.0608 -1.4706
17031TIP3    H272509   3.468   4.546  12.323 -1.8177  0.0134  1.3649
17032TIP3   OH272510   5.237   3.902   2.656  0.3386  1.0775  0.2720
17032TIP3    H172511   5.144   3.879   2.655  0.8744 -1.5704  1.7866
17032TIP3    H272512   5.268   3.879   2.568  0.2762 -1.8460  0.9184
17033TIP3   OH272513   3.077   2.805   1.800 -0.4103  0.4233  0.2638
17033TIP3    H172514   3.126   2.797   1.718  2.9081  1.9818  1.8801
17033TIP3    H272515   3.112   2.736   1.855 -0.6294  1.0513  1.2067
17034TIP3   OH272516   6.225   6.738  15.591 -0.2447 -0.1520 -0.2302
17034TIP3    H172517   6.313   6.749  15.557  0.2616 -1.2127  0.6675
17034TIP3    H272518   6.211   6.814  15.648  0.4569 -0.4449  0.3459
17035TIP3   OH272519   6.230   4.995   5.319 -0.2714 -0.1369 -0.1125
17035TIP3    H172520   6.314   4.988   5.365  0.4676  0.3409 -1.3503
17035TIP3    H272521   6.178   4.921   5.351 -0.2232  0.7936  2.3287
17036TIP3   OH272522   2.799   3.125  13.291 -0.5757 -0.2864 -0.1619
17036TIP3    H172523   2.856   3.171  13.230  0.0927 -1.6844 -0.6468
17036TIP3    H272524   2.718   3.175  13.290 -0.3313  0.1498 -1.6472
17037TIP3   OH272525   4.325   0.173   2.356  0.2308 -0.1955  0.3788
17037TIP3    H172526   4.233   0.193   2.376  0.5642  0.8061  0.9542
17037TIP3    H272527   4.369   0.258   2.356  1.1936 -0.6783  0.2368
17038TIP3   OH272528   1.352   0.213  16.041 -0.5875 -0.0857 -0.1496
17038TIP3    H172529   1.375   0.272  16.113  0.5114  0.0055 -0.5530
17038TIP3    H272530   1.341   0.271  15.966 -1.3461 -0.2213 -0.1533
17039TIP3   OH272531   1.836   0.387  17.043 -0.1146 -0.0297  0.1776
17039TIP3    H172532   1.846   0.443  16.966 -0.2915  0.0834  0.2350
17039TIP3    H272533   1.887   0.308  17.023  1.0797  0.6204  0.5744
17040TIP3   OH272534   6.240   1.149   4.557  0.6793 -0.4117  0.2601
17040TIP3    H172535   6.317   1.092   4.551  0.3651 -0.7201 -1.6308
17040TIP3    H272536   6.265   1.228   4.509 -0.8555 -1.4017 -2.3591
17041TIP3   OH272537   4.007   6.409   1.402  0.6368 -0.0376 -0.6496
17041TIP3    H172538   3.949   6.355   1.349 -1.1145 -0.1611  1.2410
17041TIP3    H272539   3.982   6.499   1.381  0.9475 -0.0501 -1.0753
17042TIP3   OH272540   5.516   0.778  15.372 -0.0147  0.4408  0.3163
17042TIP3    H172541   5.565   0.797  15.292  0.7823  1.2505  0.9689
17042TIP3    H272542   5.556   0.699  15.407  0.0394  0.4300  0.2302
17043TIP3   OH272543   0.573   2.100   1.588 -0.6241 -0.2997 -0.6678
17043TIP3    H172544   0.576   2.008   1.615 -2.6997  0.0083  0.8958
17043TIP3    H272545   0.497   2.136   1.635  0.9323  2.5738 -0.1065
17044TIP3   OH272546   0.496   5.308  15.983 -0.8600 -0.1902 -0.4650
17044TIP3    H172547   0.517   5.232  16.038 -1.2455 -0.1294 -0.2286
17044TIP3    H272548   0.478   5.378  16.045  0.0794  0.2699 -0.6861
17045TIP3   OH272549   0.885   4.150  15.880  0.2352 -0.1787 -0.2308
17045TIP3    H172550   0.884   4.057  15.903  1.8950  0.0327  0.8559
17045TIP3    H272551   0.967   4.162  15.833 -0.5522  0.5195 -1.4934
17046TIP3   OH272552   2.934   3.681   6.270 -0.0663  0.0883 -0.0540
17046TIP3    H172553   2.973   3.602   6.234  0.1747  0.8232 -1.5021
17046TIP3    H272554   3.004   3.747   6.264  0.3026  0.0788  2.6431
17047TIP3   OH272555   4.539   1.292   4.267  0.0554 -0.1946  0.0967
17047TIP3    H172556   4.566   1.219   4.210 -0.3472  0.2461 -0.6748
17047TIP3    H272557   4.452   1.267   4.297 -1.0838  0.9688 -2.0079
17048TIP3   OH272558   0.312   3.713  12.591  0.7546 -0.0846 -0.2859
17048TIP3    H172559   0.314   3.685  12.499  0.3369 -1.0647 -0.0146
17048TIP3    H272560   0.295   3.807  12.587  4.3196  0.6469 -1.2954
17049TIP3   OH272561   0.002   4.961   1.931  0.3454 -0.2344  0.0717
17049TIP3    H172562   0.035   5.010   1.856  0.2300 -0.4864 -0.1467
17049TIP3    H272563   0.057   4.989   2.005  0.7503 -0.3161 -0.1953
17050TIP3   OH272564   2.997   3.036  14.475 -0.6953  0.2449  0.9596
17050TIP3    H172565   2.967   2.960  14.424  0.2373  0.0951  0.6112
17050TIP3    H272566   2.967   3.019  14.564 -1.0795 -0.2076  0.7470
17051TIP3   OH272567   6.128   3.977   2.817 -0.2094 -0.4538 -0.0755
17051TIP3    H172568   6.102   3.888   2.843  1.0021 -1.0122 -0.6806
17051TIP3    H272569   6.198   3.963   2.754  0.6899  0.9568  0.5749
17052TIP3   OH272570   4.495   5.577   5.402  0.1743  0.2607  0.1536
17052TIP3    H172571   4.531   5.575   5.491  1.3928 -0.5661 -0.3284
17052TIP3    H272572   4.405   5.545   5.411 -0.6388  2.6420  1.4363
17053TIP3   OH272573   6.137   3.559  11.491 -0.0512  0.1523 -0.1697
17053TIP3    H172574   6.071   3.603  11.437  0.6038  0.9949 -0.3140
17053TIP3    H272575   6.173   3.492  11.433 -0.1262  0.3123 -0.4075
17054TIP3   OH272576   5.448   3.376   0.774  0.1757 -0.3030 -0.6492
17054TIP3    H172577   5.539   3.344   0.775  0.3259  0.0549  1.2435
17054TIP3    H272578   5.452   3.460   0.729  0.7950 -0.2842 -0.5687
17055TIP3   OH272579   2.350   2.976   4.603 -0.5221  0.0359  1.0212
17055TIP3    H172580   2.420   2.967   4.667  0.1693 -0.4390  0.2282
17055TIP3    H272581   2.396   2.997   4.521 -1.3907  0.8113  0.7114
17056TIP3   OH272582   1.055   0.329  13.930  0.1046 -0.3244  0.6108
17056TIP3    H172583   0.991   0.257  13.935  1.1410 -1.3714 -0.3584
17056TIP3    H272584   1.073   0.338  13.836 -0.7578  1.9399  0.6013
17057TIP3   OH272585   0.493   4.032   5.897  0.2622 -0.3704  0.5714
17057TIP3    H172586   0.448   4.079   5.827  1.0516  1.2249  1.0650
17057TIP3    H272587   0.586   4.051   5.883  0.4728 -0.4828  1.7121
17058TIP3   OH272588   1.471   6.256  14.098  0.2140  0.2744 -0.1672
17058TIP3    H172589   1.467   6.179  14.042 -0.4768  0.1050  0.0972
17058TIP3    H272590   1.514   6.323  14.045  1.0936 -0.3752 -0.2941
17059TIP3   OH272591   5.689   5.476   1.132  0.0874 -0.1534 -0.1610
17059TIP3    H172592   5.628   5.546   1.153  2.2783  1.8231  0.0187
17059TIP3    H272593   5.735   5.507   1.054  0.7844 -1.6009 -0.3539
17060TIP3   OH272594   4.942   0.263  12.189 -0.1786 -0.0815 -0.0445
17060TIP3    H172595   5.010   0.265  12.257 -0.3930 -2.2865  0.2885
17060TIP3    H272596   4.860   0.260  12.238 -0.5470  1.8842 -0.4498
17061TIP3   OH272597   4.689   6.037   4.365 -0.2333 -0.0778 -0.1173
17061TIP3    H172598   4.600   6.032   4.330  0.1329 -2.0613 -0.8738
17061TIP3    H272599   4.712   5.947   4.387  0.9069  0.6410  1.9170
17062TIP3   OH272600   2.306   4.615  13.662  0.0503  0.0609  0.8296
17062TIP3    H172601   2.348   4.533  13.634  3.4528  1.4781  1.2471
17062TIP3    H272602   2.315   4.614  13.758  1.0894  1.3116  0.7720
17063TIP3   OH272603   6.657   2.995   4.309 -0.4760 -0.6364  0.1263
17063TIP3    H172604   6.752   2.997   4.299 -0.5290 -1.5967 -0.8079
17063TIP3    H272605   6.623   2.983   4.220 -1.5019  0.1833  0.3825
17064TIP3   OH272606   5.688   4.660  13.108  0.1736 -0.0764 -0.1426
17064TIP3    H172607   5.758   4.601  13.080 -0.1573 -0.1140 -0.9322
17064TIP3    H272608   5.631   4.667  13.031 -1.1564 -0.7213  0.7448
17065TIP3   OH272609   5.112   1.317  12.210  0.2153 -0.3822 -0.6137
17065TIP3    H172610   5.037   1.258  12.204  0.1418 -0.3639  0.0422
17065TIP3    H272611   5.073   1.403  12.230  0.3539 -0.2073 -1.0893
17066TIP3   OH272612   1.351   0.825  15.047  0.3248  0.5976 -0.3400
17066TIP3    H172613   1.430   0.776  15.071  1.0674  1.7375 -0.3512
17066TIP3    H272614   1.357   0.905  15.100 -1.8748 -0.1651  1.1892
17067TIP3   OH272615   0.330   5.239   3.925 -0.2561  0.8021 -0.0232
17067TIP3    H172616   0.242   5.255   3.891 -0.3190  2.1992  0.7379
17067TIP3    H272617   0.332   5.144   3.942 -2.0267  0.8977  1.0235
17068TIP3   OH272618   2.663   4.082   1.543  0.1198 -0.0254 -0.1222
17068TIP3    H172619   2.591   4.082   1.606  1.1911  1.0069  1.1948
17068TIP3    H272620   2.692   3.991   1.540  1.5410  0.1867  2.8153
17069TIP3   OH272621   3.526   4.116  15.444 -0.4884  0.1848  0.6371
17069TIP3    H172622   3.508   4.185  15.380  3.5654 -0.9346 -2.0566
17069TIP3    H272623   3.469   4.044  15.417 -0.4431  0.4913 -0.3070
17070TIP3   OH272624   3.221   6.099   5.011  0.0746  0.7287 -0.5935
17070TIP3    H172625   3.149   6.099   5.074  1.4216  4.9005  1.3307
17070TIP3    H272626   3.204   6.174   4.954  1.3328 -0.1195 -2.1932
17071TIP3   OH272627   5.238   0.979  13.052  0.8511  0.2329  0.4545
17071TIP3    H172628   5.163   1.038  13.054  1.1994  0.6743  1.0370
17071TIP3    H272629   5.201   0.893  13.032  0.7371  1.1584 -4.5813
17072TIP3   OH272630   4.895   2.710  13.278 -0.2038 -0.0148 -0.1232
17072TIP3    H172631   4.823   2.760  13.240 -0.3669  0.1185  0.3449
17072TIP3    H272632   4.970   2.770  13.275 -0.5809  0.5454  1.1194
17073TIP3   OH272633   0.811   1.482  13.309 -0.2196  1.0428  0.2476
17073TIP3    H172634   0.901   1.510  13.326  0.5627 -2.1415  2.2730
17073TIP3    H272635   0.820   1.409  13.248 -1.1668 -0.5299  1.8896
17074TIP3   OH272636   2.325   0.051   4.746 -0.0898 -0.2827 -0.4600
17074TIP3    H172637   2.359  -0.030   4.784 -0.3864 -0.6180 -0.8995
17074TIP3    H272638   2.401   0.091   4.703 -0.5999 -2.1675 -3.4512
17075TIP3   OH272639   3.459   6.453   5.250 -0.0018  0.4618 -0.6129
17075TIP3    H172640   3.515   6.456   5.172 -0.2098  0.7179 -0.7569
17075TIP3    H272641   3.374   6.484   5.219  0.0199  0.9618 -0.1934
17076TIP3   OH272642   3.648   2.183  15.197  0.4024 -0.0637 -0.4237
17076TIP3    H172643   3.571   2.225  15.235 -0.1543 -1.8540  0.5420
17076TIP3    H272644   3.646   2.094  15.232  3.1501 -0.0517 -0.0120
17077TIP3   OH272645   5.305   3.015  14.612 -0.1231 -0.3049  0.0187
17077TIP3    H172646   5.351   2.937  14.643 -0.6518  0.1605  2.1144
17077TIP3    H272647   5.373   3.082  14.604 -0.1008 -0.1613  1.2072
17078TIP3   OH272648   2.013   1.752   2.808  0.2068 -0.8174 -0.5121
17078TIP3    H172649   2.053   1.719   2.888  0.0051 -0.2901 -0.1869
17078TIP3    H272650   2.024   1.681   2.744 -2.2122 -2.4710  0.7478
17079TIP3   OH272651   6.600   1.981  12.090  0.9590 -0.2973 -0.9193
17079TIP3    H172652   6.552   1.926  12.152  1.1373 -0.7626 -1.1799
17079TIP3    H272653   6.689   1.945  12.091  1.5217  1.0446  0.1339
17080TIP3   OH272654   5.906   5.051  14.558 -0.6101 -0.5116 -0.6944
17080TIP3    H172655   5.915   5.065  14.652 -1.4422 -0.3072 -0.6430
17080TIP3    H272656   5.853   4.972  14.550  1.1850 -1.7424 -0.9973
17081TIP3   OH272657   3.660   3.160   5.947 -0.2237 -0.3211  0.0227
17081TIP3    H172658   3.722   3.167   6.020 -1.1932 -0.1251  0.8358
17081TIP3    H272659   3.612   3.079   5.965  1.6302 -2.0253 -2.0733
17082TIP3   OH272660   6.313   1.445  16.634 -0.1811  0.2280  0.1412
17082TIP3    H172661   6.356   1.530  16.628  0.2984 -0.0461 -0.3805
17082TIP3    H272662   6.381   1.381  16.611 -1.1828 -0.1129 -2.2085
17083TIP3   OH272663   3.496   0.822  13.923  1.2363 -0.5590  0.0409
17083TIP3    H172664   3.524   0.909  13.950  0.6980  1.0911 -4.0298
17083TIP3    H272665   3.403   0.819  13.945  1.3217 -0.2476  0.4621
17084TIP3   OH272666   4.465   6.370  12.673 -0.0617 -0.5862 -0.2832
17084TIP3    H172667   4.485   6.277  12.686 -2.0380 -1.1060 -0.7117
17084TIP3    H272668   4.550   6.410  12.655  1.3080 -1.7252  2.9297
17085TIP3   OH272669   4.718   4.738   5.064  0.1460  0.6039  0.0149
17085TIP3    H172670   4.730   4.643   5.061 -2.0864  0.2790 -2.6560
17085TIP3    H272671   4.724   4.765   4.972  0.3165  3.0232  0.6791
17086TIP3   OH272672   4.184   4.550   0.720  0.3855 -0.1152 -0.0063
17086TIP3    H172673   4.161   4.459   0.700  0.8604 -0.7291  1.9853
17086TIP3    H272674   4.100   4.595   0.729  0.1414 -0.4170 -0.6811
17087TIP3   OH272675   4.798   4.889   1.812  0.1260 -0.2751 -0.0722
17087TIP3    H172676   4.864   4.957   1.824 -0.0555  0.1764 -1.4449
17087TIP3    H272677   4.783   4.887   1.717 -1.6153 -0.5536  0.1819
17088TIP3   OH272678   6.192   5.467  17.087  0.0915  0.0497 -0.2135
17088TIP3    H172679   6.109   5.472  17.134  1.5767  3.2086  2.5041
17088TIP3    H272680   6.177   5.518  17.007 -0.5179  0.8955  0.4248
17089TIP3   OH272681   0.930   5.569  15.901  0.2145  0.0142  0.6716
17089TIP3    H172682   1.011   5.518  15.906  1.2431  1.5219  0.4183
17089TIP3    H272683   0.957   5.652  15.862 -1.9009 -0.2422 -1.5806
17090TIP3   OH272684   2.187   4.933   2.008 -0.4169  0.1859  0.2867
17090TIP3    H172685   2.109   4.966   2.051 -0.4044  1.1500 -0.3867
17090TIP3    H272686   2.250   5.005   2.014 -0.0717 -0.0453 -0.4222
17091TIP3   OH272687   0.152   2.309   0.707  0.7137 -0.0347  0.1209
17091TIP3    H172688   0.144   2.291   0.801 -2.0844  0.0245 -0.0050
17091TIP3    H272689   0.172   2.402   0.702 -2.1575  0.7068  0.7389
17092TIP3   OH272690   4.442   3.068   2.911  0.6262  0.8243 -0.5400
17092TIP3    H172691   4.407   3.011   2.844  0.6226 -0.1702  0.2796
17092TIP3    H272692   4.476   3.144   2.863  1.1592 -0.1244 -1.7103
17093TIP3   OH272693   4.134   4.955   4.290  0.5963 -0.5057 -0.2831
17093TIP3    H172694   4.155   5.047   4.273  0.5063 -0.5912 -0.8720
17093TIP3    H272695   4.060   4.958   4.351  0.9338 -0.1943  0.1210
17094TIP3   OH272696   2.302   5.005  15.265 -0.1247 -0.1131  0.1373
17094TIP3    H172697   2.308   4.933  15.203 -0.2151  0.5314 -0.6331
17094TIP3    H272698   2.265   4.966  15.344  1.6288 -1.3330  0.4122
17095TIP3   OH272699   4.478   5.410   0.286  0.3693 -0.1020  0.3105
17095TIP3    H172700   4.433   5.465   0.351  0.8647  0.6603  0.0264
17095TIP3    H272701   4.450   5.321   0.307  0.4996  0.1273  1.5707
17096TIP3   OH272702   2.629   2.310  13.501  0.2808  0.6147 -0.1162
17096TIP3    H172703   2.535   2.324  13.496  0.0738 -0.8814 -0.9864
17096TIP3    H272704   2.642   2.264  13.584 -0.2335 -2.1551 -1.4614
17097TIP3   OH272705   2.139   3.186   5.850  0.0566 -0.3564  0.0860
17097TIP3    H172706   2.202   3.127   5.809  1.5792  1.2928 -0.0927
17097TIP3    H272707   2.102   3.136   5.922  0.6215 -1.8135 -0.5981
17098TIP3   OH272708   4.333   3.970  16.016  0.2553  0.0839  0.3015
17098TIP3    H172709   4.363   4.035  15.953 -0.1605  0.4290  0.4519
17098TIP3    H272710   4.304   3.896  15.963 -0.5581  0.5684  0.0582
17099TIP3   OH272711   6.687   2.541   1.864  0.6102  0.0556 -0.3004
17099TIP3    H172712   6.631   2.605   1.822 -1.6120 -0.8779  1.0695
17099TIP3    H272713   6.746   2.593   1.919  0.0379  1.0030 -0.5679
17100TIP3   OH272714   1.454   0.010  15.865 -0.1354  0.5857 -0.1274
17100TIP3    H172715   1.406  -0.063  15.904 -1.0175  0.0255 -2.1277
17100TIP3    H272716   1.443   0.082  15.928 -4.2015  0.6791 -0.6766
17101TIP3   OH272717   0.318   3.119   2.565  0.4882  0.2391 -0.5531
17101TIP3    H172718   0.412   3.107   2.551  0.3554  0.7228 -2.0022
17101TIP3    H272719   0.288   3.166   2.488 -0.8657  0.5468  0.1299
17102TIP3   OH272720   1.036   4.676   1.628  0.0912 -0.1643 -0.0802
17102TIP3    H172721   1.103   4.617   1.662  0.8289 -0.2882 -1.6691
17102TIP3    H272722   1.084   4.736   1.570 -0.7219  1.6464  1.0325
17103TIP3   OH272723   4.643   6.401  13.556  0.0599  0.6942 -0.0510
17103TIP3    H172724   4.677   6.356  13.634  0.1304 -0.0875 -0.5195
17103TIP3    H272725   4.713   6.459  13.529  0.2414  0.5760  0.1618
17104TIP3   OH272726   0.786   6.500   2.458 -0.2807 -0.4135  0.5072
17104TIP3    H172727   0.727   6.526   2.387  0.4311 -1.5751 -0.5374
17104TIP3    H272728   0.728   6.460   2.523 -0.7933 -0.3977  0.0696
17105TIP3   OH272729   6.456   4.812  16.521 -0.3993 -0.1648 -0.1806
17105TIP3    H172730   6.373   4.850  16.493 -0.5315  2.2101  2.8864
17105TIP3    H272731   6.432   4.749  16.588  0.2121 -0.5413 -0.3126
17106TIP3   OH272732   3.616   0.288  14.354  0.0753 -0.3207 -0.0208
17106TIP3    H172733   3.625   0.361  14.293  0.3013  0.9630  1.5048
17106TIP3    H272734   3.670   0.312  14.429  0.9901 -2.5387  0.1144
17107TIP3   OH272735   1.999   3.781   2.853 -0.0023  0.1802 -0.2266
17107TIP3    H172736   2.036   3.748   2.772 -0.5426  2.2322 -1.3949
17107TIP3    H272737   2.018   3.875   2.851 -1.1750  0.4964  1.3881
17108TIP3   OH272738   6.736   1.816   3.559 -0.1157 -0.0670 -0.2825
17108TIP3    H172739   6.656   1.798   3.608 -1.2250 -2.8815 -2.8406
17108TIP3    H272740   6.706   1.857   3.478  1.0337 -1.0186 -1.2185
17109TIP3   OH272741   4.050   4.856   1.768 -0.5335  0.3812 -0.1646
17109TIP3    H172742   4.139   4.886   1.787  0.8560 -1.9886 -2.2694
17109TIP3    H272743   4.008   4.847   1.853  2.1120 -0.8211  1.1222
17110TIP3   OH272744   0.556   3.238   5.711 -0.1254 -0.1897 -0.2642
17110TIP3    H172745   0.469   3.238   5.670 -0.3955  2.3254  0.1543
17110TIP3    H272746   0.615   3.267   5.642 -0.6056  4.2332  0.8595
17111TIP3   OH272747   1.782   3.785  14.062  0.1621 -0.5559  0.6075
17111TIP3    H172748   1.700   3.764  14.017  0.4758  0.7298 -0.6555
17111TIP3    H272749   1.758   3.852  14.126  0.0526 -0.9464  0.9771
17112TIP3   OH272750   0.472   3.517  12.984 -0.3816  0.2685 -0.1798
17112TIP3    H172751   0.502   3.574  13.056 -0.0874 -0.6803  0.4697
17112TIP3    H272752   0.500   3.562  12.905  1.0536  0.3886  0.3562
17113TIP3   OH272753   1.968   1.368   2.787  0.3218 -0.4483  0.7349
17113TIP3    H172754   1.892   1.319   2.756 -1.2293  1.5273  1.2114
17113TIP3    H272755   1.961   1.453   2.744  1.4959  0.2538  1.8718
17114TIP3   OH272756   6.425   3.467  15.696  0.1604 -0.1473  0.1603
17114TIP3    H172757   6.481   3.403  15.738  2.7215  0.2028 -2.3999
17114TIP3    H272758   6.392   3.423  15.618 -0.5516  0.6805 -0.0265
17115TIP3   OH272759   3.382   4.237   6.626  0.7176 -0.2219  0.5751
17115TIP3    H172760   3.410   4.147   6.644  3.1013  0.5679  1.3107
17115TIP3    H272761   3.321   4.258   6.696  0.7136 -1.0437  0.8223
17116TIP3   OH272762   2.374   6.241  13.689 -0.0907 -0.0441 -0.1234
17116TIP3    H172763   2.370   6.332  13.717 -1.3836  0.0263 -0.4823
17116TIP3    H272764   2.417   6.195  13.762  1.6936  1.0148 -0.4544
17117TIP3   OH272765   6.202   3.981  16.674 -0.2587 -0.0293  0.2022
17117TIP3    H172766   6.246   3.913  16.726  0.1011 -0.9000 -1.1692
17117TIP3    H272767   6.211   3.951  16.583 -1.6763  0.9641 -0.3022
17118TIP3   OH272768   5.558   2.486  15.617  0.0904 -0.2832 -0.1462
17118TIP3    H172769   5.609   2.406  15.628  0.2016 -0.4585 -1.6663
17118TIP3    H272770   5.476   2.469  15.663  0.9496 -0.4072  1.4012
17119TIP3   OH272771   3.144   1.610  11.235 -0.1966 -0.0379 -0.3519
17119TIP3    H172772   3.209   1.592  11.302  0.9727  0.6365 -1.2771
17119TIP3    H272773   3.082   1.671  11.276 -0.9110 -1.5461  0.8908
17120TIP3   OH272774   3.878   2.955   1.803  0.0470  0.1310 -0.3359
17120TIP3    H172775   3.876   3.032   1.860  1.6191  0.1927 -0.3280
17120TIP3    H272776   3.929   2.890   1.851  1.4462  0.1935 -1.6686
17121TIP3   OH272777   3.745   1.281  14.538  0.4147  0.2547  0.0092
17121TIP3    H172778   3.745   1.354  14.600  2.0988  0.2664  0.0506
17121TIP3    H272779   3.830   1.287  14.494  0.6385 -1.7095  0.0744
17122TIP3   OH272780   3.140   6.704   4.622  0.3608 -0.1361 -0.2442
17122TIP3    H172781   3.076   6.775   4.625  0.0719 -0.4108  2.2701
17122TIP3    H272782   3.225   6.747   4.636  0.5164 -0.0188 -1.4368
17123TIP3   OH272783   2.336   3.134   3.735 -0.3546 -0.6560 -0.1823
17123TIP3    H172784   2.297   3.186   3.805  0.4734 -0.7204  0.3455
17123TIP3    H272785   2.269   3.069   3.713 -1.0244  0.0164 -0.1816
17124TIP3   OH272786   6.698   5.817   4.374 -0.1043 -0.8070 -0.3466
17124TIP3    H172787   6.746   5.886   4.328  0.0800 -0.4501  0.3815
17124TIP3    H272788   6.706   5.839   4.467 -0.2159 -1.6900 -0.1170
17125TIP3   OH272789   2.010   0.775   1.346  0.6599 -0.7212 -0.3490
17125TIP3    H172790   2.020   0.736   1.260 -1.6545  0.7540 -1.3923
17125TIP3    H272791   1.929   0.827   1.340  1.9093  1.7386  1.8152
17126TIP3   OH272792   0.265   2.240  16.765  0.4328 -0.0816  0.3345
17126TIP3    H172793   0.304   2.206  16.845  1.4185  3.3490  1.4950
17126TIP3    H272794   0.176   2.265  16.790  0.0702 -0.7821 -0.2114
17127TIP3   OH272795   4.223   5.259  11.632  0.4304 -0.0182  0.0703
17127TIP3    H172796   4.309   5.225  11.609 -0.8338 -1.8869 -2.4240
17127TIP3    H272797   4.185   5.193  11.689 -0.1485 -0.3310 -0.6581
17128TIP3   OH272798   4.836   4.472   3.445  0.6287 -0.1844  0.0080
17128TIP3    H172799   4.782   4.393   3.451  0.3761 -0.1970 -1.8722
17128TIP3    H272800   4.865   4.475   3.354  2.6138  0.6316  0.6033
17129TIP3   OH272801   0.909   0.892  17.161  0.3134  0.3161 -0.6054
17129TIP3    H172802   0.875   0.850  17.082  0.8573  0.2475 -0.8054
17129TIP3    H272803   0.834   0.939  17.197  0.2354  0.9553 -1.5580
17130TIP3   OH272804   6.184   1.654  14.539 -0.4187 -0.1302 -0.4902
17130TIP3    H172805   6.188   1.705  14.620  1.6245  0.0422 -0.6414
17130TIP3    H272806   6.129   1.579  14.560  0.3549 -0.2724  1.1923
17131TIP3   OH272807   2.210   4.689  14.128  0.1915 -0.1937 -0.3334
17131TIP3    H172808   2.142   4.754  14.144  1.7154  1.2263  0.6906
17131TIP3    H272809   2.245   4.669  14.215 -0.4670 -2.7073 -0.5810
17132TIP3   OH272810   3.540   3.650  15.012 -0.1294 -0.0854 -0.0188
17132TIP3    H172811   3.585   3.704  14.947 -1.2866 -0.0469 -0.8195
17132TIP3    H272812   3.564   3.560  14.991 -0.1156 -0.0395 -0.1968
17133TIP3   OH272813   0.977   3.546   1.468  0.6825  0.1884 -0.0149
17133TIP3    H172814   0.993   3.630   1.511  0.0284 -0.2933  1.2039
17133TIP3    H272815   0.889   3.521   1.494  0.8605 -0.8768 -0.3693
17134TIP3   OH272816   6.507   6.231   3.240  0.3474 -0.0405  0.7296
17134TIP3    H172817   6.520   6.149   3.288  0.1133  0.2916  1.3703
17134TIP3    H272818   6.412   6.239   3.230  0.3878 -0.0532  0.2972
17135TIP3   OH272819   3.907   6.707  16.376 -0.6438 -0.1407  0.0775
17135TIP3    H172820   3.916   6.708  16.472 -0.3352  0.5338  0.0491
17135TIP3    H272821   3.986   6.661  16.346 -1.5624 -1.8825  0.2101
17136TIP3   OH272822   1.894   3.128   2.480  0.2375  0.2599 -0.5563
17136TIP3    H172823   1.925   3.144   2.569 -0.2368 -3.7191  0.5456
17136TIP3    H272824   1.799   3.119   2.489  0.3168 -1.6141 -1.0746
17137TIP3   OH272825   3.204   1.961   2.591  0.3628 -0.5512 -0.3416
17137TIP3    H172826   3.285   1.935   2.546  1.0210 -0.6326  0.8395
17137TIP3    H272827   3.232   1.978   2.681 -0.6078  1.2725 -0.3463
17138TIP3   OH272828   1.315   0.800   2.383 -0.1157  0.2521 -0.3579
17138TIP3    H172829   1.328   0.887   2.419  3.9785  0.8831 -2.6620
17138TIP3    H272830   1.329   0.741   2.457 -1.4411  1.4708  0.9104
17139TIP3   OH272831   4.748   4.572  14.696 -0.3284 -0.0645  0.2362
17139TIP3    H172832   4.771   4.663  14.675  0.5912 -0.4528 -0.5082
17139TIP3    H272833   4.764   4.564  14.790 -1.6296  0.8754  0.5779
17140TIP3   OH272834   6.633   5.925  16.654 -0.0115 -0.4524 -0.7580
17140TIP3    H172835   6.700   5.913  16.587  0.7712  0.4786 -0.1760
17140TIP3    H272836   6.630   6.020  16.668  0.4047 -0.6697  1.0479
17141TIP3   OH272837   3.531   0.930  13.380  0.5086 -0.7073  0.2072
17141TIP3    H172838   3.441   0.929  13.414  0.6878  1.9466  0.9580
17141TIP3    H272839   3.521   0.925  13.285 -0.4810  0.2939  0.2452
17142TIP3   OH272840   4.276   1.894  10.964  0.0002  0.2039 -0.1404
17142TIP3    H172841   4.336   1.957  11.005 -0.2047  0.8869 -0.8659
17142TIP3    H272842   4.225   1.860  11.037 -0.8055  1.8845  0.1396
17143TIP3   OH272843   2.942   6.683  12.941 -0.0625  0.3875  0.1455
17143TIP3    H172844   2.888   6.666  12.864 -0.7188  0.4168  0.5866
17143TIP3    H272845   2.879   6.711  13.008  0.5287  0.6181  0.6108
17144TIP3   OH272846   1.376   2.910   1.627  0.1075 -0.3052  0.5111
17144TIP3    H172847   1.320   2.849   1.580 -0.7612  0.1617  0.9151
17144TIP3    H272848   1.341   2.996   1.606  1.5024  0.0935 -0.2825
17145TIP3   OH272849   4.665   0.990  14.279  0.0580  0.0008  0.6525
17145TIP3    H172850   4.645   1.075  14.239  1.5372  0.0458 -0.0573
17145TIP3    H272851   4.610   0.928  14.232  0.0681  0.3745  0.1419
17146TIP3   OH272852   4.760   0.869   1.809 -0.2125  0.2415 -0.7558
17146TIP3    H172853   4.849   0.866   1.844 -0.8156  1.5277  1.0376
17146TIP3    H272854   4.706   0.829   1.877 -1.0288 -0.5773 -1.8447
17147TIP3   OH272855   6.407   4.052  13.663  0.1322 -0.0252  0.1298
17147TIP3    H172856   6.395   4.123  13.599  1.3408 -1.4446 -1.7696
17147TIP3    H272857   6.405   4.096  13.748 -0.5426  2.0891 -0.9112
17148TIP3   OH272858   5.980   4.600   0.797 -0.5024 -0.2366  0.3997
17148TIP3    H172859   5.950   4.684   0.761 -0.9162 -0.4308  0.2815
17148TIP3    H272860   5.949   4.535   0.734 -0.0365 -0.4659  0.4032
17149TIP3   OH272861   3.869   3.475   0.392 -0.7343  0.2322 -0.3832
17149TIP3    H172862   3.928   3.419   0.443 -0.4635  1.5137  0.7460
17149TIP3    H272863   3.915   3.558   0.384 -0.6109 -0.0118 -3.0674
17150TIP3   OH272864   0.233   4.896  13.359  0.1153  0.0123  0.5110
17150TIP3    H172865   0.205   4.927  13.445 -4.8663 -0.9251 -0.4622
17150TIP3    H272866   0.231   4.801  13.365  2.1237 -0.1135 -0.0732
17151TIP3   OH272867   5.418   5.105   2.891  0.2225  0.3237  0.0155
17151TIP3    H172868   5.509   5.105   2.861 -0.2444  0.7678 -1.5084
17151TIP3    H272869   5.378   5.177   2.843 -0.9991 -0.0159  0.5008
17152TIP3   OH272870   1.728   0.934   5.841  0.2085 -0.5658 -0.2651
17152TIP3    H172871   1.765   0.946   5.928  0.5592  0.1246 -0.5054
17152TIP3    H272872   1.799   0.896   5.789  0.1305 -0.5817 -0.3621
17153TIP3   OH272873   4.625   6.656  15.353  0.9444  0.2902  0.2040
17153TIP3    H172874   4.687   6.719  15.392  2.3264 -0.7561 -0.2214
17153TIP3    H272875   4.674   6.615  15.282 -0.2570 -0.5916 -0.1452
17154TIP3   OH272876   6.587   1.037   5.291 -0.4202  0.3077 -0.6397
17154TIP3    H172877   6.592   1.121   5.247 -1.9905  1.1834  0.7407
17154TIP3    H272878   6.638   1.049   5.371 -0.7752  0.0091 -0.3621
17155TIP3   OH272879   4.928   5.056  12.994  0.7562  0.1439  0.2607
17155TIP3    H172880   4.991   5.114  12.951  1.5567 -0.0114  1.1730
17155TIP3    H272881   4.843   5.083  12.961  1.0968  1.9145  0.7211
17156TIP3   OH272882   3.006   4.323  14.399  0.5326 -0.3619  0.5959
17156TIP3    H172883   3.066   4.345  14.470 -1.1166  0.4785  1.8010
17156TIP3    H272884   2.972   4.236  14.422  0.5553 -0.4116  0.4428
17157TIP3   OH272885   4.919   3.533  13.246  0.4685 -0.0371  0.0139
17157TIP3    H172886   4.858   3.550  13.317  1.4326 -0.6849  1.0211
17157TIP3    H272887   4.926   3.617  13.199  1.7855  1.1817  2.2293
17158TIP3   OH272888   4.445   1.318   0.231  0.0317  0.4537  0.2966
17158TIP3    H172889   4.476   1.259   0.301 -0.0086  1.3381  1.0815
17158TIP3    H272890   4.479   1.279   0.151  2.4583  0.8497  1.0283
17159TIP3   OH272891   0.824   1.112   1.067  0.6124  0.8442 -0.0854
17159TIP3    H172892   0.805   1.023   1.096  0.0578  0.3246 -1.8725
17159TIP3    H272893   0.796   1.168   1.139  1.8530 -0.4454  1.4690
17160TIP3   OH272894   4.334   1.760  14.492 -0.0782  1.2860 -0.0600
17160TIP3    H172895   4.290   1.837  14.456  0.7422  0.7779 -2.3394
17160TIP3    H272896   4.420   1.761  14.450  0.5161 -0.0307  1.0823
17161TIP3   OH272897   6.782   2.839  12.068 -0.1715 -0.7490 -0.0893
17161TIP3    H172898   6.718   2.848  12.139 -0.0795 -0.1297 -0.0814
17161TIP3    H272899   6.736   2.873  11.991  0.5831  0.8895  0.1659
17162TIP3   OH272900   4.562   0.694  16.884  0.1061  0.0252 -0.0790
17162TIP3    H172901   4.632   0.641  16.845 -0.2880 -0.6038  0.0493
17162TIP3    H272902   4.545   0.652  16.969  2.1573  2.3723  1.6595
17163TIP3   OH272903   6.581   1.418   0.538 -0.0024 -0.0117  0.3546
17163TIP3    H172904   6.557   1.389   0.626 -1.6746  1.7667  0.5361
17163TIP3    H272905   6.595   1.337   0.490  1.7975 -1.0499  2.4234
17164TIP3   OH272906   1.974   4.226   3.961 -0.6503  0.3914  0.1176
17164TIP3    H172907   1.880   4.211   3.953 -1.0925  2.9467 -0.2774
17164TIP3    H272908   1.983   4.321   3.963  1.8997  0.2034  0.7102
17165TIP3   OH272909   3.800   5.336  15.591  0.5186  0.2906 -0.0514
17165TIP3    H172910   3.788   5.297  15.677 -0.4276  0.9873  0.1419
17165TIP3    H272911   3.729   5.399  15.583 -1.1541 -1.6719 -2.4425
17166TIP3   OH272912   1.658   6.473  16.416  0.5193 -0.0983  0.1865
17166TIP3    H172913   1.632   6.536  16.483  0.5882 -0.1247  0.2379
17166TIP3    H272914   1.743   6.504  16.385  0.3855  0.0365 -0.0446
17167TIP3   OH272915   2.506   3.829   3.705 -0.1204 -0.2497 -0.2972
17167TIP3    H172916   2.490   3.808   3.797 -0.0092 -0.5370 -0.3437
17167TIP3    H272917   2.568   3.901   3.707  0.9203 -1.1281 -0.1660
17168TIP3   OH272918   4.465   6.355   1.768 -0.3102  0.1244 -0.4257
17168TIP3    H172919   4.454   6.414   1.843  0.9878  0.8180 -0.7457
17168TIP3    H272920   4.389   6.373   1.713 -1.1903 -0.2652  0.6111
17169TIP3   OH272921   4.941   0.289  17.149  0.1155 -0.0988 -0.4920
17169TIP3    H172922   5.019   0.334  17.182  0.3082 -1.2407  0.6642
17169TIP3    H272923   4.975   0.208  17.111 -0.4480 -0.3139 -0.5357
17170TIP3   OH272924   1.420   3.034   2.704  0.0516 -0.1799  0.2156
17170TIP3    H172925   1.395   2.985   2.626  1.9798  1.2618 -1.4011
17170TIP3    H272926   1.345   3.092   2.721 -0.3677 -0.4670 -0.5992
17171TIP3   OH272927   0.270   4.536   1.073 -0.3009  0.3121 -0.1883
17171TIP3    H172928   0.339   4.524   1.139 -0.8436 -0.7502  0.2053
17171TIP3    H272929   0.191   4.555   1.124 -0.2562  1.8369 -0.6518
17172TIP3   OH272930   2.066   1.058  15.716  0.0323 -0.7640  0.5041
17172TIP3    H172931   2.030   1.117  15.783  0.0269 -1.6749  1.3341
17172TIP3    H272932   1.989   1.015  15.678 -0.0060  0.1431 -0.4962
17173TIP3   OH272933   3.307   4.168  14.875 -0.4504 -0.7032 -0.3387
17173TIP3    H172934   3.335   4.085  14.913  0.6063 -0.9300 -1.5437
17173TIP3    H272935   3.354   4.174  14.792 -0.4849  1.1177 -0.2770
17174TIP3   OH272936   1.826   5.697   1.992 -0.0331  0.2202 -0.3733
17174TIP3    H172937   1.814   5.786   2.025 -1.6392 -0.2800  0.4796
17174TIP3    H272938   1.767   5.644   2.045  1.6557 -1.5396 -0.1480
17175TIP3   OH272939   5.422   5.203   4.018 -0.1894 -0.1856 -0.0142
17175TIP3    H172940   5.358   5.266   4.049  0.4298  0.2688  0.3626
17175TIP3    H272941   5.430   5.221   3.924 -1.5457 -1.1008 -0.3346
17176TIP3   OH272942   1.519   0.809  14.304  0.1432 -0.0970 -0.2092
17176TIP3    H172943   1.543   0.744  14.237  0.7831 -1.1444  1.0065
17176TIP3    H272944   1.523   0.761  14.387  2.4840  1.9211  0.9606
17177TIP3   OH272945   2.331   2.118  10.957 -0.3591 -0.2445 -0.0850
17177TIP3    H172946   2.365   2.158  11.037 -1.0495 -1.1053  0.6604
17177TIP3    H272947   2.238   2.142  10.955 -1.0282 -2.5110  0.8787
17178TIP3   OH272948   2.888   3.894   4.723 -0.3133 -0.0304 -0.1553
17178TIP3    H172949   2.801   3.931   4.735 -0.4881 -0.4247 -0.1760
17178TIP3    H272950   2.884   3.808   4.766 -0.4344 -0.7439 -1.5101
17179TIP3   OH272951   2.245   2.600   4.569  0.0830  0.4497  0.7539
17179TIP3    H172952   2.179   2.545   4.528  1.1472  0.1522 -0.6370
17179TIP3    H272953   2.328   2.558   4.547  0.7861  1.2849  1.7214
17180TIP3   OH272954   5.911   3.960  11.300 -0.4141 -0.3022  0.2578
17180TIP3    H172955   5.868   4.044  11.287 -0.9223 -0.2192  2.1720
17180TIP3    H272956   5.943   3.963  11.390  0.2863 -1.8403  0.0930
17181TIP3   OH272957   3.774   3.010   6.366 -0.4347  0.1833 -0.2671
17181TIP3    H172958   3.862   2.984   6.395 -0.3842  0.9692  0.3006
17181TIP3    H272959   3.745   2.937   6.311  2.5160  1.8713 -4.6395
17182TIP3   OH272960   0.542   0.172   3.987 -0.2297 -0.1632 -0.0133
17182TIP3    H172961   0.625   0.177   4.035 -0.7627  0.1736  0.8792
17182TIP3    H272962   0.514   0.262   3.977 -1.6003 -0.3653  1.6638
17183TIP3   OH272963   3.440   4.705   3.557 -0.5172  0.0641 -0.1838
17183TIP3    H172964   3.418   4.770   3.490 -0.2466 -0.4193 -0.7491
17183TIP3    H272965   3.387   4.629   3.534  0.9171 -0.7476 -0.9410
17184TIP3   OH272966   5.942   2.974  11.779 -0.3934  0.1427 -0.8453
17184TIP3    H172967   5.995   3.024  11.716 -1.7456  0.3698 -1.8458
17184TIP3    H272968   5.881   3.037  11.815 -0.7573 -0.3567 -0.5756
17185TIP3   OH272969   0.958   0.639   2.789  0.4773  0.0164  0.4386
17185TIP3    H172970   1.026   0.692   2.829 -0.2872  1.6198 -0.3153
17185TIP3    H272971   0.876   0.683   2.813 -0.2066 -0.9876  0.0254
17186TIP3   OH272972   2.078   1.965   3.266  0.1049  0.2027 -0.8457
17186TIP3    H172973   2.088   2.030   3.335 -0.1425  0.1643 -0.7744
17186TIP3    H272974   2.081   1.880   3.312 -0.9723  0.1950 -0.7645
17187TIP3   OH272975   1.179   3.462   1.731 -0.1538  0.3577  0.5863
17187TIP3    H172976   1.224   3.541   1.758 -0.8776  0.6859  0.8520
17187TIP3    H272977   1.204   3.450   1.639  2.5253 -0.9028  1.3622
17188TIP3   OH272978   2.879   2.268   3.249  0.9664  0.0686 -0.1473
17188TIP3    H172979   2.871   2.179   3.214  0.9261 -0.2510  0.6610
17188TIP3    H272980   2.907   2.320   3.174  4.5773 -1.2518  0.0381
17189TIP3   OH272981   0.974   2.986  11.095  0.3896 -0.1445 -0.2777
17189TIP3    H172982   0.879   3.003  11.097  0.1182 -1.5520 -0.3683
17189TIP3    H272983   0.983   2.896  11.127  1.7117 -0.0124 -0.2238
17190TIP3   OH272984   0.682   6.048   2.666 -0.0406  0.4868  0.4935
17190TIP3    H172985   0.627   6.012   2.736  1.6278 -1.8196  0.7418
17190TIP3    H272986   0.631   6.034   2.586 -0.4579 -0.2565  0.8744
17191TIP3   OH272987   1.733   5.139  12.182  0.1801  0.2268  0.1553
17191TIP3    H172988   1.742   5.045  12.192 -1.9228  0.1530  2.5113
17191TIP3    H272989   1.682   5.150  12.102  0.9751 -0.5739 -0.4745
17192TIP3   OH272990   3.276   0.746  13.690  0.2765 -0.5860  0.5154
17192TIP3    H172991   3.187   0.719  13.710  0.1817  0.1083  1.0904
17192TIP3    H272992   3.331   0.694  13.748  0.2155 -0.7368  0.4363
17193TIP3   OH272993   4.108   6.340   4.682 -0.3050 -0.1848 -0.3325
17193TIP3    H172994   4.032   6.393   4.708  0.8549  1.8740 -0.8951
17193TIP3    H272995   4.178   6.367   4.741  0.5447 -0.4926 -1.1633
17194TIP3   OH272996   0.749   4.340   1.670  0.4208 -0.5524 -0.8382
17194TIP3    H172997   0.759   4.434   1.655 -1.0294 -0.4482 -1.3375
17194TIP3    H272998   0.770   4.328   1.763 -0.7373  0.5012 -0.4103
17195TIP3   OH272999   2.770   6.741   1.666  0.1686  0.0138 -0.5020
17195TIP3    H173000   2.755   6.815   1.725 -0.0563  1.1666 -1.9423
17195TIP3    H273001   2.682   6.712   1.641  0.2652  0.1282 -0.9789
17196TIP3   OH273002   2.627   3.453  12.588  0.4936  0.0195 -0.1297
17196TIP3    H173003   2.550   3.510  12.580  0.9811  0.4478 -2.2287
17196TIP3    H273004   2.598   3.370  12.552  1.5188  0.7496 -2.8475
17197TIP3   OH273005   5.605   2.585  16.142 -0.2381 -0.0032  0.3572
17197TIP3    H173006   5.599   2.546  16.229 -1.6944 -0.6011  0.0073
17197TIP3    H273007   5.628   2.513  16.084 -0.3102  0.1854  0.0913
17198TIP3   OH273008   5.140   3.629   5.695  0.2132 -0.5022  0.0205
17198TIP3    H173009   5.222   3.668   5.664  0.3268 -0.0239  0.8907
17198TIP3    H273010   5.140   3.540   5.659  1.3095 -0.6428  0.3273
17199TIP3   OH273011   5.834   0.388  14.108 -0.2854  0.1711 -0.1100
17199TIP3    H173012   5.790   0.445  14.172  2.0868 -0.7114  2.4823
17199TIP3    H273013   5.822   0.300  14.142 -0.3770 -0.5395 -1.8675
17200TIP3   OH273014   3.375   1.221  12.520  0.3369  0.0363 -0.3919
17200TIP3    H173015   3.346   1.282  12.453 -0.5942 -1.0133 -0.9894
17200TIP3    H273016   3.456   1.259  12.554 -0.4404  1.7919 -0.4292
17201TIP3   OH273017   0.758   2.102  10.843 -0.3204  0.3189  0.3176
17201TIP3    H173018   0.750   2.021  10.792 -1.8260  0.1341  0.8284
17201TIP3    H273019   0.850   2.128  10.831 -0.4876  0.0518 -2.1356
17202TIP3   OH273020   3.719   2.686  15.691  0.6192 -0.5817 -0.2772
17202TIP3    H173021   3.764   2.611  15.730 -1.2596 -1.7363 -0.2075
17202TIP3    H273022   3.644   2.702  15.749 -0.0416  0.1608 -1.2983
17203TIP3   OH273023   6.318   4.951  14.536 -0.4317  0.1856  0.4843
17203TIP3    H173024   6.297   4.883  14.601 -0.8349 -0.1948 -0.0282
17203TIP3    H273025   6.406   4.981  14.560 -0.7641  0.4154  1.5060
17204TIP3   OH273026   2.658   1.036  15.441 -0.4555  0.0670 -0.6399
17204TIP3    H173027   2.669   0.955  15.392  1.4015 -1.5404  2.1480
17204TIP3    H273028   2.729   1.092  15.410 -1.2076  0.3260 -1.9525
17205TIP3   OH273029   5.169   0.983   2.682  0.4302 -0.4921 -0.4453
17205TIP3    H173030   5.111   1.058   2.697  0.1685 -0.8969  0.6325
17205TIP3    H273031   5.216   0.972   2.764  0.4043 -1.5541 -0.5599
17206TIP3   OH273032   2.683   0.067   1.329 -0.0578 -0.0543 -0.3348
17206TIP3    H173033   2.656   0.026   1.247 -1.2933 -0.6555  0.3332
17206TIP3    H273034   2.601   0.096   1.369  0.3198 -1.1919  1.4041
17207TIP3   OH273035   3.972   6.279   4.928 -0.2791 -0.9831  0.2009
17207TIP3    H173036   3.966   6.186   4.909  0.7568 -1.3174  1.3548
17207TIP3    H273037   4.058   6.290   4.969 -0.1255  0.5874 -0.4453
17208TIP3   OH273038   2.040   2.231  15.387 -0.1003 -0.4110 -0.3361
17208TIP3    H173039   2.110   2.183  15.343 -0.1174 -0.3116 -0.4729
17208TIP3    H273040   2.085   2.302  15.434 -0.1389 -0.1511 -0.6895
17209TIP3   OH273041   0.004   1.147  13.177  0.4569  0.2049 -0.0492
17209TIP3    H173042  -0.087   1.135  13.150  0.8798 -2.6256 -0.4881
17209TIP3    H273043   0.035   1.221  13.124 -1.3821  0.8316 -0.3325
17210TIP3   OH273044   5.176   0.465   4.905 -0.6132 -0.5498 -0.0189
17210TIP3    H173045   5.197   0.490   4.996 -0.9918  1.5833 -0.4725
17210TIP3    H273046   5.083   0.483   4.896 -0.0386  2.1751 -1.6341
17211TIP3   OH273047   4.208   1.909   3.037 -0.1744 -0.0066 -0.0645
17211TIP3    H173048   4.236   1.925   2.947 -1.6447 -1.0324 -0.7417
17211TIP3    H273049   4.170   1.992   3.065 -0.1335  0.1831 -0.5480
17212TIP3   OH273050   2.609   1.508  12.947 -0.0307  0.4612  0.2417
17212TIP3    H173051   2.589   1.419  12.974  0.8429 -0.0123 -0.6125
17212TIP3    H273052   2.679   1.537  13.006  1.2011 -0.2282 -0.8063
17213TIP3   OH273053   6.688   3.107   4.863 -0.3152 -0.3465 -0.3296
17213TIP3    H173054   6.763   3.078   4.809 -0.7546 -0.7558 -0.7329
17213TIP3    H273055   6.660   3.189   4.823 -2.5383 -2.0923 -2.6822
17214TIP3   OH273056   1.223   0.848   5.839 -0.4051 -0.0769 -0.6168
17214TIP3    H173057   1.230   0.909   5.913  1.0310  0.8082 -1.4381
17214TIP3    H273058   1.136   0.866   5.802 -0.1796  1.2116 -0.5845
17215TIP3   OH273059   2.405   1.577  14.537 -0.4097 -0.1171 -0.0697
17215TIP3    H173060   2.354   1.641  14.585  0.1359 -1.1498  1.9875
17215TIP3    H273061   2.496   1.606  14.547 -0.3181 -0.0965 -0.8931
17216TIP3   OH273062   4.711   5.674  15.001  0.5972  0.4271  0.1055
17216TIP3    H173063   4.690   5.680  14.907  1.3797  2.1495 -0.0026
17216TIP3    H273064   4.715   5.580  15.018 -0.1698  0.0685 -1.4472
17217TIP3   OH273065   4.182   4.954   2.364  0.0245  0.5437 -0.1336
17217TIP3    H173066   4.132   4.997   2.294  1.4896 -0.3068 -1.7786
17217TIP3    H273067   4.245   5.021   2.392  0.4295  0.4015 -0.6955
17218TIP3   OH273068   2.867   3.341   4.058  0.3258  0.4239  0.8203
17218TIP3    H173069   2.830   3.414   4.108 -0.1385 -0.5219  1.8904
17218TIP3    H273070   2.802   3.323   3.990  0.3456  0.8581  0.6807
17219TIP3   OH273071   2.924   6.278  14.964  0.4450 -0.3516  0.0545
17219TIP3    H173072   2.904   6.321  14.881 -0.3782 -2.0958 -0.7077
17219TIP3    H273073   2.958   6.348  15.020 -0.9676  1.2901 -1.0412
17220TIP3   OH273074   5.679   6.080  12.998 -0.5023  0.6701 -0.3425
17220TIP3    H173075   5.706   6.139  12.927  2.3961 -0.0851 -0.0143
17220TIP3    H273076   5.670   5.995  12.956 -1.8552  0.7753 -0.3063
17221TIP3   OH273077   2.253   3.715   0.115  1.0131 -0.5142 -0.0242
17221TIP3    H173078   2.204   3.744   0.193  0.2678  0.8835 -0.9626
17221TIP3    H273079   2.222   3.773   0.045  3.2703 -0.2709 -0.8950
17222TIP3   OH273080   4.392   0.936  12.648 -0.2616  0.0637 -0.0462
17222TIP3    H173081   4.457   0.905  12.584 -0.0187  2.2770 -0.9810
17222TIP3    H273082   4.441   0.944  12.730  0.8665  2.0815 -0.8236
17223TIP3   OH273083   4.598   4.443  16.970  0.0907 -0.0423 -0.5761
17223TIP3    H173084   4.601   4.513  17.035 -0.3486 -0.2154 -0.3673
17223TIP3    H273085   4.506   4.434  16.947  0.2020 -0.2175 -0.9692
17224TIP3   OH273086   4.734   4.976   0.381  0.0511  0.2325 -0.3200
17224TIP3    H173087   4.669   4.912   0.409 -0.7928  0.3011 -1.9531
17224TIP3    H273088   4.722   5.050   0.440 -1.1651  0.1183 -0.3876
17225TIP3   OH273089   3.332   5.523   2.617 -0.2495 -0.1949 -0.1769
17225TIP3    H173090   3.261   5.461   2.637 -1.1920  1.4994  2.1270
17225TIP3    H273091   3.301   5.607   2.649  2.3616  0.8621 -0.1608
17226TIP3   OH273092   0.789   3.937  15.654  0.3501  0.0244 -0.4324
17226TIP3    H173093   0.850   3.918  15.582  1.2225  0.5097  0.1596
17226TIP3    H273094   0.845   3.949  15.730 -0.4979  0.4182  0.1421
17227TIP3   OH273095   4.482   5.592   2.209  0.0891 -0.7451 -0.7751
17227TIP3    H173096   4.401   5.558   2.170  0.2560 -0.7478 -1.1256
17227TIP3    H273097   4.547   5.524   2.191  0.3829 -0.3232 -1.3214
17228TIP3   OH273098   6.183   2.525  15.392  0.0372 -0.0237 -0.2479
17228TIP3    H173099   6.258   2.519  15.453 -0.1241 -0.5669 -0.1026
17228TIP3    H273100   6.109   2.492  15.442 -0.3478  0.6897 -0.3294
17229TIP3   OH273101   1.121   5.906  16.041  0.2746  0.0026 -0.4776
17229TIP3    H173102   1.145   5.978  16.099  0.2808  0.3932 -0.9558
17229TIP3    H273103   1.104   5.832  16.100 -0.5273  0.6149  0.0858
17230TIP3   OH273104   4.612   3.817  13.095  0.0319 -0.8518 -0.1411
17230TIP3    H173105   4.617   3.879  13.021 -1.2805 -1.6770 -0.9517
17230TIP3    H273106   4.690   3.837  13.147 -0.6603  1.9139 -0.0182
17231TIP3   OH273107   0.993   2.624   1.916 -0.8945  0.3789  0.5450
17231TIP3    H173108   0.990   2.670   1.832  0.1085 -0.0006  0.2787
17231TIP3    H273109   0.938   2.675   1.974 -0.1361  1.7013  0.1459
17232TIP3   OH273110   1.924   6.344   0.013  0.1510  0.4926  0.4378
17232TIP3    H173111   1.864   6.338  -0.062  0.1340  1.8363  0.3154
17232TIP3    H273112   1.924   6.256   0.051  0.7038 -0.4399 -1.5545
17233TIP3   OH273113   4.462   2.323   2.869  0.5450  0.0617 -0.5506
17233TIP3    H173114   4.555   2.323   2.893  1.0568 -2.2330 -2.2108
17233TIP3    H273115   4.447   2.409   2.831  2.0721  0.3457 -0.5716
17234TIP3   OH273116   3.203   3.260  15.659  0.0177 -0.5003  0.1013
17234TIP3    H173117   3.192   3.265  15.564  0.4705 -0.9582  0.0196
17234TIP3    H273118   3.126   3.305  15.694  0.8859  1.6129 -0.4980
17235TIP3   OH273119   5.656   0.291   5.368  0.2720 -0.2341 -0.1681
17235TIP3    H173120   5.685   0.336   5.447 -3.8293  2.4189  0.1474
17235TIP3    H273121   5.644   0.361   5.304  0.3608 -1.9111 -2.1170
17236TIP3   OH273122   3.538   0.465   4.356 -0.0693 -0.2050 -0.3376
17236TIP3    H173123   3.557   0.526   4.428  3.4989 -1.0361 -0.3976
17236TIP3    H273124   3.502   0.521   4.287  2.8904  2.0078 -0.3261
17237TIP3   OH273125   1.213   4.186  14.623 -0.0417  0.0361 -0.2030
17237TIP3    H173126   1.200   4.099  14.585  0.2393  0.2605 -0.8335
17237TIP3    H273127   1.257   4.169  14.706 -2.7493 -0.6154  1.2067
17238TIP3   OH273128   5.242   0.588  14.686 -0.1345 -0.4338  0.2088
17238TIP3    H173129   5.197   0.525  14.630 -1.7748 -0.3658  1.3567
17238TIP3    H273130   5.258   0.541  14.768  2.5210 -0.6434 -0.3352
17239TIP3   OH273131   4.511   3.956   2.163 -0.6930 -0.2577  0.0390
17239TIP3    H173132   4.423   3.993   2.156 -0.6051  0.1951  1.0934
17239TIP3    H273133   4.529   3.956   2.257  0.4575 -0.2898 -0.1714
17240TIP3   OH273134   5.341   4.137   3.621 -0.7084  0.1508 -0.0102
17240TIP3    H173135   5.276   4.202   3.595 -1.4962  0.2700  2.0580
17240TIP3    H273136   5.405   4.186   3.673 -1.4483 -0.6952  1.7961
17241TIP3   OH273137   0.839   1.866  13.432 -0.2805  0.4581 -0.6129
17241TIP3    H173138   0.787   1.792  13.461  1.3243  0.0871  1.5558
17241TIP3    H273139   0.783   1.942  13.446 -0.3457  0.0626  1.5025
17242TIP3   OH273140   2.868   1.957  13.836 -0.0362 -0.3436  0.4665
17242TIP3    H173141   2.937   2.014  13.802 -0.6721  0.6903  0.8555
17242TIP3    H273142   2.817   1.933  13.759 -1.2610  1.7002  0.5859
17243TIP3   OH273143   1.841   2.843  14.406  0.1969 -0.0259  0.3093
17243TIP3    H173144   1.905   2.899  14.362  0.0935 -0.0008  0.1903
17243TIP3    H273145   1.841   2.874  14.496 -0.8075  1.0408 -0.0308
17244TIP3   OH273146   3.072   5.725  14.577 -0.1899 -0.5322  0.1085
17244TIP3    H173147   3.026   5.702  14.658  1.3066  1.7893  1.7257
17244TIP3    H273148   3.050   5.817  14.563  1.1636 -0.3595 -1.0345
17245TIP3   OH273149   2.108   1.857   3.625 -0.9465 -0.1187  0.2289
17245TIP3    H173150   2.168   1.922   3.588 -0.1680 -2.1591 -2.3980
17245TIP3    H273151   2.161   1.811   3.691 -0.2202 -0.6235 -0.6836
17246TIP3   OH273152   5.019   5.578   5.200  0.5854  0.4202 -0.2867
17246TIP3    H173153   4.923   5.586   5.197  0.4238 -1.3258 -0.6512
17246TIP3    H273154   5.051   5.645   5.140 -0.4054  0.9756 -0.2140
17247TIP3   OH273155   4.348   3.113   4.665 -0.3655  0.4216 -0.4182
17247TIP3    H173156   4.392   3.033   4.638  0.1512  1.0343 -1.4128
17247TIP3    H273157   4.255   3.095   4.652 -0.3243 -0.3370  0.2607
17248TIP3   OH273158   3.906   2.894  12.114  0.0493 -0.1664 -0.2355
17248TIP3    H173159   3.840   2.953  12.079 -0.7482 -1.1242 -0.3941
17248TIP3    H273160   3.913   2.917  12.207  1.2339  1.5139 -0.7023
17249TIP3   OH273161   6.085   2.016   3.371 -0.0146  0.0636 -0.0253
17249TIP3    H173162   6.112   2.105   3.350  0.7227 -0.1021  0.2151
17249TIP3    H273163   6.028   1.991   3.298  0.8820  0.2343 -0.8013
17250TIP3   OH273164   3.246   5.536  15.163 -0.5045 -0.3195  0.2170
17250TIP3    H173165   3.169   5.498  15.205  0.6548 -0.5380  2.2707
17250TIP3    H273166   3.276   5.604  15.224  2.1904 -1.7257  0.6163
17251TIP3   OH273167   4.503   3.731   1.347 -0.0225  0.0696  0.2962
17251TIP3    H173168   4.519   3.813   1.395 -1.9494  0.8162 -0.2164
17251TIP3    H273169   4.414   3.741   1.313  0.7345 -1.0335 -2.2379
17252TIP3   OH273170   4.539   4.379   0.320 -0.2215  0.2916  0.3974
17252TIP3    H173171   4.550   4.336   0.236 -0.5167  0.3426  0.3296
17252TIP3    H273172   4.500   4.312   0.376 -3.2075  1.1655 -0.4310
17253TIP3   OH273173   0.507   3.777   0.460 -0.0011  0.2260 -0.2250
17253TIP3    H173174   0.448   3.786   0.386 -1.1150 -2.5740  0.2018
17253TIP3    H273175   0.464   3.714   0.518  2.9090 -1.2060  0.5984
17254TIP3   OH273176   1.066   3.504  11.182 -0.0323 -0.8736 -0.2892
17254TIP3    H173177   1.076   3.491  11.277  0.3300 -0.1045 -0.2152
17254TIP3    H273178   1.039   3.418  11.149 -1.2675 -0.8901  0.6583
17255TIP3   OH273179   6.314   5.895   3.720  0.0228 -0.5790  0.0355
17255TIP3    H173180   6.351   5.975   3.683 -1.1033 -0.0132  0.1176
17255TIP3    H273181   6.341   5.826   3.659 -0.6287  0.1414 -1.0932
17256TIP3   OH273182   0.574   5.069   4.151  0.5460 -0.1163  0.4772
17256TIP3    H173183   0.579   5.017   4.070 -0.7797 -2.0706  1.5463
17256TIP3    H273184   0.480   5.077   4.167  0.7882  0.0199  1.9324
17257TIP3   OH273185   1.240   5.578  12.588 -0.0435 -0.0200 -0.1766
17257TIP3    H173186   1.196   5.576  12.673 -1.0093  1.3321 -0.5980
17257TIP3    H273187   1.170   5.601  12.526  1.4336  3.6909 -0.7004
17258TIP3   OH273188   0.146   6.000  11.588 -0.1601 -0.2423  0.6478
17258TIP3    H173189   0.223   6.020  11.534 -0.2542 -0.4780  0.4241
17258TIP3    H273190   0.095   5.939  11.535 -1.4089  1.2792  0.0064
17259TIP3   OH273191   2.791   6.274  15.814 -0.0350  0.0835  0.3313
17259TIP3    H173192   2.866   6.320  15.852 -0.4186 -1.0743  2.6220
17259TIP3    H273193   2.831   6.208  15.757  0.7876 -0.9603  2.0327
17260TIP3   OH273194   5.796   4.072   0.132 -0.1866 -0.5308 -0.0972
17260TIP3    H173195   5.721   4.131   0.127 -0.5751 -0.9306  0.8281
17260TIP3    H273196   5.864   4.123   0.177  0.2744 -0.0196 -1.3063
17261TIP3   OH273197   4.388   4.292  12.634  0.1819  0.2319  0.3597
17261TIP3    H173198   4.416   4.360  12.695  1.2983  0.0254  0.0997
17261TIP3    H273199   4.358   4.340  12.557 -0.7057  0.4755  0.8485
17262TIP3   OH273200   3.510   0.236  12.251 -0.1825  0.8756 -0.0213
17262TIP3    H173201   3.544   0.295  12.184  1.0630  0.3541  0.1190
17262TIP3    H273202   3.418   0.225  12.229  0.2362  0.5717 -1.7562
17263TIP3   OH273203   3.084   1.192  11.097  0.0157 -0.2861 -0.0543
17263TIP3    H173204   3.009   1.135  11.117 -0.9493  0.7000 -0.7651
17263TIP3    H273205   3.075   1.211  11.003  0.1156  1.3202  0.2381
17264TIP3   OH273206   6.558   1.195   0.154 -0.0003 -0.0881  0.4900
17264TIP3    H173207   6.612   1.188   0.233  0.2166  0.0857  0.3573
17264TIP3    H273208   6.606   1.254   0.097 -0.1034 -0.2975  0.1806
17265TIP3   OH273209   1.419   0.534   2.288  0.6014 -0.1801  0.1593
17265TIP3    H173210   1.368   0.556   2.365  0.1810 -0.1125 -0.1342
17265TIP3    H273211   1.496   0.591   2.292  1.4668 -1.3710  1.4398
17266TIP3   OH273212   2.767   4.521  16.473 -0.0718  0.1549  0.3189
17266TIP3    H173213   2.684   4.531  16.426  0.1301 -1.3300 -0.4139
17266TIP3    H273214   2.832   4.565  16.419  0.0447 -0.9667 -0.4819
17267TIP3   OH273215   5.765   2.823   6.764 -0.1596  0.2246 -0.0802
17267TIP3    H173216   5.786   2.739   6.723 -1.4625  0.0386 -0.4347
17267TIP3    H273217   5.848   2.855   6.799  0.4164 -1.0632 -0.2123
17268TIP3   OH273218   1.914   4.079  14.808  0.2238  0.4614  0.2338
17268TIP3    H173219   1.845   4.039  14.860  1.0653  0.4247  1.3531
17268TIP3    H273220   1.878   4.081  14.719 -1.3386  0.7526  0.8328
17269TIP3   OH273221   6.540   0.865   5.048 -0.1917  0.8186 -0.0412
17269TIP3    H173222   6.528   0.956   5.075 -1.3055  0.9784 -0.9630
17269TIP3    H273223   6.535   0.868   4.952 -1.2492 -0.3253 -0.0474
17270TIP3   OH273224   2.191   2.876   6.193  0.2086 -0.5526 -0.5303
17270TIP3    H173225   2.156   2.939   6.131 -0.4876 -1.7856 -1.4407
17270TIP3    H273226   2.116   2.854   6.249  1.4176  2.7076  2.8199
17271TIP3   OH273227   2.676   3.854  15.436 -0.3601  0.2655  0.6708
17271TIP3    H173228   2.764   3.861  15.398 -0.7335 -2.2097 -0.8751
17271TIP3    H273229   2.621   3.906  15.378 -0.6126 -1.9913 -1.2485
17272TIP3   OH273230   6.005   3.675  11.281 -0.3852 -0.1294 -0.2105
17272TIP3    H173231   6.039   3.745  11.226  2.2974 -0.1400  1.2785
17272TIP3    H273232   6.009   3.597  11.226  1.7933 -0.0537 -0.2227
17273TIP3   OH273233   5.054   5.303  10.383 -0.4321  0.4760 -0.1123
17273TIP3    H173234   5.088   5.308  10.472  0.5236 -0.0166 -0.4299
17273TIP3    H273235   4.974   5.250  10.390  1.1026 -1.9869  0.0997
17274TIP3   OH273236   6.260   0.125   4.422  0.0081 -0.1979  0.4771
17274TIP3    H173237   6.221   0.181   4.356  0.6889  0.2854  0.4756
17274TIP3    H273238   6.348   0.106   4.389  0.3931  0.1328  1.2820
17275TIP3   OH273239   0.719   2.808  12.871  0.1232 -0.2580  0.0941
17275TIP3    H173240   0.629   2.837  12.860  0.1284  0.3347  1.4878
17275TIP3    H273241   0.718   2.755  12.951  0.8430 -0.9916 -0.3657
17276TIP3   OH273242   6.439   2.663  12.898  0.8030 -0.0625 -0.3086
17276TIP3    H173243   6.499   2.616  12.956  1.0042  0.8947  0.2963
17276TIP3    H273244   6.404   2.596  12.840  0.4678 -1.0880  1.0225
17277TIP3   OH273245   5.192   5.903   3.044 -0.0926  0.2283 -0.0744
17277TIP3    H173246   5.255   5.894   2.972  0.1588 -1.9055  0.3219
17277TIP3    H273247   5.230   5.851   3.115 -2.1694 -1.0023  0.2382
17278TIP3   OH273248   4.324   4.695   1.449  0.1265  0.2119 -0.0774
17278TIP3    H173249   4.376   4.616   1.435  0.9775  0.8501 -0.6151
17278TIP3    H273250   4.254   4.668   1.508  0.3589 -0.9584 -0.3181
17279TIP3   OH273251   5.128   2.776   5.304  0.0347  0.5836 -0.2678
17279TIP3    H173252   5.066   2.732   5.363 -0.0220  0.6951 -0.2427
17279TIP3    H273253   5.073   2.827   5.245  0.0780  0.2034 -0.6372
17280TIP3   OH273254   0.942   2.853  12.475  0.4451 -0.1289 -0.7815
17280TIP3    H173255   0.881   2.811  12.536  3.0276  0.5037  2.5819
17280TIP3    H273256   0.914   2.944  12.471  1.3851  0.3133  1.2835
17281TIP3   OH273257   6.710   3.118  12.267 -0.6650  0.3934  0.0912
17281TIP3    H173258   6.666   3.203  12.268  0.6359  1.0949  1.0733
17281TIP3    H273259   6.738   3.104  12.357 -0.4122 -0.8554 -0.1593
17282TIP3   OH273260   1.115   6.673  11.732  0.3924 -0.0991  0.4136
17282TIP3    H173261   1.052   6.742  11.712  0.5863  0.0919  0.4586
17282TIP3    H273262   1.109   6.660  11.826  0.4383 -0.0614  0.4222
17283TIP3   OH273263   2.804   2.154  14.011  0.1091  0.3331  0.1673
17283TIP3    H173264   2.811   2.070  13.967 -0.3420  0.9096 -1.0635
17283TIP3    H273265   2.894   2.177  14.035  0.4215  0.1826 -0.8218
17284TIP3   OH273266   2.344   1.825  11.970 -0.4030 -0.0356  0.5778
17284TIP3    H173267   2.265   1.809  11.918  0.0288 -1.1276  0.2313
17284TIP3    H273268   2.416   1.809  11.909  0.1277 -1.9121  1.6294
17285TIP3   OH273269   3.890   1.811   2.183  0.5384  0.3376 -0.0573
17285TIP3    H173270   3.899   1.899   2.218  1.9087  0.0108  0.4916
17285TIP3    H273271   3.820   1.771   2.236  0.0461  1.0201 -0.1837
17286TIP3   OH273272   5.916   0.666   1.257 -0.1563 -0.5104  0.3848
17286TIP3    H173273   5.925   0.740   1.317  0.8780 -1.2355  1.1455
17286TIP3    H273274   5.824   0.669   1.229 -0.0297  1.3098  0.0432
17287TIP3   OH273275   4.630   1.191  15.937 -0.3448 -0.1192  0.0800
17287TIP3    H173276   4.692   1.136  15.984 -0.0730  1.1444  1.2837
17287TIP3    H273277   4.672   1.206  15.852  0.6072 -0.0010  0.5495
17288TIP3   OH273278   2.468   6.417  13.351  0.3225 -0.9031  0.3658
17288TIP3    H173279   2.411   6.470  13.407  1.0013 -0.0953  0.3205
17288TIP3    H273280   2.408   6.378  13.287 -0.2333 -0.3832  0.5504
17289TIP3   OH273281   0.085   4.689  12.106  0.3132 -0.0941  0.1236
17289TIP3    H173282   0.178   4.706  12.094  0.4597  0.6338  1.9902
17289TIP3    H273283   0.055   4.758  12.166 -1.1800 -0.9826  0.4603
17290TIP3   OH273284   5.346   3.914   3.827 -0.0204 -0.0130 -0.3162
17290TIP3    H173285   5.384   3.876   3.907  0.3557  1.0101  0.0112
17290TIP3    H273286   5.421   3.949   3.780 -0.0335 -1.9859 -1.9302
17291TIP3   OH273287   5.674   4.061   0.791 -0.8312 -0.2719  0.6920
17291TIP3    H173288   5.660   4.085   0.699 -1.8284  1.5425  1.2743
17291TIP3    H273289   5.768   4.044   0.798 -0.9840 -2.1532 -1.0133
17292TIP3   OH273290   6.076   0.503  13.444 -0.6236 -0.3204  0.1376
17292TIP3    H173291   5.997   0.518  13.393 -1.5433  0.0557  1.6065
17292TIP3    H273292   6.111   0.591  13.459  0.8604 -0.5483 -1.6193
17293TIP3   OH273293   1.647   6.633  15.698 -0.3573  0.0480  0.2600
17293TIP3    H173294   1.602   6.659  15.778 -0.2480  0.4881  0.1777
17293TIP3    H273295   1.677   6.543  15.716 -2.2295 -0.6980 -0.0950
17294TIP3   OH273296   6.191   4.886  12.540 -0.5810  0.1800 -0.1798
17294TIP3    H173297   6.174   4.826  12.612  1.7933  1.0318  1.1997
17294TIP3    H273298   6.274   4.856  12.503 -1.2440  0.3951 -1.9218
17295TIP3   OH273299   4.214   2.209   5.755 -0.2347 -0.5178  0.5845
17295TIP3    H173300   4.306   2.204   5.782 -0.4234 -0.5668  1.2357
17295TIP3    H273301   4.165   2.187   5.834 -0.8073 -0.5651  0.2202
17296TIP3   OH273302   6.199   0.912   0.238 -0.1931  0.3857  0.5199
17296TIP3    H173303   6.217   0.999   0.202  0.2219  0.9604  2.0183
17296TIP3    H273304   6.263   0.902   0.309 -0.6978 -0.8511  0.8280
17297TIP3   OH273305   1.767   5.963   2.073  0.2180 -0.4060  0.1498
17297TIP3    H173306   1.734   6.033   2.130  1.9598 -0.0540  0.8032
17297TIP3    H273307   1.792   5.893   2.134 -1.2723 -1.5240 -0.4780
17298TIP3   OH273308   3.088   5.121  17.160 -0.3196 -0.5193  0.0814
17298TIP3    H173309   3.079   5.096  17.252  0.5299 -1.2497 -0.0209
17298TIP3    H273310   3.176   5.158  17.154 -0.4614 -0.2530 -0.3927
17299TIP3   OH273311   4.760   3.211   5.593  0.0986  0.5439 -0.2017
17299TIP3    H173312   4.700   3.284   5.609 -0.1242  0.6341 -1.3256
17299TIP3    H273313   4.735   3.144   5.656 -2.4604 -0.1590 -1.8045
17300TIP3   OH273314   0.432   2.018   2.249  0.0281 -0.3208 -0.4009
17300TIP3    H173315   0.442   2.046   2.158  1.9734  0.1853 -0.0701
17300TIP3    H273316   0.426   2.099   2.299 -1.6166 -0.5916 -0.0802
17301TIP3   OH273317   4.361   6.342  16.729  0.0653  0.6744 -0.2741
17301TIP3    H173318   4.408   6.363  16.809 -0.4539 -0.5434  0.3812
17301TIP3    H273319   4.382   6.250  16.712  2.0167  1.5079 -2.8475
17302TIP3   OH273320   6.269   3.813   6.237  0.3318  0.0564  0.3599
17302TIP3    H173321   6.246   3.885   6.296 -1.4962 -0.2373  0.0928
17302TIP3    H273322   6.264   3.850   6.149 -3.8892 -0.9524 -0.0652
17303TIP3   OH273323   3.624   3.536   2.121  0.3396 -0.3742 -1.0109
17303TIP3    H173324   3.704   3.521   2.172  0.0427 -0.1388 -0.4738
17303TIP3    H273325   3.654   3.584   2.044  1.0897 -2.3728 -2.0426
17304TIP3   OH273326   3.620   4.040  13.978  0.6978  0.5073  0.0844
17304TIP3    H173327   3.709   4.040  13.945  0.8358 -1.6897  0.3198
17304TIP3    H273328   3.567   4.008  13.906  0.4906 -0.7812  0.7887
17305TIP3   OH273329   3.188   3.958   0.609 -0.2965 -0.5450 -0.1636
17305TIP3    H173330   3.175   4.046   0.575 -0.8802 -0.8749 -0.7982
17305TIP3    H273331   3.128   3.903   0.559  2.0865 -1.8035 -1.8478
17306TIP3   OH273332   6.628   3.909   0.189  0.3574  0.1960  0.0371
17306TIP3    H173333   6.700   3.937   0.133 -0.3179  3.2061  0.5340
17306TIP3    H273334   6.561   3.976   0.179 -1.5510 -1.3911  1.2224
17307TIP3   OH273335   2.470   5.870  13.593 -0.5968 -0.1802  0.4093
17307TIP3    H173336   2.479   5.929  13.668  0.7334  0.4001 -0.1735
17307TIP3    H273337   2.481   5.783  13.630  1.7922  0.1650  0.7191
17308TIP3   OH273338   3.011   5.214  10.913  0.3804  0.0106  0.3104
17308TIP3    H173339   2.992   5.280  10.847  1.2070  0.9364  0.9773
17308TIP3    H273340   2.931   5.160  10.916 -0.4838  1.2352  0.0595
17309TIP3   OH273341   3.102   3.673   4.007 -0.4629  0.3676  0.0701
17309TIP3    H173342   3.163   3.747   4.011 -0.2255  0.2029 -0.4226
17309TIP3    H273343   3.076   3.669   3.915 -0.2151 -0.3705  0.0287
17310TIP3   OH273344   1.452   1.416   3.706  0.2360  0.0893 -0.0619
17310TIP3    H173345   1.538   1.381   3.732  0.1980 -0.2326 -0.3532
17310TIP3    H273346   1.427   1.362   3.631 -0.6806 -0.4947  0.6522
17311TIP3   OH273347   5.608   6.196   4.394 -0.2030 -0.2907  0.0923
17311TIP3    H173348   5.678   6.251   4.359 -1.5608  1.5714  0.1578
17311TIP3    H273349   5.543   6.192   4.324 -1.5997  0.9953  1.2435
17312TIP3   OH273350   4.031   5.405  14.938 -0.1075 -0.4589 -0.4739
17312TIP3    H173351   4.004   5.357  15.017 -0.1000  0.6594  0.2236
17312TIP3    H273352   4.115   5.444  14.961 -0.6080  0.7627 -0.6390
17313TIP3   OH273353   5.351   0.795   5.001 -0.5430 -0.2441  0.7740
17313TIP3    H173354   5.353   0.864   5.067  0.0148 -1.4678  2.0709
17313TIP3    H273355   5.269   0.811   4.953 -0.5705  1.1316  1.2131
17314TIP3   OH273356   3.754   1.141  14.143 -0.2399  0.3353  0.2624
17314TIP3    H173357   3.841   1.168  14.173  0.3774 -2.0616  0.7939
17314TIP3    H273358   3.752   1.047  14.158 -2.7827  0.2716 -0.1806
17315TIP3   OH273359   0.193   1.177   5.888 -0.1715  0.3391  0.7022
17315TIP3    H173360   0.102   1.203   5.876  0.5423  3.0582  0.6100
17315TIP3    H273361   0.241   1.219   5.816  1.1454 -1.3203  0.5335
17316TIP3   OH273362   3.789   2.766  15.283 -0.1439 -0.5471  0.2747
17316TIP3    H173363   3.802   2.814  15.201 -3.1185  1.9107  1.0691
17316TIP3    H273364   3.779   2.675  15.256  2.5028 -0.3975 -1.6478
17317TIP3   OH273365   1.565   6.038  16.160  0.2847 -0.0871  0.1057
17317TIP3    H173366   1.560   6.133  16.154 -1.1759  0.0255  2.2836
17317TIP3    H273367   1.616   6.021  16.239  0.8683 -1.1439 -0.4716
17318TIP3   OH273368   4.835   6.169   2.469 -0.2093 -0.4603 -0.4829
17318TIP3    H173369   4.850   6.151   2.377 -0.0907 -3.2516 -0.0041
17318TIP3    H273370   4.906   6.229   2.494  0.0256 -0.0391 -2.0824
17319TIP3   OH273371   0.812   4.685  11.550 -0.2089  0.2912  0.4465
17319TIP3    H173372   0.818   4.620  11.480  1.7690 -0.6303  1.3846
17319TIP3    H273373   0.794   4.634  11.629  0.1110  1.0133  1.0001
17320TIP3   OH273374   2.200   0.783  10.691 -0.4007 -0.2801  0.1599
17320TIP3    H173375   2.187   0.810  10.782  0.8809  1.8824 -0.2162
17320TIP3    H273376   2.150   0.702  10.682 -0.7168 -0.4448  2.7201
17321TIP3   OH273377   3.058   1.981   6.515 -0.9645 -0.2042  0.1988
17321TIP3    H173378   2.974   2.028   6.519  0.2239  1.9541  2.1569
17321TIP3    H273379   3.106   2.025   6.445 -0.5910  0.1898  0.6973
17322TIP3   OH273380   4.258   6.144   3.036  0.3073 -0.5940 -0.4916
17322TIP3    H173381   4.184   6.189   2.995  0.3158  0.4866  0.6436
17322TIP3    H273382   4.286   6.202   3.107  2.4704 -0.7867 -1.0990
17323TIP3   OH273383   3.135   1.402   3.348  0.0148  0.2188 -0.2331
17323TIP3    H173384   3.069   1.471   3.340  1.3688  1.7427  1.0601
17323TIP3    H273385   3.207   1.443   3.397  0.6754 -2.2645  1.0261
17324TIP3   OH273386   2.419   5.603   0.492 -0.2377  0.4014 -0.0638
17324TIP3    H173387   2.501   5.637   0.458 -0.2745 -0.9547 -1.6689
17324TIP3    H273388   2.430   5.508   0.492 -1.3486  0.2415  0.9476
17325TIP3   OH273389   2.242   5.371   4.183  0.2026  0.2099  0.1829
17325TIP3    H173390   2.325   5.361   4.229  0.2755 -2.9538 -0.3715
17325TIP3    H273391   2.267   5.388   4.092  0.2246  0.4932  0.2432
17326TIP3   OH273392   4.456   5.097  16.588  0.1801 -0.2686  0.1638
17326TIP3    H173393   4.521   5.103  16.518 -1.7445 -1.1976 -1.8174
17326TIP3    H273394   4.491   5.030  16.647  0.7793 -1.1673 -1.1602
17327TIP3   OH273395   3.233   0.554   0.733 -0.7081  0.5884 -0.3128
17327TIP3    H173396   3.185   0.491   0.787  0.2788 -1.4545 -1.6963
17327TIP3    H273397   3.232   0.635   0.784  0.6827 -1.3283  3.0781
17328TIP3   OH273398   2.860   3.010  16.350  0.1057  0.9644 -0.4568
17328TIP3    H173399   2.834   2.956  16.424  0.7196  1.7527  0.3495
17328TIP3    H273400   2.915   2.952  16.296 -0.2249  0.4319 -0.2260
17329TIP3   OH273401   5.824   2.197   6.393  0.4383 -0.0687 -0.3881
17329TIP3    H173402   5.849   2.262   6.459  0.0825  0.0036 -0.3257
17329TIP3    H273403   5.815   2.115   6.442 -3.8439  0.6988  0.4815
17330TIP3   OH273404   6.712   5.170   2.616 -0.4668 -0.0182  0.6945
17330TIP3    H173405   6.628   5.216   2.606 -1.7412 -2.1434  0.8996
17330TIP3    H273406   6.694   5.082   2.582  1.9664 -0.2807 -0.0799
17331TIP3   OH273407   4.831   4.872   3.499 -0.3283 -0.1067  0.5004
17331TIP3    H173408   4.757   4.819   3.470 -0.0342  0.0301 -0.5213
17331TIP3    H273409   4.802   4.910   3.582 -1.4963  0.1547 -0.0214
17332TIP3   OH273410   3.618   2.765  15.949  0.3347 -0.0947  0.0045
17332TIP3    H173411   3.546   2.760  15.887  0.6939 -1.1496 -0.3430
17332TIP3    H273412   3.587   2.823  16.018 -0.5393  0.0882 -0.5368
17333TIP3   OH273413   4.485   6.642   2.655  0.6999  0.0546 -0.0284
17333TIP3    H173414   4.478   6.600   2.740  1.7950 -1.3569 -0.5989
17333TIP3    H273415   4.403   6.620   2.611 -0.2189  1.4466  0.8973
17334TIP3   OH273416   5.464   1.757  15.297  0.6007  0.5199 -0.0848
17334TIP3    H173417   5.529   1.760  15.367  0.2608 -0.5719  0.3055
17334TIP3    H273418   5.427   1.669  15.303 -0.5833  0.9591 -0.5893
17335TIP3   OH273419   5.824   0.225  16.683  0.4669 -0.3371  0.9363
17335TIP3    H173420   5.761   0.154  16.686 -0.2365  0.3092  2.2688
17335TIP3    H273421   5.889   0.203  16.749  3.4706 -2.5416 -2.4023
17336TIP3   OH273422   1.850   5.413  14.862 -0.2201 -0.0737  0.0868
17336TIP3    H173423   1.772   5.466  14.880 -0.7750 -0.8026 -0.1233
17336TIP3    H273424   1.836   5.378  14.775 -1.0339 -2.5192  1.1233
17337TIP3   OH273425   3.934   5.927   2.973  0.3591  0.2265  0.5320
17337TIP3    H173426   3.967   5.854   3.026  1.2530  0.0171 -0.2906
17337TIP3    H273427   3.998   5.936   2.902 -1.4518 -0.3666 -1.2864
17338TIP3   OH273428   1.960   6.671  15.041  0.0926 -0.1773  0.2039
17338TIP3    H173429   2.029   6.605  15.049  1.1757  1.1219  2.9125
17338TIP3    H273430   1.891   6.641  15.099  0.0574  0.4155  0.4800
17339TIP3   OH273431   3.588   6.428   4.972 -0.2401 -0.7933 -0.5707
17339TIP3    H173432   3.503   6.463   4.946 -1.3472 -1.4400  1.8592
17339TIP3    H273433   3.581   6.333   4.958 -1.1854 -1.2934  2.4285
17340TIP3   OH273434   1.249   2.171  13.815 -0.0646 -0.0568 -0.2862
17340TIP3    H173435   1.276   2.178  13.723  0.6480 -0.0523 -0.0870
17340TIP3    H273436   1.318   2.119  13.856 -1.4228 -1.8660 -0.1631
17341TIP3   OH273437   4.967   6.617   1.395  0.4189  0.2083  0.1081
17341TIP3    H173438   4.897   6.604   1.460 -0.9581 -0.0812 -1.3712
17341TIP3    H273439   5.020   6.538   1.399  1.2491  0.8045  1.8795
17342TIP3   OH273440   1.472   3.976  15.937 -0.3567  0.2074 -0.4894
17342TIP3    H173441   1.525   4.052  15.964 -1.7394  0.7274  0.8839
17342TIP3    H273442   1.404   4.013  15.880 -0.7325 -0.0851 -0.2329
17343TIP3   OH273443   6.393   0.882   6.210  0.3325 -0.2695  0.4559
17343TIP3    H173444   6.395   0.876   6.305 -0.1636  0.7297  0.5496
17343TIP3    H273445   6.475   0.925   6.187 -0.2074  0.8902  0.5859
17344TIP3   OH273446   4.895   3.830   0.619 -0.2263  0.1140 -0.5161
17344TIP3    H173447   4.869   3.738   0.622  1.1412 -0.3185 -0.8899
17344TIP3    H273448   4.852   3.864   0.540  2.0630 -1.2062 -2.5029
17345TIP3   OH273449   1.155   1.228   1.871 -0.8534  0.5367  0.3003
17345TIP3    H173450   1.119   1.141   1.888  0.4536 -0.2779 -0.8990
17345TIP3    H273451   1.203   1.250   1.952  2.8016 -1.9996 -0.9074
17346TIP3   OH273452   2.921   3.659   0.173  0.0834 -0.4156  0.3610
17346TIP3    H173453   2.958   3.622   0.093  2.5436  0.4716  0.9822
17346TIP3    H273454   2.897   3.583   0.226 -1.1217 -1.0084 -0.9803
17347TIP3   OH273455   4.303   6.162  17.235 -0.0297  0.3248  0.4176
17347TIP3    H173456   4.256   6.083  17.261  1.6292 -0.9665 -0.2593
17347TIP3    H273457   4.254   6.196  17.160 -1.3840  0.5967  1.3928
17348TIP3   OH273458   4.901   1.216  12.384 -0.1808  0.3868 -0.5987
17348TIP3    H173459   4.973   1.156  12.406  0.2218  1.3101  0.7546
17348TIP3    H273460   4.831   1.160  12.351  0.7329 -0.6526 -0.8139
17349TIP3   OH273461   5.393   6.296   1.821 -0.3090 -0.5722  0.0885
17349TIP3    H173462   5.398   6.255   1.908 -0.1545 -1.6506 -0.4104
17349TIP3    H273463   5.430   6.383   1.833 -2.6853  0.3029  1.6955
17350TIP3   OH273464   6.509   3.262   2.711 -0.4641 -1.1382 -0.0991
17350TIP3    H173465   6.542   3.175   2.733  0.8425 -0.7589 -0.4894
17350TIP3    H273466   6.585   3.310   2.680 -1.2795 -0.0272 -0.4596
17351TIP3   OH273467   3.952   6.141  14.694 -0.3730  0.0425 -0.0192
17351TIP3    H173468   3.886   6.075  14.672  1.3338 -1.7515 -0.0174
17351TIP3    H273469   4.020   6.092  14.741  0.5184  2.0131  0.8456
17352TIP3   OH273470   5.940   4.141   1.637  0.0626  0.4027 -0.2112
17352TIP3    H173471   6.013   4.171   1.582 -0.1880  0.4078 -0.5424
17352TIP3    H273472   5.942   4.200   1.713  1.1421 -0.3415  0.3752
17353TIP3   OH273473   6.460   0.933   2.431  0.3307  0.7138 -0.0731
17353TIP3    H173474   6.367   0.939   2.410  0.5594  0.7849 -1.0989
17353TIP3    H273475   6.497   1.015   2.398  0.6854  0.9019  0.7593
17354TIP3   OH273476   0.295   0.113   2.831  0.3167  1.0871  0.0763
17354TIP3    H173477   0.339   0.156   2.757 -1.4419  1.9746 -0.4970
17354TIP3    H273478   0.366   0.066   2.876  1.5874  1.2087 -1.6678
17355TIP3   OH273479   6.581   0.133  15.724  0.0236  0.3784 -0.0431
17355TIP3    H173480   6.567   0.227  15.712 -1.4037 -0.1138 -3.2755
17355TIP3    H273481   6.645   0.110  15.657 -0.5533 -1.1266 -0.1007
17356TIP3   OH273482   6.161   2.963  17.137  0.1201  0.7557 -0.0564
17356TIP3    H173483   6.101   2.972  17.063 -0.3023 -0.2858  0.1503
17356TIP3    H273484   6.163   3.051  17.177 -0.6884  0.9846 -0.4984
17357TIP3   OH273485   5.621   3.537   1.008  0.0085  0.2491 -0.5291
17357TIP3    H173486   5.711   3.570   1.001 -0.0761  0.2826 -1.9045
17357TIP3    H273487   5.593   3.561   1.096  0.8250  1.6056 -0.6011
17358TIP3   OH273488   1.729   0.261   6.056 -0.2817  0.1432  0.1069
17358TIP3    H173489   1.720   0.198   6.128 -1.3294  0.0164 -0.1272
17358TIP3    H273490   1.766   0.211   5.984 -0.6901 -0.0986  0.0654
17359TIP3   OH273491   4.842   4.002  13.548 -0.3788  0.2817 -0.0219
17359TIP3    H173492   4.788   3.933  13.588  0.4200 -1.0970 -1.2421
17359TIP3    H273493   4.927   3.994  13.592 -0.0755  0.0045 -0.6418
17360TIP3   OH273494   2.526   2.117  14.345  0.2286  0.4410 -0.0089
17360TIP3    H173495   2.483   2.099  14.429 -0.9355 -0.2730 -0.7258
17360TIP3    H273496   2.615   2.083  14.356 -0.2135 -0.5685  0.6023
17361TIP3   OH273497   4.183   5.681   4.506 -0.2154 -0.2277 -0.3615
17361TIP3    H173498   4.120   5.743   4.470 -1.0862  0.8073  2.6901
17361TIP3    H273499   4.142   5.595   4.494  0.6224 -0.3027 -3.8289
17362TIP3   OH273500   2.282   0.803  13.381  0.3439 -0.1962 -0.0517
17362TIP3    H173501   2.326   0.877  13.339  0.6154  0.5977  1.5360
17362TIP3    H273502   2.302   0.814  13.474  0.3557 -2.2682  0.2303
17363TIP3   OH273503   2.986   1.089  16.906  0.3796 -0.3070 -0.2287
17363TIP3    H173504   3.047   1.070  16.834 -0.5257 -1.1063 -0.8161
17363TIP3    H273505   2.908   1.123  16.863  0.5967  1.2466  0.5650
17364TIP3   OH273506   0.825   1.985  12.862  0.3931 -0.3252  0.1253
17364TIP3    H173507   0.777   1.971  12.780  2.5224 -0.0760 -1.2271
17364TIP3    H273508   0.844   1.897  12.894  0.7417 -0.4305 -0.3713
17365TIP3   OH273509   5.276   3.090   1.493 -0.5860  0.3647  0.3108
17365TIP3    H173510   5.318   3.177   1.494 -1.9331  1.0417  0.3968
17365TIP3    H273511   5.276   3.064   1.401 -1.0372  0.8981  0.1560
17366TIP3   OH273512   4.728   4.025   1.587  0.6287 -0.5921  0.0903
17366TIP3    H173513   4.651   4.022   1.531  0.6404  0.7160 -0.0291
17366TIP3    H273514   4.800   3.994   1.531  0.0581 -3.0214  0.5583
17367TIP3   OH273515   2.242   3.317  13.873  0.1022  0.0219  0.3133
17367TIP3    H173516   2.219   3.247  13.812 -0.1710  0.7305 -0.4046
17367TIP3    H273517   2.197   3.394  13.840  0.2221  0.4956  1.2266
17368TIP3   OH273518   4.964   1.038   3.536 -0.1106 -0.5724 -0.2807
17368TIP3    H173519   4.898   1.108   3.533  0.0716 -0.4175 -0.9219
17368TIP3    H273520   4.959   1.004   3.625  0.3432  0.7838  0.2937
17369TIP3   OH273521   5.181   4.228  13.104 -0.0269  0.4062  0.4382
17369TIP3    H173522   5.225   4.187  13.030  1.0673  1.0248  0.7238
17369TIP3    H273523   5.089   4.235  13.077  0.6567  2.4485 -1.7244
17370TIP3   OH273524   5.507   4.683  16.986 -0.0899 -0.1491 -0.4330
17370TIP3    H173525   5.543   4.769  17.009  2.6852 -1.8495  2.1880
17370TIP3    H273526   5.429   4.674  17.041  1.1177 -0.3371  1.2814
17371TIP3   OH273527   2.621   3.428   5.475  0.3081 -0.1922  0.1474
17371TIP3    H173528   2.537   3.438   5.431  0.8991  1.6937 -0.6777
17371TIP3    H273529   2.654   3.343   5.446 -1.3191 -0.9997  0.5514
17372TIP3   OH273530   1.589   2.689   1.360 -0.3631  0.0566 -0.2174
17372TIP3    H173531   1.523   2.734   1.307 -1.8146 -2.6167 -0.8484
17372TIP3    H273532   1.663   2.678   1.300 -0.4565  0.4879 -0.4232
17373TIP3   OH273533   4.989   4.318  12.722 -0.3203  0.6287 -0.2808
17373TIP3    H173534   4.984   4.369  12.802 -0.0300  2.1155 -1.1759
17373TIP3    H273535   5.074   4.338  12.685  0.5184 -1.8080  0.1276
17374TIP3   OH273536   0.920   3.429   2.074  0.8048  0.1774 -1.0208
17374TIP3    H173537   0.877   3.426   1.988  0.4018 -1.7252 -0.7960
17374TIP3    H273538   1.014   3.426   2.054  0.9001  2.8074 -1.4489
17375TIP3   OH273539   2.870   1.836   2.174 -0.6934 -0.0128  0.5898
17375TIP3    H173540   2.848   1.795   2.090 -0.7087 -0.6745  0.9099
17375TIP3    H273541   2.786   1.848   2.217 -0.5948 -0.8050  1.0206
17376TIP3   OH273542   6.695   3.440  11.068  0.1872  0.4328  0.2813
17376TIP3    H173543   6.758   3.512  11.063 -0.0166  0.6647  0.8938
17376TIP3    H273544   6.714   3.385  10.992  0.7888  0.7734  0.1845
17377TIP3   OH273545   3.546   6.060  11.829 -0.4222  0.0253  0.4710
17377TIP3    H173546   3.573   6.135  11.883 -1.3516 -0.8669  2.2533
17377TIP3    H273547   3.454   6.077  11.810  0.0496  0.6748 -1.5288
17378TIP3   OH273548   4.155   6.219  13.405 -0.4059  0.2488  0.1203
17378TIP3    H173549   4.199   6.138  13.380 -0.5510  0.7715 -1.9972
17378TIP3    H273550   4.225   6.284  13.408 -0.0747 -0.1148  3.0452
17379TIP3   OH273551   0.170   4.184  11.589 -0.3448  0.5197 -0.3064
17379TIP3    H173552   0.189   4.265  11.542  0.5901  0.5089  0.0271
17379TIP3    H273553   0.249   4.131  11.577  0.0519  0.6481  1.5579
17380TIP3   OH273554   0.833   6.499   3.701 -0.3340 -0.2431  0.1176
17380TIP3    H173555   0.809   6.506   3.609  1.2118 -1.2102 -0.3951
17380TIP3    H273556   0.882   6.579   3.720  1.6265 -1.1846 -0.6798
17381TIP3   OH273557   2.221   5.120   4.523 -0.0932 -0.0130  0.4692
17381TIP3    H173558   2.160   5.182   4.484  0.1297  0.7178  1.2456
17381TIP3    H273559   2.170   5.040   4.534 -0.6949  0.3572  0.4102
17382TIP3   OH273560   2.701   2.875  12.623  0.3115  0.0263  0.7390
17382TIP3    H173561   2.657   2.838  12.546  0.3696  1.6126 -0.0875
17382TIP3    H273562   2.719   2.799  12.678 -1.9653 -0.8892  0.3479
17383TIP3   OH273563   5.115   2.079  11.966 -0.2435 -0.0773 -0.1357
17383TIP3    H173564   5.094   2.010  11.903 -0.4193 -1.0296  0.9175
17383TIP3    H273565   5.037   2.133  11.970 -0.7949 -0.8866  0.3407
17384TIP3   OH273566   2.798   6.396  16.768  0.3089 -0.1067 -0.0880
17384TIP3    H173567   2.773   6.303  16.766 -0.0758 -0.0122  0.1598
17384TIP3    H273568   2.863   6.405  16.699 -1.0254 -0.1716 -1.4106
17385TIP3   OH273569   1.593   4.181  12.910 -0.8930 -0.3264 -0.6229
17385TIP3    H173570   1.534   4.215  12.843 -1.3145  0.0094 -0.0855
17385TIP3    H273571   1.547   4.106  12.947 -0.8594 -0.2380 -0.3998
17386TIP3   OH273572   3.391   1.737   2.697 -0.5936  0.3302 -0.0748
17386TIP3    H173573   3.399   1.784   2.614 -5.1415  0.9811 -0.3964
17386TIP3    H273574   3.361   1.649   2.673  0.9010 -0.5115  0.8772
17387TIP3   OH273575   2.158   0.136   3.487 -0.4401 -0.3078  0.2091
17387TIP3    H173576   2.089   0.201   3.500 -0.3485 -0.2705  0.5298
17387TIP3    H273577   2.129   0.060   3.538 -1.0121 -0.8742 -0.9335
17388TIP3   OH273578   3.561   1.999  12.628  0.1777 -0.4884  0.0548
17388TIP3    H173579   3.542   2.023  12.719 -0.1231 -0.1336 -0.0990
17388TIP3    H273580   3.599   1.911  12.634  0.7490 -0.2168  0.5778
17389TIP3   OH273581   0.254   6.370   2.676  0.3172  0.0378  0.1859
17389TIP3    H173582   0.261   6.285   2.720 -2.6409 -0.2704  0.2972
17389TIP3    H273583   0.246   6.348   2.583  3.4700  0.5142 -0.2948
17390TIP3   OH273584   6.051   2.504   4.095  0.1013  0.2205  0.3893
17390TIP3    H173585   6.080   2.486   4.184  0.4828 -0.1259  0.1994
17390TIP3    H273586   5.956   2.499   4.099  0.1478 -0.5323  0.6161
17391TIP3   OH273587   2.579   2.950   0.642  0.1222 -0.3432  0.0167
17391TIP3    H173588   2.584   2.941   0.547 -3.6670  0.9599 -0.4893
17391TIP3    H273589   2.491   2.918   0.664  0.0051  1.5370  2.7323
17392TIP3   OH273590   5.123   3.382  11.471  0.0452  0.2051 -0.2138
17392TIP3    H173591   5.090   3.472  11.471 -2.1589 -0.5046  1.1666
17392TIP3    H273592   5.162   3.370  11.385 -2.0964  1.6468 -1.4610
17393TIP3   OH273593   4.275   1.239  16.229  0.1936 -0.1671  0.3449
17393TIP3    H173594   4.185   1.265  16.248  0.2009 -1.0427  1.6767
17393TIP3    H273595   4.291   1.165  16.286  1.5022 -0.5470 -0.4794
17394TIP3   OH273596   2.719   0.382   1.790  0.1777 -0.1711  0.0868
17394TIP3    H173597   2.778   0.457   1.795  0.3140  0.0811 -3.1784
17394TIP3    H273598   2.650   0.402   1.854  2.0458  0.9327  1.8777
17395TIP3   OH273599   0.088   1.139   1.351 -0.0877  0.1885  0.0587
17395TIP3    H173600   0.050   1.066   1.302  0.7656  0.6359 -1.3326
17395TIP3    H273601   0.047   1.134   1.437 -0.3492 -1.6684 -0.1324
17396TIP3   OH273602   5.164   1.547  10.602  0.2053  0.5191 -0.1417
17396TIP3    H173603   5.182   1.636  10.635  0.9287  1.0803 -1.9447
17396TIP3    H273604   5.213   1.541  10.520 -1.0720 -1.0096 -0.8556
17397TIP3   OH273605   6.567   5.194   5.785  0.8497  0.2705  0.1466
17397TIP3    H173606   6.535   5.284   5.781 -0.5726 -0.2231 -0.3527
17397TIP3    H273607   6.514   5.152   5.853  2.1575  0.0370  1.0515
17398TIP3   OH273608   5.284   1.532  12.638 -0.6092  0.7391  0.4596
17398TIP3    H173609   5.258   1.472  12.568 -0.3955  1.3124 -0.1200
17398TIP3    H273610   5.376   1.553  12.618 -0.3252  0.3548  1.3113
17399TIP3   OH273611   1.385   2.111  14.269  0.1926 -0.4050  0.3727
17399TIP3    H173612   1.308   2.165  14.253  0.7705  0.0576 -0.9665
17399TIP3    H273613   1.355   2.046  14.334 -0.4475  1.5801  2.1809
17400TIP3   OH273614   5.430   4.588  16.450 -0.2105 -0.1334 -0.2823
17400TIP3    H173615   5.437   4.672  16.403  1.0392 -0.4525 -0.7288
17400TIP3    H273616   5.456   4.609  16.540 -1.0552  0.1796 -0.1093
17401TIP3   OH273617   2.954   5.072   2.810  0.3813 -0.0571  0.0705
17401TIP3    H173618   2.969   5.010   2.738  0.6096 -1.5287  1.3443
17401TIP3    H273619   3.024   5.137   2.799  1.1411 -0.9104 -0.3641
17402TIP3   OH273620   2.340   4.743  11.657 -0.3603 -0.2045 -0.2530
17402TIP3    H173621   2.416   4.687  11.639  1.6189  0.9918  3.2395
17402TIP3    H273622   2.366   4.829  11.623 -0.8146 -0.1144 -0.3727
17403TIP3   OH273623   3.277   1.966  12.266 -0.0978 -0.0067  0.1633
17403TIP3    H173624   3.317   1.888  12.227 -0.4677 -0.5136  0.7809
17403TIP3    H273625   3.228   2.005  12.194 -0.7781 -0.9360  0.0977
17404TIP3   OH273626   5.811   4.070  17.074 -0.3695  0.7707  0.2138
17404TIP3    H173627   5.729   4.020  17.076  0.4864 -0.6474  0.9807
17404TIP3    H273628   5.783   4.161  17.065 -2.0041  0.2507 -0.3131
17405TIP3   OH273629   2.025   4.221  12.680 -0.3544 -0.4110  0.5859
17405TIP3    H173630   2.048   4.310  12.708 -0.9930  0.1975 -0.7016
17405TIP3    H273631   2.066   4.213  12.593  0.2348 -1.6294  0.9521
17406TIP3   OH273632   5.686   0.203   5.767 -0.0835 -0.3529 -0.0556
17406TIP3    H173633   5.649   0.248   5.691  1.9846  0.5535 -0.5923
17406TIP3    H273634   5.655   0.113   5.759 -0.2515 -0.1716 -1.7243
17407TIP3   OH273635   1.662   3.844  11.884 -0.0152 -0.2699 -0.0002
17407TIP3    H173636   1.673   3.913  11.818 -0.8469 -1.1848 -1.1294
17407TIP3    H273637   1.691   3.885  11.966 -0.2131  1.3279 -0.6856
17408TIP3   OH273638   3.316   3.225   2.031 -0.3321 -0.1008  0.1689
17408TIP3    H173639   3.233   3.187   2.003  0.4127 -1.9117  0.3149
17408TIP3    H273640   3.321   3.205   2.124  1.2882 -2.1237 -0.2798
17409TIP3   OH273641   0.486   6.259   4.305  0.6751 -0.1655 -0.4267
17409TIP3    H173642   0.394   6.232   4.310  0.8826 -1.4545 -2.3594
17409TIP3    H273643   0.502   6.274   4.212  2.7208 -1.0503 -0.2769
17410TIP3   OH273644   3.051   2.110  13.032  0.2116 -0.0623 -0.0203
17410TIP3    H173645   2.968   2.094  13.078  0.3599 -1.4347 -0.1698
17410TIP3    H273646   3.025   2.129  12.942  0.0229  0.4026  0.1300
17411TIP3   OH273647   4.654   3.306  16.129 -0.1300  0.1573  0.5702
17411TIP3    H173648   4.614   3.287  16.214  0.2665  0.3302  0.7992
17411TIP3    H273649   4.665   3.221  16.088 -3.6855  0.2415 -0.8901
17412TIP3   OH273650   0.695   3.867  13.751  0.1842 -0.2035  0.4757
17412TIP3    H173651   0.641   3.823  13.687 -0.0021  1.4115 -0.5372
17412TIP3    H273652   0.783   3.869  13.712  0.1546  0.4388  0.4214
17413TIP3   OH273653   6.674   0.772   0.082 -0.5879 -0.3605  0.8894
17413TIP3    H173654   6.631   0.699   0.126 -1.1915 -1.4198 -1.3195
17413TIP3    H273655   6.604   0.818   0.036  0.4119 -1.9620 -2.5660
17414TIP3   OH273656   5.780   2.976   3.290  0.1609 -0.1007 -0.3658
17414TIP3    H173657   5.864   3.022   3.282  1.0790 -1.9074 -2.1331
17414TIP3    H273658   5.789   2.921   3.368  0.2607  0.3815 -0.0347
17415TIP3   OH273659   2.576   3.074   1.268  0.2767  0.3636  0.3642
17415TIP3    H173660   2.566   2.980   1.284 -1.6620  0.3553 -0.6131
17415TIP3    H273661   2.515   3.116   1.328 -1.2623  0.7580 -1.3589
17416TIP3   OH273662   0.333   0.177  15.823 -0.0148 -0.1434  0.2299
17416TIP3    H173663   0.345   0.147  15.733 -1.7057  1.3476 -0.5758
17416TIP3    H273664   0.244   0.213  15.824 -0.4744 -1.1250  2.8118
17417TIP3   OH273665   5.238   1.108   5.886 -0.2147 -0.1565 -0.4443
17417TIP3    H173666   5.196   1.193   5.884 -0.5939 -0.3553 -1.4214
17417TIP3    H273667   5.272   1.100   5.975 -3.2019 -0.4721  0.7677
17418TIP3   OH273668   2.500   3.330  13.983  0.0571 -0.8548  0.7280
17418TIP3    H173669   2.434   3.292  13.925 -0.0200 -0.0546  0.2954
17418TIP3    H273670   2.451   3.354  14.062 -0.1399 -0.4125  0.4717
17419TIP3   OH273671   3.828   0.900   3.130  0.4543 -0.8401 -0.1732
17419TIP3    H173672   3.762   0.831   3.125  0.1035 -0.4740 -0.8155
17419TIP3    H273673   3.888   0.872   3.199  0.1638 -1.6503 -0.2427
17420TIP3   OH273674   4.563   5.720  12.187 -0.2253  0.1054 -0.1560
17420TIP3    H173675   4.505   5.690  12.116 -0.0084 -1.6557  0.3556
17420TIP3    H273676   4.506   5.772  12.244 -0.8107  0.0892 -0.7082
17421TIP3   OH273677   5.079   5.559   5.470 -0.1897  0.1464 -0.2371
17421TIP3    H173678   5.084   5.655   5.472  0.2080  0.1656 -1.6666
17421TIP3    H273679   5.057   5.538   5.380 -2.1039 -1.0513  0.4518
17422TIP3   OH273680   5.241   4.258  16.800  0.1549  0.6768 -0.3004
17422TIP3    H173681   5.335   4.240  16.804  0.0798  0.4321  0.5362
17422TIP3    H273682   5.211   4.214  16.721  0.4238 -0.8024  0.4034
17423TIP3   OH273683   2.473   5.812  12.294  0.2644 -0.1889 -0.1479
17423TIP3    H173684   2.551   5.867  12.283 -0.9590  1.7370  0.2361
17423TIP3    H273685   2.460   5.808  12.389 -0.6080  0.3241 -0.2268
17424TIP3   OH273686   3.469   6.597   1.557 -0.5358 -0.1886 -0.2256
17424TIP3    H173687   3.375   6.602   1.543 -0.4221  1.5416 -0.5410
17424TIP3    H273688   3.507   6.656   1.491  0.6787  0.0551  0.6508
17425TIP3   OH273689   4.811   2.901  11.275  0.2504 -0.3537  0.0616
17425TIP3    H173690   4.730   2.952  11.283 -0.2717 -1.2923  0.9567
17425TIP3    H273691   4.880   2.966  11.285 -0.4052  0.1580  1.5666
17426TIP3   OH273692   3.897   3.038  10.538  0.1433 -0.0584 -0.0899
17426TIP3    H173693   3.933   3.000  10.618 -2.2609 -0.5479  0.8322
17426TIP3    H273694   3.895   2.965  10.475  0.6384 -0.0412 -0.1321
17427TIP3   OH273695   0.681   5.057  16.724  0.0691 -0.0690  0.0302
17427TIP3    H173696   0.612   5.123  16.734  0.9081  0.5766  2.3147
17427TIP3    H273697   0.683   5.011  16.808  4.5619  2.2312  1.5209
17428TIP3   OH273698   5.988   3.512  14.576 -0.2642 -0.0198  0.3541
17428TIP3    H173699   5.972   3.567  14.500 -0.5202 -1.3857 -0.6256
17428TIP3    H273700   5.902   3.475  14.597 -0.3955  1.0688  1.9391
17429TIP3   OH273701   1.683   1.118   1.063 -0.2907  0.1431 -0.0077
17429TIP3    H173702   1.587   1.122   1.061 -0.2864 -0.0433 -1.3860
17429TIP3    H273703   1.706   1.049   1.002  0.7088 -0.5198  1.0831
17430TIP3   OH273704   6.094   0.238  14.336 -0.8843  0.1070  0.3645
17430TIP3    H173705   6.177   0.191  14.327  2.0505  4.4834  1.1902
17430TIP3    H273706   6.088   0.292  14.257 -3.1072 -0.1708  0.2718
17431TIP3   OH273707   2.056   6.403  12.267  0.2496  0.1368  0.2382
17431TIP3    H173708   2.143   6.424  12.302  0.6025  0.5016 -0.8131
17431TIP3    H273709   2.071   6.329  12.209 -0.6564 -1.7901  2.2874
17432TIP3   OH273710   1.815   4.623   2.960 -0.3695 -0.5157 -0.3259
17432TIP3    H173711   1.764   4.542   2.964  0.3231 -0.8979  1.3979
17432TIP3    H273712   1.794   4.669   3.041  0.8644  0.0231 -0.2904
17433TIP3   OH273713   2.745   5.911   2.373 -0.1576  1.1830  0.4999
17433TIP3    H173714   2.800   5.902   2.295 -0.5195  0.3485  0.3280
17433TIP3    H273715   2.766   5.997   2.408  1.4937  0.7648  0.6199
17434TIP3   OH273716   2.888   4.276   4.724  0.5490 -0.3292  0.2675
17434TIP3    H173717   2.925   4.292   4.638  0.2627 -1.4534 -0.0856
17434TIP3    H273718   2.945   4.209   4.762  1.4253  1.0300  1.4804
17435TIP3   OH273719   4.837   1.456  11.762 -0.1456 -0.0752  0.0261
17435TIP3    H173720   4.748   1.441  11.792 -0.4336  1.2154 -0.1234
17435TIP3    H273721   4.828   1.496  11.676  0.6675 -3.0024 -1.5450
17436TIP3   OH273722   0.129   2.511   1.259 -0.0414  0.3672 -0.8051
17436TIP3    H173723   0.108   2.464   1.178 -2.6660  1.3586 -0.8116
17436TIP3    H273724   0.096   2.600   1.243  1.2835  1.1651  0.6233
17437TIP3   OH273725   1.221   3.867   2.793 -0.4448  0.0263  0.2269
17437TIP3    H173726   1.143   3.891   2.742  0.3062  1.7690 -0.1843
17437TIP3    H273727   1.237   3.943   2.849  1.9757  0.5020 -0.9825
17438TIP3   OH273728   1.561   3.452  11.119 -0.1681 -0.5006 -0.1833
17438TIP3    H173729   1.578   3.524  11.058  1.9222 -0.4421  0.3837
17438TIP3    H273730   1.605   3.377  11.079 -0.3390 -0.8968  0.3646
17439TIP3   OH273731   0.956   3.216  15.479 -0.1082 -0.2071 -0.4587
17439TIP3    H173732   0.964   3.134  15.430 -0.0746 -0.5030  0.0378
17439TIP3    H273733   0.916   3.190  15.561  0.6719  0.1459  0.0431
17440TIP3   OH273734   3.851   4.439   2.225  0.5808  0.1607 -0.1661
17440TIP3    H173735   3.769   4.422   2.271  1.5968 -1.3943  1.1981
17440TIP3    H273736   3.848   4.383   2.148  0.8476 -0.7915  0.5075
17441TIP3   OH273737   3.944   5.194   6.314  0.4891  0.0703 -0.1604
17441TIP3    H173738   3.861   5.234   6.288  0.4302 -0.9306 -1.6129
17441TIP3    H273739   4.009   5.263   6.297  0.0688  0.5744  0.2174
17442TIP3   OH273740   1.365   2.677  12.251 -0.2553  0.1366 -0.0961
17442TIP3    H173741   1.335   2.757  12.207  0.1788  1.1279  1.3463
17442TIP3    H273742   1.459   2.691  12.265  0.5089 -1.9300 -2.4573
17443TIP3   OH273743   4.436   6.769  13.094 -0.1900 -0.1570  0.4632
17443TIP3    H173744   4.374   6.786  13.165 -0.7616  1.2220 -0.3385
17443TIP3    H273745   4.382   6.764  13.015  0.6715  0.6914 -0.1951
17444TIP3   OH273746   1.721   4.084   3.952  0.6179  0.5847 -0.3553
17444TIP3    H173747   1.706   3.991   3.968  1.4320  0.5339  0.1208
17444TIP3    H273748   1.646   4.127   3.993  1.3928  0.2854  1.4864
17445TIP3   OH273749   0.464   1.182  14.635 -0.4493 -0.0717  0.1104
17445TIP3    H173750   0.500   1.236  14.564 -0.6432  0.2222  0.2327
17445TIP3    H273751   0.371   1.174  14.615 -1.4276  3.3880  2.3825
17446TIP3   OH273752   5.202   3.484  15.891 -0.1745  0.0871 -0.9972
17446TIP3    H173753   5.243   3.450  15.811 -0.0874  0.3354 -1.0569
17446TIP3    H273754   5.234   3.574  15.898  1.2600 -0.4875  0.2866
17447TIP3   OH273755   2.315   3.226   1.067  0.3870 -0.0362  0.1923
17447TIP3    H173756   2.242   3.181   1.025  0.5162  0.1659 -0.2583
17447TIP3    H273757   2.311   3.199   1.158  0.2013 -0.6100  0.0174
17448TIP3   OH273758   3.645   4.119  11.892 -0.7185 -0.5375 -0.6651
17448TIP3    H173759   3.550   4.104  11.895 -0.6164 -1.0466  0.4992
17448TIP3    H273760   3.654   4.206  11.853 -1.7063 -0.1395 -0.0606
17449TIP3   OH273761   2.697   5.883   2.689 -0.0882 -0.3001 -0.6698
17449TIP3    H173762   2.642   5.921   2.621 -0.6624 -0.4945 -0.3162
17449TIP3    H273763   2.703   5.790   2.665 -1.4249 -0.6650  0.2721
17450TIP3   OH273764   2.276   1.200   3.462 -0.0633 -0.2095 -0.2120
17450TIP3    H173765   2.199   1.172   3.512  0.9119  1.6982  2.5984
17450TIP3    H273766   2.329   1.250   3.525  1.9544  1.2477 -2.8594
17451TIP3   OH273767   4.951   5.197   2.108 -0.3065  0.2503 -0.2830
17451TIP3    H173768   4.885   5.131   2.130 -0.5842  0.5940 -0.0770
17451TIP3    H273769   5.016   5.190   2.178 -0.7368  0.7284  0.1771
17452TIP3   OH273770   1.401   2.490   4.548 -0.4682  0.3903  0.1687
17452TIP3    H173771   1.347   2.557   4.590  0.6494  1.8800 -0.6485
17452TIP3    H273772   1.357   2.472   4.466 -1.1508 -0.4247  0.7043
17453TIP3   OH273773   0.964   5.579  11.625  0.1974  0.1181  0.9940
17453TIP3    H173774   0.907   5.646  11.588 -1.1030 -0.8979  1.0653
17453TIP3    H273775   1.043   5.581  11.570 -0.0410  1.3217  0.6764
17454TIP3   OH273776   1.889   4.566  16.364 -0.1495 -0.1380 -0.2421
17454TIP3    H173777   1.899   4.582  16.270 -0.3712 -0.3236 -0.2982
17454TIP3    H273778   1.921   4.477  16.377  1.2694  0.3932  0.1060
17455TIP3   OH273779   2.848   3.592  14.585  0.2465  0.5299 -0.3115
17455TIP3    H173780   2.910   3.661  14.606  1.3004 -0.2628 -0.7219
17455TIP3    H273781   2.882   3.514  14.629  1.0116 -0.5229 -2.6323
17456TIP3   OH273782   2.319   3.613  11.882  0.1240 -0.3397 -0.2730
17456TIP3    H173783   2.389   3.610  11.817  1.0192  0.0018  0.6565
17456TIP3    H273784   2.277   3.698  11.868 -0.3867 -0.7039 -1.0868
17457TIP3   OH273785   5.163   5.886  14.661  0.1671 -0.1014  0.3187
17457TIP3    H173786   5.117   5.956  14.616  2.4959 -0.0429 -2.2633
17457TIP3    H273787   5.156   5.811  14.602 -1.0263 -1.6745  2.3407
17458TIP3   OH273788   5.512   1.642  14.643  0.5788 -1.2865  0.5153
17458TIP3    H173789   5.596   1.659  14.600 -0.0129  0.1050 -0.1306
17458TIP3    H273790   5.501   1.716  14.703 -1.1535 -0.3224 -0.9299
17459TIP3   OH273791   3.578   3.681   6.108  0.6676  0.2677  0.3878
17459TIP3    H173792   3.493   3.704   6.145  1.4353  2.9269  0.7438
17459TIP3    H273793   3.562   3.675   6.014 -0.1675 -0.7113  0.5799
17460TIP3   OH273794   0.738   3.189   2.298  0.0585  0.4070 -0.0957
17460TIP3    H173795   0.726   3.170   2.205 -0.4883  2.5151 -0.5227
17460TIP3    H273796   0.830   3.215   2.305  0.6578 -1.6468  0.3837
17461TIP3   OH273797   6.414   1.678   1.947  0.7393 -0.0816 -0.0938
17461TIP3    H173798   6.457   1.594   1.964  1.3301 -0.1321 -1.6129
17461TIP3    H273799   6.329   1.654   1.909  0.5110  0.0123  0.3554
17462TIP3   OH273800   0.167   6.530  15.965  0.3403  0.1004 -0.0616
17462TIP3    H173801   0.126   6.582  15.896 -1.1001  0.2054  0.8481
17462TIP3    H273802   0.096   6.508  16.025  1.7741  1.2538  2.1927
17463TIP3   OH273803   6.518   5.584   5.471 -0.3480  0.3067 -0.1067
17463TIP3    H173804   6.563   5.634   5.539 -1.7755  1.0283  0.3536
17463TIP3    H273805   6.474   5.513   5.519  0.9453 -0.9150 -0.6487
17464TIP3   OH273806   6.323   4.233  13.425 -0.4887 -0.5923 -0.4562
17464TIP3    H173807   6.245   4.259  13.377 -0.3553 -0.5277 -0.6399
17464TIP3    H273808   6.337   4.141  13.401 -0.9123 -0.8136  0.1265
17465TIP3   OH273809   5.595   6.138   2.929 -0.1269 -0.1273 -0.7069
17465TIP3    H173810   5.566   6.209   2.871  0.7499  0.5027 -0.4040
17465TIP3    H273811   5.514   6.102   2.964 -0.5986  0.7877 -0.8072
17466TIP3   OH273812   6.058   6.003   2.504 -0.0665 -0.4580 -0.6007
17466TIP3    H173813   6.045   5.933   2.568  0.1852 -0.2851 -0.3583
17466TIP3    H273814   6.110   5.963   2.435 -0.8572 -0.8173 -0.9963
17467TIP3   OH273815   5.784   6.616  16.159  0.3536 -0.3901  0.4943
17467TIP3    H173816   5.781   6.596  16.252 -1.5664 -0.4635  0.4544
17467TIP3    H273817   5.872   6.588  16.131  1.0686 -0.0886  2.3135
17468TIP3   OH273818   6.386   3.448  17.217 -0.6153  0.0048 -0.7106
17468TIP3    H173819   6.453   3.379  17.218 -0.8726 -0.3021 -2.0149
17468TIP3    H273820   6.328   3.426  17.289 -0.6413 -1.1136 -1.0480
17469TIP3   OH273821   0.437   2.834  13.455 -1.1215  0.2818  0.0360
17469TIP3    H173822   0.519   2.785  13.458 -0.4461  1.4004  0.3634
17469TIP3    H273823   0.454   2.913  13.507 -2.5318  0.3498  0.4479
17470TIP3   OH273824   0.653   2.863  14.741  0.3025  0.2292  0.0278
17470TIP3    H173825   0.589   2.921  14.700  1.0396  2.7420  2.1290
17470TIP3    H273826   0.684   2.807  14.670 -2.8109  0.1669 -1.4399
17471TIP3   OH273827   3.590   1.477   4.758 -0.1344  0.0925  0.4012
17471TIP3    H173828   3.601   1.440   4.846 -1.6940  3.3169  2.1207
17471TIP3    H273829   3.666   1.534   4.747  1.3233 -2.0386 -1.4830
17472TIP3   OH273830   2.139   4.697  10.536  0.1350  0.2191  0.0810
17472TIP3    H173831   2.138   4.616  10.485 -0.1947  1.2413 -1.6040
17472TIP3    H273832   2.226   4.734  10.523  0.1270  0.3842  0.4598
17473TIP3   OH273833   4.059   1.309  12.851 -0.4418  0.5926  0.6180
17473TIP3    H173834   4.054   1.259  12.769 -0.8878  1.8211 -0.1377
17473TIP3    H273835   3.999   1.382  12.837 -0.4451  0.8790  2.0238
17474TIP3   OH273836   4.402   1.445   1.816 -0.3322 -0.1153  0.4924
17474TIP3    H173837   4.315   1.433   1.777  0.3649  0.9100 -1.5101
17474TIP3    H273838   4.437   1.523   1.773  1.1379  0.1826  2.1157
17475TIP3   OH273839   2.217   1.214  11.146  0.1071  0.2167 -0.6564
17475TIP3    H173840   2.267   1.221  11.228  0.1770 -0.9559 -0.5922
17475TIP3    H273841   2.275   1.250  11.080  1.4296 -1.8770 -0.7209
17476TIP3   OH273842   5.030   2.960  14.607  0.3385  0.8057  0.3432
17476TIP3    H173843   5.117   3.000  14.606 -0.4016  2.4905 -0.2027
17476TIP3    H273844   5.047   2.866  14.619  2.1183  1.3094  2.3721
17477TIP3   OH273845   0.460   4.765  11.809 -0.1420 -0.1988 -0.2902
17477TIP3    H173846   0.434   4.817  11.734  0.2976  0.6884  0.1630
17477TIP3    H273847   0.552   4.743  11.794 -0.0052  0.1193  0.0603
17478TIP3   OH273848   0.230   1.695  13.133  0.2336 -0.0413  0.0783
17478TIP3    H173849   0.320   1.696  13.167  0.3760 -0.2647 -0.2895
17478TIP3    H273850   0.176   1.709  13.211  0.5084 -1.6040  0.5833
17479TIP3   OH273851   5.813   2.516   2.383 -0.7876  0.2607  0.5022
17479TIP3    H173852   5.816   2.601   2.340  0.4584  0.1752  0.4055
17479TIP3    H273853   5.876   2.462   2.336 -0.6385 -0.3414  1.3669
17480TIP3   OH273854   1.610   0.517  16.920  0.2862  0.1917 -0.3269
17480TIP3    H173855   1.636   0.607  16.901  0.1441  0.1283 -0.8490
17480TIP3    H273856   1.577   0.520  17.010  1.5120  0.3926  0.1445
17481TIP3   OH273857   0.889   6.726   2.231 -0.1933  0.5612  0.4323
17481TIP3    H173858   0.899   6.738   2.136  1.1696 -0.7060  0.3829
17481TIP3    H273859   0.803   6.685   2.241  0.1329 -0.3657 -0.3804
17482TIP3   OH273860   3.070   6.052   3.386 -0.0351  0.3851  0.2365
17482TIP3    H173861   3.107   6.076   3.301 -0.9267 -2.3571 -1.0598
17482TIP3    H273862   2.978   6.034   3.368 -0.0102 -1.3058  1.4909
17483TIP3   OH273863   1.181   3.798  13.417  0.2154  0.3367 -0.0491
17483TIP3    H173864   1.138   3.788  13.502  1.5111 -1.3597  0.4766
17483TIP3    H273865   1.174   3.891  13.397  0.1786  0.8593  2.1013
17484TIP3   OH273866   2.934   0.131   3.055  0.5332  0.2885 -0.1738
17484TIP3    H173867   2.872   0.175   2.997  0.0309  1.3095  1.1097
17484TIP3    H273868   2.887   0.052   3.084 -0.0951  0.9434  0.6180
17485TIP3   OH273869   1.887   0.992  15.208 -0.6770  0.2434  0.2057
17485TIP3    H173870   1.963   0.959  15.255 -1.2850  0.3716  1.3197
17485TIP3    H273871   1.921   1.024  15.125  0.5125  0.5060  0.7828
17486TIP3   OH273872   5.939   2.250  12.644  0.0172 -0.0194  0.5667
17486TIP3    H173873   5.910   2.273  12.556 -0.7590  0.2366  0.8855
17486TIP3    H273874   6.021   2.298  12.656 -0.1736  0.4045  0.1936
17487TIP3   OH273875   6.188   0.918  15.735  0.1732  0.4853  0.5103
17487TIP3    H173876   6.160   0.944  15.822 -0.0834  0.8622  0.3203
17487TIP3    H273877   6.281   0.898  15.744  0.2587  1.0033  0.7620
17488TIP3   OH273878   1.704   2.523  15.419  0.1684  1.2638 -0.2804
17488TIP3    H173879   1.730   2.432  15.439 -0.3617  1.4138  1.1831
17488TIP3    H273880   1.609   2.521  15.420  0.1363  1.6487 -1.2807
17489TIP3   OH273881   1.672   6.199   5.556  0.3131 -0.3601 -0.1258
17489TIP3    H173882   1.677   6.175   5.649  0.0572 -3.4790 -0.8169
17489TIP3    H273883   1.763   6.212   5.530  0.4006  0.3330  0.4777
17490TIP3   OH273884   6.452   2.948  10.637 -0.1250  0.0449 -0.3058
17490TIP3    H173885   6.512   3.010  10.679  0.7317 -0.6047 -0.5502
17490TIP3    H273886   6.370   2.996  10.630 -0.0135  0.5014  1.2147
17491TIP3   OH273887   4.394   4.829   2.219 -0.4085 -0.4485  0.2743
17491TIP3    H173888   4.324   4.847   2.282  0.5252  1.4614  0.8270
17491TIP3    H273889   4.474   4.856   2.263  0.2242  1.5818 -1.8855
17492TIP3   OH273890   5.694   1.538   2.329  0.5348 -0.2575  0.6094
17492TIP3    H173891   5.620   1.565   2.384  0.3997  1.3780 -0.2909
17492TIP3    H273892   5.659   1.543   2.240  2.1271  2.2799  0.0116
17493TIP3   OH273893   2.966   2.653  12.814  0.0218 -0.1826  0.4070
17493TIP3    H173894   3.002   2.566  12.826 -0.5028 -0.2684  1.4739
17493TIP3    H273895   2.880   2.650  12.856 -1.1750  0.0941 -1.8098
17494TIP3   OH273896   0.502   0.404   4.423  0.3376 -0.1600  0.4990
17494TIP3    H173897   0.577   0.438   4.374 -0.0912 -0.5177 -0.4319
17494TIP3    H273898   0.487   0.469   4.492 -0.6821  1.7785 -1.4417
17495TIP3   OH273899   5.341   5.737  11.305  0.0494 -0.2491 -0.3199
17495TIP3    H173900   5.265   5.757  11.251 -2.3663  0.7135  3.0866
17495TIP3    H273901   5.321   5.651  11.343  1.5850 -0.8189 -0.7255
17496TIP3   OH273902   1.751   1.311   3.299  0.4917  0.1742 -0.1568
17496TIP3    H173903   1.690   1.351   3.237  0.1309  0.6783  0.4999
17496TIP3    H273904   1.720   1.341   3.385  1.6393  0.3880  0.1944
17497TIP3   OH273905   6.233   4.752   5.725  0.3906  0.0956 -0.1567
17497TIP3    H173906   6.152   4.789   5.692  0.6739  0.3193 -0.6137
17497TIP3    H273907   6.233   4.661   5.693 -0.7433 -0.6174  1.7397
17498TIP3   OH273908   4.820   5.071  15.593  0.2473 -0.1765  0.0346
17498TIP3    H173909   4.850   4.980  15.590  0.8601  0.0113  0.3225
17498TIP3    H273910   4.791   5.089  15.503 -1.1263 -1.0523  0.2768
17499TIP3   OH273911   2.962   4.357   2.411  0.3819 -0.2560 -0.6401
17499TIP3    H173912   3.053   4.331   2.423  0.7446  1.0410 -0.4227
17499TIP3    H273913   2.962   4.414   2.334 -0.5259 -1.5167 -1.6099
17500TIP3   OH273914   5.207   0.885  16.869  0.2384  0.2371  0.0905
17500TIP3    H173915   5.161   0.884  16.953 -1.0870  0.6943 -0.5965
17500TIP3    H273916   5.197   0.796  16.835 -0.0743  0.3160 -0.0247
17501TIP3   OH273917   3.006   6.723  15.537 -0.2600 -0.5041 -0.1740
17501TIP3    H173918   2.985   6.633  15.511 -0.8007 -0.2807 -0.5397
17501TIP3    H273919   2.968   6.732  15.625 -1.0651 -0.3378 -0.5289
17502TIP3   OH273920   6.207   5.892   0.913 -0.0310  0.5032 -0.3960
17502TIP3    H173921   6.183   5.821   0.854 -0.0423 -1.7426  2.0880
17502TIP3    H273922   6.303   5.886   0.920  0.2248  2.2342 -1.8383
17503TIP3   OH273923   6.300   5.624   5.907  0.4194  0.5380  0.1737
17503TIP3    H173924   6.242   5.694   5.878  0.3295 -0.0804 -1.1932
17503TIP3    H273925   6.346   5.661   5.983 -0.3791  1.6914  0.1175
17504TIP3   OH273926   2.895   5.655  14.873  0.0139  0.6034 -0.3387
17504TIP3    H173927   2.802   5.674  14.867 -0.1699 -0.4351 -0.9819
17504TIP3    H273928   2.913   5.654  14.967 -0.7295  0.3378 -0.1942
17505TIP3   OH273929   2.082   4.348  16.339 -0.1336  0.6451 -0.2175
17505TIP3    H173930   2.118   4.265  16.309  0.9640  0.5282  1.3216
17505TIP3    H273931   2.150   4.385  16.396 -2.2893  0.5068  2.6528
17506TIP3   OH273932   3.612   5.726  14.572 -0.1024  0.2360 -0.2478
17506TIP3    H173933   3.559   5.685  14.640  0.4804 -1.9687 -1.0234
17506TIP3    H273934   3.686   5.666  14.560  0.5813  1.3185 -1.7807
17507TIP3   OH273935   1.983   0.843  17.139  0.0817 -0.1466 -0.1304
17507TIP3    H173936   1.963   0.935  17.158  0.2482  0.5104 -2.7483
17507TIP3    H273937   2.070   0.829  17.177  0.2912  0.9411 -0.1727
17508TIP3   OH273938   5.928   6.005  14.450 -0.7609  0.1544 -0.2050
17508TIP3    H173939   6.014   6.005  14.493 -0.8417  1.2665 -0.0172
17508TIP3    H273940   5.935   5.936  14.383  0.5808  0.8112 -0.7788
17509TIP3   OH273941   1.202   4.506   2.664  0.5236  0.4145 -0.0509
17509TIP3    H173942   1.117   4.478   2.698  1.2949 -2.1498 -0.0215
17509TIP3    H273943   1.227   4.579   2.721 -1.4231  0.9481  0.2076
17510TIP3   OH273944   6.614   0.032  11.234 -0.1896 -0.1927  0.0880
17510TIP3    H173945   6.552  -0.015  11.178 -0.9385 -0.9706  1.5082
17510TIP3    H273946   6.693  -0.022  11.233  0.7463  1.0916 -2.1872
17511TIP3   OH273947   5.391   4.908  14.643 -0.4680  0.2625 -0.5425
17511TIP3    H173948   5.425   4.974  14.582  0.7095  1.0853  0.9050
17511TIP3    H273949   5.392   4.952  14.728 -0.7838 -1.2569  0.2841
17512TIP3   OH273950   4.461   4.473   3.420 -0.9449  0.2608 -0.1493
17512TIP3    H173951   4.382   4.491   3.370 -0.2244  0.5466 -1.2367
17512TIP3    H273952   4.432   4.417   3.492 -1.5472 -3.4891 -2.9688
17513TIP3   OH273953   3.214   0.134   5.074 -0.2740 -0.2862  0.4740
17513TIP3    H173954   3.161   0.171   5.145  1.8866 -0.1105  2.1049
17513TIP3    H273955   3.289   0.094   5.118 -0.5969 -3.3705 -1.4905
17514TIP3   OH273956   3.912   1.776  16.989 -0.1244 -0.0486 -0.7210
17514TIP3    H173957   3.947   1.769  17.078  1.2539 -0.6630 -1.2881
17514TIP3    H273958   3.854   1.701  16.980 -1.2805  0.7100  0.0635
17515TIP3   OH273959   2.927   6.267   4.587 -0.0452 -0.0839  0.3656
17515TIP3    H173960   2.925   6.182   4.632  0.0604 -0.8196 -0.9757
17515TIP3    H273961   2.845   6.270   4.538  0.0858  0.4603  0.1776
17516TIP3   OH273962   4.166   1.131   1.427  0.0259 -0.1865 -0.1306
17516TIP3    H173963   4.242   1.178   1.460 -0.3806  0.2309  0.2130
17516TIP3    H273964   4.173   1.138   1.332  0.8302 -0.8138 -0.1311
17517TIP3   OH273965   5.749   2.368   5.338 -0.2725 -0.3449 -0.6196
17517TIP3    H173966   5.779   2.459   5.339 -0.1877 -0.3574 -1.3942
17517TIP3    H273967   5.692   2.361   5.414 -0.1810  0.3252 -0.4809
17518TIP3   OH273968   5.057   4.663   0.034  0.2054  0.1790  0.1660
17518TIP3    H173969   4.994   4.684   0.102  0.7872  0.9783  0.4797
17518TIP3    H273970   5.044   4.570   0.016 -2.2147  0.6636 -0.9810
17519TIP3   OH273971   3.582   6.558  10.640 -0.3526  0.6928  1.0467
17519TIP3    H173972   3.594   6.647  10.605  1.1774  0.4384  0.8725
17519TIP3    H273973   3.529   6.514  10.573  1.7507  0.4939 -0.5968
17520TIP3   OH273974   0.835   2.753   2.099  0.6709 -0.2172 -0.1758
17520TIP3    H173975   0.826   2.821   2.166  0.3180 -1.6230  1.2588
17520TIP3    H273976   0.755   2.760   2.046 -1.0496 -1.6590  2.0675
17521TIP3   OH273977   2.289   3.754   3.503 -0.0270 -0.5052  0.0018
17521TIP3    H173978   2.330   3.760   3.416 -1.0586 -0.8158 -0.5191
17521TIP3    H273979   2.338   3.817   3.556  0.8021 -0.5084 -0.7277
17522TIP3   OH273980   3.890   5.496  16.665 -0.2125  0.1053  0.0972
17522TIP3    H173981   3.959   5.455  16.612 -0.3508 -0.2964  0.2289
17522TIP3    H273982   3.825   5.525  16.601 -0.0284  0.2921 -0.0110
17523TIP3   OH273983   5.012   0.857   0.821  0.4277  0.1219 -0.0385
17523TIP3    H173984   5.079   0.906   0.772  0.8626  1.3785  1.7059
17523TIP3    H273985   4.930   0.898   0.795  0.7287  1.3766  0.8484
17524TIP3   OH273986   0.213   5.064   5.496  0.1609  0.3764 -0.4180
17524TIP3    H173987   0.150   5.006   5.454  0.5579  0.1541 -0.7114
17524TIP3    H273988   0.159   5.122   5.550 -0.1290 -1.4424  1.3447
17525TIP3   OH273989   5.274   0.193  15.848  0.0908  0.2579  0.1545
17525TIP3    H173990   5.276   0.210  15.754  0.6320 -0.2278  0.0697
17525TIP3    H273991   5.361   0.221  15.879  0.4039 -0.8264  0.2799
17526TIP3   OH273992   2.777   0.812  14.690  0.1337 -0.6544 -0.3060
17526TIP3    H173993   2.729   0.777  14.615  0.6536 -0.8610 -0.5513
17526TIP3    H273994   2.869   0.805  14.664  0.2521  2.0314 -0.8864
17527TIP3   OH273995   5.629   2.314   2.270  0.0970 -0.0946 -0.5129
17527TIP3    H173996   5.607   2.230   2.310  2.0024 -1.1332 -1.5289
17527TIP3    H273997   5.673   2.363   2.339 -0.5763 -0.1023 -0.0684
17528TIP3   OH273998   0.807   4.055  15.108 -0.8110  0.3012 -0.4827
17528TIP3    H173999   0.773   3.976  15.150 -0.5822  0.0023 -0.8552
17528TIP3    H274000   0.827   4.028  15.018 -0.3440  0.6758 -0.4961
17529TIP3   OH274001   5.745   6.017   3.641  0.0515 -0.0383 -0.0675
17529TIP3    H174002   5.784   6.064   3.715  1.0399 -0.8271 -0.0705
17529TIP3    H274003   5.815   5.961   3.609 -0.7120 -0.5317 -0.9028
17530TIP3   OH274004   0.590   1.951  14.261 -0.2234 -0.5365  0.4171
17530TIP3    H174005   0.570   2.000  14.181  1.0029  1.2335  1.1238
17530TIP3    H274006   0.518   1.889  14.270 -0.5987 -0.4993 -1.8254
17531TIP3   OH274007   2.422   3.825   3.016  0.2038 -0.4562 -0.3410
17531TIP3    H174008   2.396   3.763   2.948 -3.7969  0.2969  0.2142
17531TIP3    H274009   2.400   3.782   3.098 -3.7368  1.8022  0.0375
17532TIP3   OH274010   5.030   4.815   5.867  0.6359 -0.3291 -0.6606
17532TIP3    H174011   5.018   4.814   5.772 -0.2360  0.6428 -0.5821
17532TIP3    H274012   4.941   4.808   5.903  1.0020 -1.3131  0.1019
17533TIP3   OH274013   0.614   5.311   2.094  0.0306  0.0438 -0.0410
17533TIP3    H174014   0.619   5.224   2.054 -0.6993 -0.1644  0.2969
17533TIP3    H274015   0.522   5.320   2.121 -0.1653  1.3553 -1.0403
17534TIP3   OH274016   1.730   1.625  14.835 -0.1499  0.0275 -0.1522
17534TIP3    H174017   1.707   1.683  14.762 -0.1635  0.8402  0.4799
17534TIP3    H274018   1.805   1.668  14.876  1.1960 -1.4986 -0.9175
17535TIP3   OH274019   4.869   0.163   2.599 -0.8797  0.2761  0.2109
17535TIP3    H174020   4.773   0.164   2.601 -0.9209 -0.1184 -1.1057
17535TIP3    H274021   4.895   0.216   2.674 -2.1264  0.1649  0.7454
17536TIP3   OH274022   3.574   3.101   1.164  0.5394 -0.1649  0.1243
17536TIP3    H174023   3.598   3.092   1.256 -0.8427  1.5970  0.7101
17536TIP3    H274024   3.546   3.013   1.138 -0.3203 -0.4142  1.7639
17537TIP3   OH274025   0.706   5.275  16.209 -0.0604 -0.0424  0.3368
17537TIP3    H174026   0.627   5.224  16.224 -0.4460  0.1954 -0.8137
17537TIP3    H274027   0.722   5.321  16.292 -1.9166  0.9933  0.1609
17538TIP3   OH274028   1.694   6.040  13.649  0.1084  0.3691 -0.1279
17538TIP3    H174029   1.660   5.951  13.658 -3.0089  1.3764 -0.7331
17538TIP3    H274030   1.701   6.072  13.739  0.3333 -0.1585  0.0450
17539TIP3   OH274031   3.962   1.191   0.458 -0.3374  0.2983  0.1840
17539TIP3    H174032   3.960   1.108   0.505 -1.3316 -0.9642 -1.9022
17539TIP3    H274033   3.958   1.257   0.526 -0.4293 -1.3733  1.8986
17540TIP3   OH274034   5.504   4.589   1.505  0.5914 -0.3759 -0.5365
17540TIP3    H174035   5.496   4.540   1.586 -0.0846  0.5757 -0.0114
17540TIP3    H274036   5.518   4.522   1.438 -0.0746 -1.2631  0.1894
17541TIP3   OH274037   4.598   3.186   1.465 -0.2448  0.1479  0.1661
17541TIP3    H174038   4.559   3.274   1.465 -0.5759  0.0115  1.1388
17541TIP3    H274039   4.606   3.163   1.558  2.4205  0.2768  0.0529
17542TIP3   OH274040   0.558   0.223   0.505 -0.8254 -0.7425  0.1347
17542TIP3    H174041   0.641   0.271   0.505 -0.9253 -0.5668  0.4701
17542TIP3    H274042   0.519   0.241   0.420  1.1196 -3.6651 -1.5468
17543TIP3   OH274043   0.415   0.861   0.875 -0.2951  0.4442 -0.7254
17543TIP3    H174044   0.467   0.802   0.931  1.7517  0.0342 -2.8849
17543TIP3    H274045   0.474   0.934   0.858 -1.3347  1.1491 -1.3779
17544TIP3   OH274046   4.595   4.521  14.193 -0.0486 -0.2353  0.3794
17544TIP3    H174047   4.580   4.615  14.199  3.2026  0.4409  0.0214
17544TIP3    H274048   4.508   4.483  14.183 -1.4924  2.6877  0.7621
17545TIP3   OH274049   5.280   4.926   5.017 -0.0432  0.2541  0.1618
17545TIP3    H174050   5.351   4.882   5.063  0.8505  2.2850  0.8324
17545TIP3    H274051   5.317   4.947   4.931 -0.5300 -0.4732 -0.2275
17546TIP3   OH274052   6.102   1.786  16.192 -0.1743 -0.1335  0.0642
17546TIP3    H174053   6.103   1.866  16.139  2.8527 -0.6919 -0.9553
17546TIP3    H274054   6.149   1.722  16.138 -0.2188 -1.8267  1.9297
17547TIP3   OH274055   4.907   4.907  16.381  0.3925 -0.4509 -0.3302
17547TIP3    H174056   4.843   4.938  16.317 -0.0535 -0.8405 -0.0744
17547TIP3    H274057   4.855   4.860  16.446  0.9171 -0.6073 -0.0205
17548TIP3   OH274058   0.349   0.455  16.761  0.0787 -0.0179  0.2076
17548TIP3    H174059   0.305   0.540  16.759 -0.8964 -0.3661  3.1039
17548TIP3    H274060   0.278   0.392  16.774  0.9540 -1.1427 -0.3017
17549TIP3   OH274061   0.628   4.362   0.219  0.3258  0.8289  0.6527
17549TIP3    H174062   0.534   4.380   0.225  0.1984  0.7508 -0.7746
17549TIP3    H274063   0.633   4.270   0.194  0.8078  0.7444  1.0359
17550TIP3   OH274064   3.419   1.624  11.700  0.0646 -0.2537  0.1884
17550TIP3    H174065   3.366   1.556  11.659  1.5152 -1.6534  0.5288
17550TIP3    H274066   3.469   1.662  11.628 -0.0638 -0.1899  0.1329
17551TIP3   OH274067   5.566   3.311   3.179  0.1664  0.3874  0.0514
17551TIP3    H174068   5.626   3.320   3.105  2.3562 -0.5725  1.5970
17551TIP3    H274069   5.547   3.401   3.206  1.5290  0.7346 -0.0463
17552TIP3   OH274070   4.727   3.914  15.849  0.6651  0.2126 -0.1300
17552TIP3    H174071   4.703   3.960  15.929 -1.9224  0.3486 -0.8697
17552TIP3    H274072   4.722   3.980  15.780  0.7731 -0.3369 -0.6805
17553TIP3   OH274073   4.998   3.430  12.429  0.2406  0.5061  0.3047
17553TIP3    H174074   4.949   3.388  12.501  0.7963 -0.4808  0.1318
17553TIP3    H274075   4.995   3.523  12.449 -0.2412  0.3065  1.2224
17554TIP3   OH274076   1.697   1.180   0.359 -0.2894 -0.0828 -0.6472
17554TIP3    H174077   1.758   1.232   0.307 -0.4552 -0.0865 -0.8492
17554TIP3    H274078   1.662   1.115   0.298 -3.1030  2.0511 -1.5489
17555TIP3   OH274079   5.688   0.320  13.680  0.3607 -0.0099  0.2131
17555TIP3    H174080   5.620   0.280  13.736 -1.0409 -0.1972 -1.5351
17555TIP3    H274081   5.744   0.247  13.656 -1.6962 -0.9322 -2.2631
17556TIP3   OH274082   5.061   5.561   2.150  0.3912  0.1574 -0.3297
17556TIP3    H174083   5.086   5.537   2.239  0.6145  1.1367 -0.1204
17556TIP3    H274084   5.133   5.530   2.095 -0.0055 -0.9531 -0.2531
17557TIP3   OH274085   5.134   4.557   1.620 -0.1050 -0.0565  0.0981
17557TIP3    H174086   5.176   4.612   1.685  1.5200 -0.9468 -0.1379
17557TIP3    H274087   5.120   4.614   1.545  1.3146  0.1220 -0.0516
17558TIP3   OH274088   3.858   5.592   1.028  0.4383 -0.4017  0.0683
17558TIP3    H174089   3.936   5.644   1.049 -0.2955  0.8143 -0.1546
17558TIP3    H274090   3.795   5.655   0.994 -0.4558 -1.4568 -0.2955
17559TIP3   OH274091   2.334   3.819  15.410  0.3176 -0.1760  0.5063
17559TIP3    H174092   2.385   3.899  15.407 -0.4271  0.3258  0.9178
17559TIP3    H274093   2.274   3.827  15.336  0.4659 -0.5096  0.3491
17560TIP3   OH274094   6.141   3.380   3.299 -0.0871  0.5012  0.4932
17560TIP3    H174095   6.195   3.341   3.231 -2.4977 -2.4759  0.0779
17560TIP3    H274096   6.180   3.467   3.314  2.1385  0.2219 -2.6921
17561TIP3   OH274097   0.488   4.354  12.720  0.6784 -0.0363  0.1189
17561TIP3    H174098   0.511   4.266  12.749  2.1603 -0.1295 -1.2132
17561TIP3    H274099   0.404   4.372  12.763 -0.7276 -2.8933 -1.1032
17562TIP3   OH274100   5.475   0.992  12.538  0.1346  0.2707  0.0562
17562TIP3    H174101   5.571   0.990  12.532  0.2367 -0.6082  1.4882
17562TIP3    H274102   5.445   0.994  12.447  1.5092  1.3983 -0.4081
17563TIP3   OH274103   1.791   6.402  12.360 -0.3619 -0.0658  0.4632
17563TIP3    H174104   1.816   6.363  12.444  1.1919  3.8458  2.0649
17563TIP3    H274105   1.872   6.406  12.310 -0.2035  1.7756  0.7663
17564TIP3   OH274106   4.162   6.624   5.715  0.3461  0.4723  0.3038
17564TIP3    H174107   4.086   6.678   5.736 -0.2149  0.0559 -0.5859
17564TIP3    H274108   4.214   6.623   5.795 -0.7839  0.4395  1.0536
17565TIP3   OH274109   2.851   3.059   2.680  0.5794 -0.0540 -0.2302
17565TIP3    H174110   2.799   3.047   2.759  0.7300  1.0026  0.0405
17565TIP3    H274111   2.868   3.153   2.676  0.1484 -0.0053 -1.7851
17566TIP3   OH274112   1.548   6.027  13.958  0.1595  0.6591 -0.2098
17566TIP3    H174113   1.530   5.949  13.905 -0.5083  0.4581  0.3095
17566TIP3    H274114   1.568   5.993  14.045 -0.4467  1.0863  0.0995
17567TIP3   OH274115   4.089   0.016   2.717  0.5212 -0.0174  0.4277
17567TIP3    H174116   4.007  -0.034   2.718  0.5260 -0.0971  2.6930
17567TIP3    H274117   4.066   0.099   2.758  0.5668  1.9361 -3.0897
17568TIP3   OH274118   5.087   4.475  12.300 -0.2693  0.3904  0.3503
17568TIP3    H174119   5.007   4.527  12.300  0.1691  1.1702 -1.7877
17568TIP3    H274120   5.150   4.528  12.349 -0.9112 -0.0746  1.7469
17569TIP3   OH274121   3.863   5.626  15.614 -0.0601 -0.5071  0.5159
17569TIP3    H174122   3.901   5.628  15.526  1.2416  0.6917  1.0599
17569TIP3    H274123   3.931   5.584  15.668 -0.7203 -0.9618  1.0049
17570TIP3   OH274124   2.635   6.478   2.500  0.0387 -0.7853  0.6300
17570TIP3    H174125   2.578   6.421   2.449 -0.4891 -0.7208  1.1304
17570TIP3    H274126   2.584   6.497   2.579 -0.4182  1.5258 -0.1458
17571TIP3   OH274127   3.218   5.719  16.122 -0.3398  0.1519 -0.1179
17571TIP3    H174128   3.229   5.806  16.161 -0.4845 -0.9392  2.5580
17571TIP3    H274129   3.270   5.661  16.178 -1.9139 -1.7914 -0.5655
17572TIP3   OH274130   1.646   0.160   3.825 -0.1395 -0.0466  0.3888
17572TIP3    H174131   1.650   0.151   3.920 -1.1216  2.9100  0.8148
17572TIP3    H274132   1.552   0.162   3.805  0.0573 -0.5622 -0.6273
17573TIP3   OH274133   0.288   1.768   1.764  0.1444 -0.0981 -0.4945
17573TIP3    H174134   0.243   1.784   1.847  2.8995  1.1413  0.8930
17573TIP3    H274135   0.225   1.794   1.697 -1.3874  1.0085  1.2778
17574TIP3   OH274136   2.525   6.246   3.810 -0.8023 -0.2432  0.4234
17574TIP3    H174137   2.605   6.271   3.764  0.4918  0.4953  2.8775
17574TIP3    H274138   2.546   6.161   3.850 -1.1399  0.0533  1.2630
17575TIP3   OH274139   3.458   5.848   6.638 -0.6232  0.6090 -0.4074
17575TIP3    H174140   3.363   5.850   6.638 -0.6419  0.8867 -1.8048
17575TIP3    H274141   3.483   5.842   6.731 -1.9927 -0.1375 -0.0721
17576TIP3   OH274142   6.322   6.200   2.526 -0.0354 -0.2442 -0.5276
17576TIP3    H174143   6.405   6.173   2.566 -0.1878  0.2732  0.1584
17576TIP3    H274144   6.256   6.179   2.592 -0.1682  1.6720  0.0021
17577TIP3   OH274145   0.405   0.801   0.014 -0.4186  0.0725 -0.3280
17577TIP3    H174146   0.468   0.737  -0.019 -0.1819  0.5755 -0.8739
17577TIP3    H274147   0.319   0.761  -0.002 -0.2965  0.2133 -1.3561
17578TIP3   OH274148   5.268   4.420  13.333 -0.1393  0.0544 -0.4293
17578TIP3    H174149   5.224   4.339  13.306  0.1795 -0.1095 -0.4733
17578TIP3    H274150   5.295   4.460  13.250  0.6491 -0.3395 -0.3746
17579TIP3   OH274151   4.815   5.069  16.846 -1.0048 -0.1176 -0.0289
17579TIP3    H174152   4.833   5.157  16.878 -1.3365 -0.3163  0.7251
17579TIP3    H274153   4.730   5.078  16.802 -1.7239 -0.3399  1.2733
17580TIP3   OH274154   1.407   1.634   5.264  0.0137  0.5247  0.5992
17580TIP3    H174155   1.337   1.630   5.199  1.0574  0.6956 -0.5801
17580TIP3    H274156   1.434   1.542   5.276 -0.2842  0.4778  0.9094
17581TIP3   OH274157   1.722   4.196   2.756 -0.4395  0.8091 -0.7505
17581TIP3    H174158   1.805   4.152   2.742 -0.1186  0.1535  2.4758
17581TIP3    H274159   1.661   4.126   2.781 -1.9185  1.3341 -2.5905
17582TIP3   OH274160   6.409   3.142   3.365  0.1346  0.2815 -0.4980
17582TIP3    H174161   6.502   3.124   3.383 -0.3013 -0.6074  1.0847
17582TIP3    H274162   6.388   3.216   3.421 -0.5655 -0.7494  0.6485
17583TIP3   OH274163   0.011   5.922  13.031 -0.3499  0.0547  0.5405
17583TIP3    H174164   0.006   6.016  13.011  0.6617 -0.0635 -0.3217
17583TIP3    H274165   0.033   5.919  13.124 -2.3106  0.6298  1.0951
17584TIP3   OH274166   0.198   6.209   3.892 -0.3216 -0.9844 -0.1383
17584TIP3    H174167   0.267   6.241   3.835 -0.9171 -1.4608 -1.1653
17584TIP3    H274168   0.117   6.230   3.846 -0.8506 -0.9298  0.7778
17585TIP3   OH274169   4.504   3.437   1.449 -0.3164 -0.0859 -0.2034
17585TIP3    H174170   4.524   3.519   1.404 -0.1137 -0.6473 -1.1614
17585TIP3    H274171   4.417   3.451   1.487 -0.0689  0.7399  0.0708
17586TIP3   OH274172   2.049   5.621  12.411 -0.1988  0.4805 -0.7505
17586TIP3    H174173   2.140   5.626  12.380  0.0439  0.8680  0.0010
17586TIP3    H274174   2.056   5.623  12.506 -1.0508  1.3610 -0.6931
17587TIP3   OH274175   3.139   2.782   5.213  0.3978  0.0941 -0.1208
17587TIP3    H174176   3.207   2.842   5.245 -0.6683  0.6019  1.3138
17587TIP3    H274177   3.101   2.827   5.138 -0.0172  1.0022  0.6087
17588TIP3   OH274178   4.673   4.683   5.671 -0.1339 -0.1199 -0.5794
17588TIP3    H174179   4.597   4.729   5.636 -0.1031  0.7159  0.3885
17588TIP3    H274180   4.650   4.666   5.763  0.6304 -0.3323 -0.4229
17589TIP3   OH274181   3.364   2.853   4.222  0.0361 -0.1555  0.1786
17589TIP3    H174182   3.383   2.815   4.136 -0.7828  0.2786 -0.2086
17589TIP3    H274183   3.376   2.781   4.284 -0.1536 -0.6868 -0.3911
17590TIP3   OH274184   3.203   1.447   2.177  0.7021  0.6579  0.0412
17590TIP3    H174185   3.235   1.383   2.241  1.0753 -0.2672 -1.0512
17590TIP3    H274186   3.283   1.483   2.138  0.4672  0.9982 -0.1288
17591TIP3   OH274187   6.318   1.440   1.805  0.4004  0.1564 -0.3306
17591TIP3    H174188   6.320   1.417   1.898 -1.8072  1.5532  0.1413
17591TIP3    H274189   6.255   1.379   1.767  0.7829  0.0438 -0.7964
17592TIP3   OH274190   0.740   3.689  10.857 -0.5015 -0.3252 -0.0357
17592TIP3    H174191   0.669   3.752  10.873 -0.5015 -0.7750  2.0081
17592TIP3    H274192   0.704   3.605  10.886  1.9552 -0.0451  4.8998
17593TIP3   OH274193   3.663   0.731  16.478 -0.1576  0.0743  0.3689
17593TIP3    H174194   3.688   0.713  16.387 -1.3185  0.8193 -0.1190
17593TIP3    H274195   3.676   0.647  16.523  0.9797 -0.1571 -0.3400
17594TIP3   OH274196   2.182   3.283  14.161  0.2516 -0.9038 -0.2074
17594TIP3    H174197   2.250   3.216  14.155  1.1313  0.0186 -0.6435
17594TIP3    H274198   2.193   3.337  14.083  1.3394  1.4138  1.4291
17595TIP3   OH274199   6.683   2.242  15.280  0.4990  0.2555  0.8068
17595TIP3    H174200   6.717   2.331  15.273 -0.8959  0.7079 -0.9358
17595TIP3    H274201   6.719   2.196  15.205  0.0367 -0.2196  0.8674
17596TIP3   OH274202   1.444   5.272   6.605  0.1852 -0.6381  0.0067
17596TIP3    H174203   1.459   5.353   6.556 -1.4990  0.5305  1.3409
17596TIP3    H274204   1.411   5.300   6.690  3.1032 -2.5707  2.0019
17597TIP3   OH274205   2.350   0.031  12.674 -0.0267 -0.0430  0.2837
17597TIP3    H174206   2.349  -0.033  12.604  1.4650  0.1264  0.0704
17597TIP3    H274207   2.266   0.075  12.668 -0.0671 -0.2838 -1.1614
17598TIP3   OH274208   0.181   1.913  14.359 -0.3478 -0.0854 -0.4156
17598TIP3    H174209   0.252   1.851  14.379 -0.5078 -0.3064 -0.5223
17598TIP3    H274210   0.216   1.969  14.290 -0.6726 -0.9259 -1.2917
17599TIP3   OH274211   2.387   0.413  13.551  0.5353  0.0348  0.1034
17599TIP3    H174212   2.379   0.360  13.631 -0.0958 -0.7093 -0.4415
17599TIP3    H274213   2.432   0.356  13.489 -0.1944  0.1046 -0.5049
17600TIP3   OH274214   2.518   1.124  14.469 -0.7349 -0.2156 -0.1279
17600TIP3    H174215   2.584   1.191  14.489  1.4453 -1.0875 -3.5410
17600TIP3    H274216   2.547   1.047  14.518  0.8809 -0.5592 -1.5060
17601TIP3   OH274217   3.717   2.645   5.181  0.5513 -0.8002  0.2300
17601TIP3    H174218   3.625   2.618   5.179  0.4831 -0.6168  0.9356
17601TIP3    H274219   3.721   2.718   5.119 -0.0488  0.0045  1.1046
17602TIP3   OH274220   3.046   3.214  11.948  0.0321  0.2906  0.1793
17602TIP3    H174221   2.957   3.216  11.983  0.1766 -0.4474  0.5949
17602TIP3    H274222   3.102   3.201  12.025  0.4010 -0.6511 -0.2412
17603TIP3   OH274223   0.183   1.397   1.722 -0.1813  0.2680 -1.0085
17603TIP3    H174224   0.256   1.411   1.662 -0.4328  1.0278 -1.1473
17603TIP3    H274225   0.148   1.311   1.698 -0.4082  0.6399 -2.1055
17604TIP3   OH274226   2.899   3.895   3.826 -0.3343  0.9002  0.0444
17604TIP3    H174227   2.945   3.822   3.783 -1.0097  1.8839 -2.5687
17604TIP3    H274228   2.969   3.955   3.851  0.0431  0.8712 -0.8852
17605TIP3   OH274229   3.876   5.086   2.334  0.5155  0.5551 -0.1067
17605TIP3    H174230   3.942   5.148   2.303  0.2187  0.8035 -0.2567
17605TIP3    H274231   3.793   5.129   2.314  0.2732 -0.3419 -1.1771
17606TIP3   OH274232   2.186   1.117   3.177  0.2539 -0.2710 -0.0410
17606TIP3    H174233   2.094   1.090   3.180 -0.2503  0.9486 -2.1888
17606TIP3    H274234   2.201   1.161   3.260 -0.9022 -1.0986  0.6326
17607TIP3   OH274235   6.415   4.296  11.461  0.5330 -0.1783 -0.0396
17607TIP3    H174236   6.441   4.319  11.372  2.5417 -0.6567  0.3684
17607TIP3    H274237   6.404   4.201  11.458 -1.2813  0.0115 -0.1940
17608TIP3   OH274238   3.225   2.449  10.989 -0.1220  0.1716  0.5844
17608TIP3    H174239   3.319   2.468  10.986 -0.5580  2.5722 -0.8299
17608TIP3    H274240   3.219   2.354  10.977  2.1102 -0.0677  1.0042
17609TIP3   OH274241   1.979   1.662  12.124 -0.5056 -0.7611 -0.5124
17609TIP3    H174242   1.984   1.741  12.178 -0.4604 -0.2444 -1.2542
17609TIP3    H274243   2.055   1.610  12.149  0.8863  0.5804 -1.7610
17610TIP3   OH274244   2.637   5.455  13.489 -0.6301 -0.3239 -0.0741
17610TIP3    H174245   2.551   5.413  13.487 -0.9344  0.1481  1.3867
17610TIP3    H274246   2.630   5.520  13.560  0.1672  1.4381 -1.5098
17611TIP3   OH274247   2.475   1.624  13.251  0.6390  0.2547  0.0854
17611TIP3    H174248   2.448   1.670  13.331  1.5464 -1.1405  1.2493
17611TIP3    H274249   2.397   1.577  13.223  0.3205  0.7346  0.1395
17612TIP3   OH274250   1.678   3.304  15.172  0.5034  0.4548  0.5216
17612TIP3    H174251   1.635   3.285  15.089  0.6313 -0.4808  0.6617
17612TIP3    H274252   1.607   3.309  15.235  0.3088  2.0815  0.2280
17613TIP3   OH274253   3.620   5.535   4.733 -0.1206 -0.1668 -0.5709
17613TIP3    H174254   3.619   5.561   4.825  2.9809  1.2136 -0.7850
17613TIP3    H274255   3.657   5.447   4.734  1.8801  0.6040 -0.4957
17614TIP3   OH274256   1.334   3.651   2.959 -0.2919 -0.3816  0.2476
17614TIP3    H174257   1.328   3.727   2.901  2.5869 -0.0416  0.2721
17614TIP3    H274258   1.311   3.685   3.045  1.0401  0.5068  0.2707
17615TIP3   OH274259   1.619   2.924   0.361  0.4873  0.1485 -0.4922
17615TIP3    H174260   1.652   2.958   0.278  2.8516  0.7749  0.6341
17615TIP3    H274261   1.554   2.988   0.390  2.0994  1.7557 -0.2677
17616TIP3   OH274262   3.739   6.487  11.586  0.2643  0.0479  0.3822
17616TIP3    H174263   3.760   6.578  11.570 -2.9464  0.9713  0.6961
17616TIP3    H274264   3.693   6.458  11.507  0.0820 -0.8653  0.8016
17617TIP3   OH274265   5.853   1.119  15.341  0.7750 -0.3076 -0.8841
17617TIP3    H174266   5.838   1.205  15.381  0.2836  0.3875 -2.4999
17617TIP3    H274267   5.914   1.076  15.401 -2.5069 -0.7235  2.5691
17618TIP3   OH274268   2.764   5.759  11.525 -0.1254 -0.2514 -0.0370
17618TIP3    H174269   2.707   5.776  11.600 -0.4794  1.0850 -0.5884
17618TIP3    H274270   2.735   5.674  11.492 -0.3011 -0.6229  1.0303
17619TIP3   OH274271   4.439   2.024  11.675  0.6523  0.0329  0.7785
17619TIP3    H174272   4.462   2.047  11.585 -0.5900  0.9620  0.6721
17619TIP3    H274273   4.398   2.102  11.710 -0.8831 -1.0190  1.4369
17620TIP3   OH274274   6.043   6.264   3.936 -0.1239 -0.3747  0.1714
17620TIP3    H174275   6.096   6.315   3.998 -0.0163  0.4011 -0.5466
17620TIP3    H274276   6.074   6.174   3.946  0.8839 -0.0306  0.2227
17621TIP3   OH274277   3.919   6.189   1.151 -0.3290  0.0659  0.0919
17621TIP3    H174278   3.926   6.144   1.066 -1.0986  0.3903 -0.1521
17621TIP3    H274279   3.936   6.121   1.215 -0.1624 -0.2822 -0.3138
17622TIP3   OH274280   2.290   0.219  11.144  0.3137 -0.0067  0.0947
17622TIP3    H174281   2.231   0.277  11.097  2.9785  1.3303 -1.8681
17622TIP3    H274282   2.316   0.153  11.080 -0.1344 -1.4936  1.3585
17623TIP3   OH274283   0.110   1.275   5.457  0.0848  0.2425 -0.5103
17623TIP3    H174284   0.019   1.246   5.451  0.7979 -2.1676 -0.5750
17623TIP3    H274285   0.150   1.245   5.375  0.9693  1.2074 -0.4492
17624TIP3   OH274286   5.442   5.485  14.181  0.1641  0.0084  0.0474
17624TIP3    H174287   5.434   5.546  14.254  2.8681 -1.8813  2.1199
17624TIP3    H274288   5.354   5.452  14.167 -0.8273  2.1537  0.8131
17625TIP3   OH274289   4.721   1.880   1.834  0.5292  0.4958 -0.5949
17625TIP3    H174290   4.723   1.969   1.870  1.8628  0.5791 -0.8129
17625TIP3    H274291   4.731   1.823   1.910  0.2065  0.5573 -0.5077
17626TIP3   OH274292   5.775   4.919   6.359 -0.0235  0.2007  0.2173
17626TIP3    H174293   5.763   4.853   6.427  1.3694 -0.7136 -0.3712
17626TIP3    H274294   5.869   4.922   6.345 -0.0408  2.3408  0.2145
17627TIP3   OH274295   2.611   6.268  11.624  0.1697 -0.2582  0.0547
17627TIP3    H174296   2.604   6.344  11.682  0.9432  1.6128 -2.1057
17627TIP3    H274297   2.699   6.275  11.586 -0.4454 -1.0853 -1.6429
17628TIP3   OH274298   1.140   5.450  14.174 -0.3144 -0.3184  0.2433
17628TIP3    H174299   1.204   5.383  14.149  0.2176  0.7570 -1.3877
17628TIP3    H274300   1.081   5.405  14.234  0.5147 -2.0205 -0.1626
17629TIP3   OH274301   2.383   2.654  12.294 -0.2167 -0.9042  0.2353
17629TIP3    H174302   2.333   2.606  12.228 -1.1371 -0.5742  0.6778
17629TIP3    H274303   2.337   2.737  12.303 -0.5426 -1.2273  1.8146
17630TIP3   OH274304   6.531   6.273   2.964 -0.1606 -0.1036 -0.1669
17630TIP3    H174305   6.469   6.200   2.959 -0.3436  0.1194 -1.8449
17630TIP3    H274306   6.555   6.279   3.056  0.3900 -2.7255 -0.0842
17631TIP3   OH274307   0.829   6.165  12.258 -0.5282  0.0922 -0.1855
17631TIP3    H174308   0.741   6.202  12.263 -0.0371  1.2763 -0.0752
17631TIP3    H274309   0.832   6.124  12.171 -0.6543  1.5175 -0.9055
17632TIP3   OH274310   4.431   4.815  12.867  0.3681 -0.1147 -0.3835
17632TIP3    H174311   4.503   4.818  12.930  0.0514  0.9699 -0.0470
17632TIP3    H274312   4.354   4.843  12.917 -0.1600 -0.5759 -0.9130
17633TIP3   OH274313   3.974   6.745   0.155 -0.2065  0.3410 -0.1970
17633TIP3    H174314   4.023   6.811   0.204 -0.6479  0.6603 -0.1803
17633TIP3    H274315   4.028   6.666   0.160  0.8454  0.9908 -1.1361
17634TIP3   OH274316   2.909   5.355  15.523 -0.1175  0.1168 -0.9470
17634TIP3    H174317   2.877   5.332  15.611  0.1836 -0.3252 -0.9491
17634TIP3    H274318   2.877   5.444  15.508  0.6623  0.5822  0.0147
17635TIP3   OH274319   3.011   3.013  15.020  0.4702 -0.3220 -1.2430
17635TIP3    H174320   2.923   3.030  15.055  0.6277 -0.2772 -0.8663
17635TIP3    H274321   2.995   2.959  14.943  0.0814  0.0339 -1.4213
17636TIP3   OH274322   3.370   3.993   0.302 -0.2254 -0.0086  0.0679
17636TIP3    H174323   3.391   3.926   0.368 -0.6829 -1.8312 -1.5468
17636TIP3    H274324   3.280   3.974   0.277  0.3280 -0.1868 -1.9502
17637TIP3   OH274325   2.355   4.300  12.277  0.3214  1.0053  0.2004
17637TIP3    H174326   2.333   4.312  12.184 -1.3546 -1.0187  0.2549
17637TIP3    H274327   2.418   4.369  12.296  0.6322  1.5439 -2.4170
17638TIP3   OH274328   2.148   2.720  16.035 -0.3648 -0.0822  0.0701
17638TIP3    H174329   2.180   2.679  16.116 -0.0142 -1.0426 -0.5355
17638TIP3    H274330   2.228   2.747  15.989 -0.5755  0.7394  0.1834
17639TIP3   OH274331   5.770   6.603  12.316  0.4109  0.5610 -0.4445
17639TIP3    H174332   5.693   6.661  12.316 -0.4386 -0.4128  2.1370
17639TIP3    H274333   5.733   6.515  12.309  1.2123  0.0707  1.0078
17640TIP3   OH274334   0.275   3.481   2.808  0.3948 -0.2202  0.0010
17640TIP3    H174335   0.256   3.461   2.900  1.7808  1.2801  0.6807
17640TIP3    H274336   0.221   3.558   2.789  0.8091  0.0422 -0.1320
17641TIP3   OH274337   5.586   3.686   0.164  0.0035  0.1756  0.2192
17641TIP3    H174338   5.636   3.747   0.218 -0.6095  0.3685  0.5742
17641TIP3    H274339   5.521   3.647   0.224 -0.2594 -0.0852 -0.2271
17642TIP3   OH274340   5.764   5.277  13.594  0.2637  0.0803  0.1321
17642TIP3    H174341   5.751   5.271  13.499  0.1802 -1.2342  0.2042
17642TIP3    H274342   5.838   5.336  13.604  0.0119  0.5607 -0.7320
17643TIP3   OH274343   1.222   1.763   0.117 -0.3997 -0.7698 -0.4496
17643TIP3    H174344   1.149   1.823   0.102  1.0125  1.0443 -0.3937
17643TIP3    H274345   1.183   1.690   0.164 -2.3333 -0.2705 -1.1596
17644TIP3   OH274346   2.597   1.212  11.185  0.0735 -0.4709 -0.1840
17644TIP3    H174347   2.575   1.123  11.157 -0.3206 -0.0218 -1.3397
17644TIP3    H274348   2.542   1.268  11.131  1.3737  0.5330 -0.4922
17645TIP3   OH274349   1.157   5.377   5.064 -0.3293 -0.6288 -0.0477
17645TIP3    H174350   1.126   5.308   5.122  0.0821 -0.0249  0.9171
17645TIP3    H274351   1.253   5.370   5.067 -0.1901  1.2046  1.6562
17646TIP3   OH274352   1.845   2.664   0.181 -0.0442 -0.1301  0.1096
17646TIP3    H174353   1.919   2.693   0.234 -1.2292  0.2193  1.6487
17646TIP3    H274354   1.808   2.591   0.231 -0.6125 -0.4252 -0.7369
17647TIP3   OH274355   0.224   1.722  13.628  0.1896 -0.1088 -0.0763
17647TIP3    H174356   0.227   1.728  13.724 -3.2595  1.3912  0.0754
17647TIP3    H274357   0.294   1.780  13.598  2.4849 -1.9145  1.4149
17648TIP3   OH274358   1.841   5.493  11.583  1.3886  0.0928 -0.0048
17648TIP3    H174359   1.885   5.563  11.630  1.4537  1.6975 -2.3290
17648TIP3    H274360   1.911   5.446  11.538  1.1297 -0.1709 -0.1367
17649TIP3   OH274361   1.092   4.184  12.550 -0.1696 -0.3198  0.1812
17649TIP3    H174362   1.015   4.233  12.522  0.1323 -0.5479 -1.0889
17649TIP3    H274363   1.105   4.210  12.641 -0.8561  0.8713 -0.0435
17650TIP3   OH274364   0.513   1.689  15.466 -0.3647 -0.6158  0.0401
17650TIP3    H174365   0.586   1.627  15.469  0.1216 -0.1844 -1.8713
17650TIP3    H274366   0.514   1.724  15.377 -1.6002  0.9870  0.6018
17651TIP3   OH274367   5.150   3.399  17.153  0.0084 -0.3506  0.1639
17651TIP3    H174368   5.163   3.406  17.058 -0.2089 -2.4679 -0.0714
17651TIP3    H274369   5.225   3.348  17.184 -0.8066 -1.1718  0.8483
17652TIP3   OH274370   2.464   4.767   3.580  0.5628 -0.5108  0.1019
17652TIP3    H174371   2.541   4.713   3.566 -0.3976 -1.7984 -0.3578
17652TIP3    H274372   2.487   4.823   3.654  2.5545  0.3483 -1.0707
17653TIP3   OH274373   3.374   1.216   0.022  0.0315 -0.3717  0.0015
17653TIP3    H174374   3.331   1.155   0.082  1.6818 -1.4686  0.1452
17653TIP3    H274375   3.304   1.248  -0.034 -1.0919 -1.4591  0.7189
17654TIP3   OH274376   5.085   2.485   2.772 -1.0227 -0.5353 -0.4695
17654TIP3    H174377   5.069   2.459   2.681 -1.0027 -1.0749 -0.3266
17654TIP3    H274378   5.007   2.533   2.798  0.2362  2.4130 -1.7348
17655TIP3   OH274379   3.342   2.747   4.676 -0.2375  0.2617 -0.1400
17655TIP3    H174380   3.320   2.840   4.666 -0.3176  0.5325  2.0557
17655TIP3    H274381   3.307   2.723   4.762  2.8119 -0.8612  0.9339
17656TIP3   OH274382   1.556   6.770   2.455 -0.5092  0.5090 -0.2822
17656TIP3    H174383   1.535   6.682   2.485  1.0492 -0.2016 -1.1868
17656TIP3    H274384   1.628   6.798   2.511  0.9174  0.0487 -1.8313
17657TIP3   OH274385   4.421   0.408  11.383 -0.1017 -0.0976 -0.1914
17657TIP3    H174386   4.335   0.372  11.404 -0.0932 -0.5316 -0.8587
17657TIP3    H274387   4.402   0.494  11.344 -0.1297  0.5773  1.2361
17658TIP3   OH274388   5.361   1.243  17.128 -0.8871 -0.0333 -0.0995
17658TIP3    H174389   5.310   1.319  17.098  0.3088  0.9031  0.1739
17658TIP3    H274390   5.341   1.237  17.221 -0.8376  0.0595 -0.0820
17659TIP3   OH274391   4.717   0.492   5.418  0.8206 -0.2695  0.6381
17659TIP3    H174392   4.704   0.406   5.378 -0.4957 -0.4368  1.3749
17659TIP3    H274393   4.637   0.540   5.398  0.6150  0.0230  2.0852
17660TIP3   OH274394   5.823   0.707  14.940  0.0534  0.5802 -0.6986
17660TIP3    H174395   5.822   0.620  14.980 -0.4989  1.0359  0.3217
17660TIP3    H274396   5.914   0.737  14.950  0.4017 -0.1205 -1.6290
17661TIP3   OH274397   2.365   4.679   0.977  0.6797  0.5503 -0.4343
17661TIP3    H174398   2.459   4.665   0.989  0.9882  0.6299 -2.4377
17661TIP3    H274399   2.338   4.609   0.918 -0.6694  0.1812  0.5694
17662TIP3   OH274400   2.029   5.012  12.858 -0.3589 -0.1735  0.4094
17662TIP3    H174401   1.980   4.942  12.900  0.2971 -3.1629 -3.2730
17662TIP3    H274402   2.117   4.976  12.845 -0.2388  0.8496 -2.3995
17663TIP3   OH274403   0.611   4.520  14.398 -0.6087  0.1563  0.1576
17663TIP3    H174404   0.529   4.524  14.350 -0.8522 -1.9387  0.3140
17663TIP3    H274405   0.602   4.444  14.456  1.1685  0.2842  0.6731
17664TIP3   OH274406   1.763   0.104   3.245  0.0293 -0.6602  0.1242
17664TIP3    H174407   1.819   0.179   3.228 -1.1424  0.4320  0.9251
17664TIP3    H274408   1.778   0.082   3.337 -0.6973 -0.4538  0.3065
17665TIP3   OH274409   4.461   0.198  16.521 -0.2078 -0.5711 -0.2234
17665TIP3    H174410   4.542   0.157  16.548 -0.0724 -0.0990  0.1025
17665TIP3    H274411   4.398   0.176  16.590  0.4645  1.7188  1.2516
17666TIP3   OH274412   5.180   5.937   4.958 -0.4828 -0.7217  0.1359
17666TIP3    H174413   5.113   5.882   4.919  0.3014 -1.6725  0.1092
17666TIP3    H274414   5.136   5.978   5.033 -1.3162 -0.6953 -0.3562
17667TIP3   OH274415   5.490   6.011   4.901 -0.0269 -0.3883 -0.3125
17667TIP3    H174416   5.542   6.073   4.954 -1.9190  0.3078  0.8383
17667TIP3    H274417   5.530   5.926   4.918  0.1685 -0.0066  1.3191
17668TIP3   OH274418   0.905   0.193   6.511  0.1066 -0.0494  0.6446
17668TIP3    H174419   0.818   0.185   6.472  1.0179  1.1903 -1.8483
17668TIP3    H274420   0.894   0.257   6.581 -0.2737  3.9498 -2.6799
17669TIP3   OH274421   2.807   5.189   5.595  0.2301 -0.0227  0.1137
17669TIP3    H174422   2.756   5.264   5.566  1.3866  0.7191 -0.0655
17669TIP3    H274423   2.838   5.149   5.514  1.6888  0.7961  0.2364
17670TIP3   OH274424   5.007   3.835  15.850  0.0720 -0.3356  0.1654
17670TIP3    H174425   5.001   3.912  15.907 -0.4142 -1.2501  1.3816
17670TIP3    H274426   4.920   3.797  15.851  0.7129 -1.8797  1.0100
17671TIP3   OH274427   5.794   0.562   3.748 -0.3391  0.2143 -0.8519
17671TIP3    H174428   5.823   0.473   3.771 -0.6893  0.3655  0.2601
17671TIP3    H274429   5.702   0.564   3.773 -0.7767  0.3878 -2.4282
17672TIP3   OH274430   3.622   5.359   4.333  0.0965 -0.3591 -0.1335
17672TIP3    H174431   3.578   5.338   4.251  0.0681 -0.4967 -0.0829
17672TIP3    H274432   3.598   5.450   4.350 -0.9434 -0.7183  0.3889
17673TIP3   OH274433   4.580   4.642  17.172  0.6509 -0.2275  0.4357
17673TIP3    H174434   4.649   4.709  17.174  1.0357 -0.5260 -1.2377
17673TIP3    H274435   4.499   4.691  17.185  0.8996  0.6344 -1.0532
17674TIP3   OH274436   3.507   2.732  13.250 -0.5139  0.1389 -0.3728
17674TIP3    H174437   3.541   2.812  13.290 -0.2473 -0.0335 -0.2463
17674TIP3    H274438   3.560   2.719  13.172 -0.7029  0.2067 -0.5109
17675TIP3   OH274439   4.087   4.380  14.007  0.1574 -0.3705  0.9094
17675TIP3    H174440   4.000   4.419  14.014  0.4921  0.4139  0.7908
17675TIP3    H274441   4.112   4.360  14.098  0.3404  0.5083  1.0596
17676TIP3   OH274442   5.033   2.316  12.298 -0.6772  0.0291 -0.2710
17676TIP3    H174443   5.117   2.287  12.262 -1.3356 -1.6155 -0.5514
17676TIP3    H274444   4.996   2.373  12.231  1.4275  3.2205  1.0075
17677TIP3   OH274445   1.495   4.607  15.894 -0.4174  0.3063  0.0247
17677TIP3    H174446   1.502   4.676  15.960 -1.3304  0.6138 -0.1804
17677TIP3    H274447   1.497   4.654  15.810 -2.7125  0.3087 -0.0988
17678TIP3   OH274448   0.801   1.447  12.587  0.4098 -0.2866  0.6455
17678TIP3    H174449   0.754   1.415  12.664  0.7143 -2.3178  0.0534
17678TIP3    H274450   0.856   1.518  12.620 -0.8934  0.1878  1.8943
17679TIP3   OH274451   6.738   2.283  13.959 -0.3488 -0.2613  0.2776
17679TIP3    H174452   6.712   2.248  13.874 -1.1099 -0.6544  0.6593
17679TIP3    H274453   6.825   2.320  13.944  0.0687 -1.4447 -0.3774
17680TIP3   OH274454   0.149   0.256   2.404  0.1651 -0.1921 -0.5543
17680TIP3    H174455   0.146   0.343   2.364  0.5371  0.0704 -0.0128
17680TIP3    H274456   0.236   0.249   2.442  0.2833 -0.9646 -0.9426
17681TIP3   OH274457   1.821   0.632  10.488  0.0415 -0.4164 -0.3574
17681TIP3    H174458   1.893   0.576  10.459 -0.0178 -0.1858 -0.9614
17681TIP3    H274459   1.853   0.721  10.474  0.1284 -0.2949  0.5786
17682TIP3   OH274460   0.427   4.982  15.872 -0.2336  0.2490  0.5414
17682TIP3    H174461   0.500   4.981  15.935  0.6503  2.0582 -0.3857
17682TIP3    H274462   0.349   4.989  15.927  0.4617  0.8329  1.4901
17683TIP3   OH274463   5.799   2.622   1.469 -0.0777 -0.3018 -0.2109
17683TIP3    H174464   5.781   2.602   1.561  0.7848  0.2047  0.0812
17683TIP3    H274465   5.808   2.717   1.465  1.6503 -0.4283 -0.4499
17684TIP3   OH274466   0.346   2.741  13.730  0.2581 -0.4835 -0.6880
17684TIP3    H174467   0.271   2.715  13.676  0.7438 -0.4189 -1.4028
17684TIP3    H274468   0.359   2.834  13.710  0.0243 -0.2897  0.0508
17685TIP3   OH274469   2.903   6.301  11.518 -0.0209  0.1052  0.3928
17685TIP3    H174470   2.937   6.353  11.591  0.3084 -0.6516  0.7971
17685TIP3    H274471   2.981   6.271  11.472 -0.2380  1.1255 -0.6882
17686TIP3   OH274472   5.027   2.695   4.461 -0.4471 -0.0319 -0.1496
17686TIP3    H174473   5.070   2.773   4.427 -0.2117 -0.5086 -0.9672
17686TIP3    H274474   5.093   2.626   4.452 -1.5924 -0.9489 -2.1617
17687TIP3   OH274475   0.152   5.349  16.397 -0.3525  0.3817  0.2983
17687TIP3    H174476   0.140   5.272  16.451 -1.1903  1.0063  1.0277
17687TIP3    H274477   0.201   5.410  16.453  0.1339  0.4597 -0.1991
17688TIP3   OH274478   1.315   5.114  16.256  0.2533  0.0597 -0.4713
17688TIP3    H174479   1.342   5.022  16.243 -1.0884 -0.3109 -0.7437
17688TIP3    H274480   1.310   5.124  16.351 -0.2322 -0.3520 -0.4475
17689TIP3   OH274481   6.535   4.951  11.006 -0.1820 -0.1185 -0.0984
17689TIP3    H174482   6.504   4.927  10.918 -0.0122  2.3027 -0.8873
17689TIP3    H274483   6.458   4.939  11.062 -0.7249 -0.2716 -0.8575
17690TIP3   OH274484   0.053   0.587  15.145 -0.3762 -0.1381 -0.2883
17690TIP3    H174485   0.056   0.677  15.176 -1.1949  0.6128 -2.2835
17690TIP3    H274486   0.065   0.534  15.225 -0.9610  1.6908  1.0677
17691TIP3   OH274487   1.037   0.213  16.059 -0.3897 -0.7996  0.3570
17691TIP3    H174488   1.093   0.189  16.133  0.7013  0.2667 -0.0848
17691TIP3    H274489   0.982   0.284  16.093 -1.0261 -1.3864  0.5894
17692TIP3   OH274490   1.023   1.417  14.766 -0.2064  0.0657  0.3537
17692TIP3    H174491   1.028   1.417  14.670 -0.8448 -0.1878  0.3121
17692TIP3    H274492   1.008   1.509  14.789 -1.4278 -0.0553  0.1141
17693TIP3   OH274493   4.342   6.473   4.106  0.4776 -0.0407 -0.1498
17693TIP3    H174494   4.425   6.437   4.077  0.8080  1.5621 -1.3748
17693TIP3    H274495   4.366   6.549   4.160 -0.1801 -0.0345  0.1483
17694TIP3   OH274496   6.782   2.964   1.405  0.0367  0.0489  0.6285
17694TIP3    H174497   6.793   2.882   1.452 -0.7773 -1.4823 -1.7020
17694TIP3    H274498   6.704   3.004   1.445  0.1529 -0.5437  1.4653
17695TIP3   OH274499   1.173   6.749  17.012 -0.3539 -0.4236 -0.5218
17695TIP3    H174500   1.216   6.700  16.941 -0.5208 -0.1442 -0.8193
17695TIP3    H274501   1.244   6.795  17.056  0.0944 -2.4531  1.0123
17696TIP3   OH274502   1.453   6.014   5.112 -0.0678  0.0259  0.0633
17696TIP3    H174503   1.478   6.084   5.172 -1.0169  0.0497  0.4541
17696TIP3    H274504   1.375   5.975   5.152  0.3740 -1.1862 -0.2081
17697TIP3   OH274505   3.037   6.396  16.547  0.3403  0.0304 -0.5949
17697TIP3    H174506   3.058   6.442  16.465 -1.0771  0.0484 -0.9699
17697TIP3    H274507   3.031   6.304  16.522 -0.3196  0.0620 -0.5648
17698TIP3   OH274508   5.050   1.590  16.114 -0.0754  0.7472  0.3976
17698TIP3    H174509   5.042   1.680  16.081  1.1292  1.3231  1.5740
17698TIP3    H274510   4.986   1.585  16.185 -0.1096  0.7001  0.3633
17699TIP3   OH274511   1.729   1.548  13.152  0.3250  0.0203  0.2452
17699TIP3    H174512   1.772   1.581  13.231  2.1875 -1.6793  0.0088
17699TIP3    H274513   1.726   1.453  13.163  1.3395 -0.3366 -2.0262
17700TIP3   OH274514   1.921   6.066  12.389 -0.3509 -0.0175  0.3906
17700TIP3    H174515   1.898   5.990  12.442  0.1550 -0.1958  0.3651
17700TIP3    H274516   1.919   6.034  12.299  0.1333 -0.0816  0.3972
17701TIP3   OH274517   1.195   5.829   4.310 -0.5423 -0.5483 -0.0512
17701TIP3    H174518   1.205   5.894   4.379 -1.3143  0.4562 -0.8489
17701TIP3    H274519   1.128   5.769   4.342  0.0330 -0.8536  0.6041
17702TIP3   OH274520   6.211   4.259   4.478  0.0219  0.1905  0.3444
17702TIP3    H174521   6.128   4.306   4.486 -0.5735 -0.3274 -2.0073
17702TIP3    H274522   6.246   4.287   4.393  0.0980 -2.8606 -0.7485
17703TIP3   OH274523   1.897   6.464   2.622  0.3252 -0.2996 -0.6565
17703TIP3    H174524   1.889   6.448   2.528 -0.4430 -2.4842 -0.2771
17703TIP3    H274525   1.833   6.404   2.662 -0.1785  1.3906  1.2114
17704TIP3   OH274526   5.190   3.117   3.455 -0.0344 -0.2658 -0.1345
17704TIP3    H174527   5.239   3.199   3.463 -1.2296  0.4134  0.5745
17704TIP3    H274528   5.252   3.049   3.479 -0.1733  0.7588  3.7334
17705TIP3   OH274529   1.177   4.324   4.159  0.2750 -0.2800  0.2083
17705TIP3    H174530   1.198   4.231   4.172  2.1875 -0.0907 -1.1534
17705TIP3    H274531   1.204   4.367   4.240  1.9260 -0.5667 -0.1579
17706TIP3   OH274532   1.895   0.923   3.101 -0.0321  0.3950 -0.0998
17706TIP3    H174533   1.909   0.967   3.185 -0.2657  1.3991 -0.5631
17706TIP3    H274534   1.936   0.982   3.037 -0.2802 -0.1166 -0.7349
17707TIP3   OH274535   2.759   2.532   0.900 -0.2749 -0.5588 -0.0451
17707TIP3    H174536   2.815   2.460   0.929 -0.3955 -1.3144 -1.5849
17707TIP3    H274537   2.760   2.527   0.805 -1.0683  0.8939 -0.1636
17708TIP3   OH274538   3.569   4.384  14.161 -0.3114 -0.8019 -0.2742
17708TIP3    H174539   3.528   4.435  14.231 -0.6882 -0.0607 -1.0087
17708TIP3    H274540   3.565   4.294  14.192 -0.2433 -0.4704  0.7607
17709TIP3   OH274541   4.487   5.675  16.070 -0.7651  0.3548 -0.0776
17709TIP3    H174542   4.465   5.619  16.144 -0.7964  0.6270  0.1199
17709TIP3    H274543   4.534   5.618  16.009 -1.4712 -0.0861 -0.2253
17710TIP3   OH274544   2.440   2.969   4.135  1.1668  0.2295  0.4396
17710TIP3    H174545   2.531   2.987   4.159  0.9816  0.7002  0.8121
17710TIP3    H274546   2.408   2.911   4.205  0.9799  0.6254  0.6845
17711TIP3   OH274547   2.786   2.744  12.146  0.8658  0.4201 -0.4567
17711TIP3    H174548   2.860   2.804  12.139  0.9690  0.3816  0.1832
17711TIP3    H274549   2.818   2.660  12.113  1.6853 -0.0688  1.4571
17712TIP3   OH274550   2.503   3.889  15.009 -0.1701  0.5932  0.2651
17712TIP3    H174551   2.495   3.947  15.084  0.1676 -0.4887  1.1648
17712TIP3    H274552   2.594   3.898  14.982 -0.6622  2.1683 -1.0437
17713TIP3   OH274553   1.447   4.732  12.489 -0.1763 -0.2023 -0.1913
17713TIP3    H174554   1.511   4.731  12.560  0.4898  2.6116 -0.6375
17713TIP3    H274555   1.447   4.822  12.457 -1.8707 -0.9030 -2.4994
17714TIP3   OH274556   6.301   1.534   3.156  0.2357 -0.1126 -0.3154
17714TIP3    H174557   6.378   1.498   3.111 -0.2801 -1.6792  0.0059
17714TIP3    H274558   6.323   1.528   3.249  1.1158  2.6979 -0.2455
17715TIP3   OH274559   2.804   6.767  10.851 -0.0835 -0.3250 -0.2965
17715TIP3    H174560   2.887   6.721  10.843  0.7925  1.0724  0.2358
17715TIP3    H274561   2.799   6.789  10.945 -2.0755 -2.1752  0.0852
17716TIP3   OH274562   3.707   0.230  13.549 -0.3856  0.5015  0.0084
17716TIP3    H174563   3.629   0.225  13.493 -2.5813  1.5848  2.7190
17716TIP3    H274564   3.754   0.307  13.516 -1.8170  1.3465 -0.1564
17717TIP3   OH274565   3.457   1.684  15.452 -0.0279 -0.5150  0.2710
17717TIP3    H174566   3.474   1.590  15.437 -0.9104 -0.4846 -1.1391
17717TIP3    H274567   3.501   1.727  15.379 -0.9740  0.0384  0.0200
17718TIP3   OH274568   6.227   2.683   5.104 -0.2332  0.4182  0.2305
17718TIP3    H174569   6.205   2.685   5.197  1.1946  0.8752  0.5977
17718TIP3    H274570   6.292   2.613   5.096  0.6407  1.2388 -0.1502
17719TIP3   OH274571   4.443   5.162  12.129 -0.0126 -0.1761 -0.0690
17719TIP3    H174572   4.352   5.192  12.132 -0.6787 -2.1047  1.7310
17719TIP3    H274573   4.451   5.117  12.045 -0.4608  0.6791 -0.5828
17720TIP3   OH274574   1.637   3.006   3.220 -0.0333  0.2758 -0.1322
17720TIP3    H174575   1.583   2.945   3.171 -0.4265 -0.5807  1.3002
17720TIP3    H274576   1.638   3.086   3.167 -1.9252  0.0023 -0.6421
17721TIP3   OH274577   4.687   3.979   0.854  0.3340  0.1333  0.0771
17721TIP3    H174578   4.614   3.936   0.809 -1.1420  1.2951  1.2594
17721TIP3    H274579   4.709   4.053   0.797 -0.5677  0.7641  0.5253
17722TIP3   OH274580   6.183   4.728  12.759  0.1198 -0.1126  0.5069
17722TIP3    H174581   6.193   4.633  12.752  1.1570 -0.0663  1.1987
17722TIP3    H274582   6.272   4.762  12.757 -0.2228  0.8307  0.6187
17723TIP3   OH274583   5.560   0.616   2.357  0.4778 -0.3304  0.3183
17723TIP3    H174584   5.494   0.582   2.296 -1.1563 -0.9470  2.3199
17723TIP3    H274585   5.640   0.622   2.305 -0.5601 -1.8971 -1.5775
17724TIP3   OH274586   6.132   0.163  16.629 -0.0109  0.0754 -0.2044
17724TIP3    H174587   6.167   0.243  16.590  1.7443 -1.0845 -1.1233
17724TIP3    H274588   6.052   0.146  16.579  0.0863  0.7629 -0.6100
17725TIP3   OH274589   6.129   5.316  13.619 -0.0533 -0.0098  0.3805
17725TIP3    H174590   6.082   5.398  13.608  2.9404  1.6965 -0.7412
17725TIP3    H274591   6.145   5.309  13.714 -0.0487  0.8786  0.4472
17726TIP3   OH274592   1.368   5.572   5.932 -0.5055  0.3093 -0.6390
17726TIP3    H174593   1.405   5.661   5.925  0.4251  0.0704  0.8548
17726TIP3    H274594   1.443   5.516   5.950 -1.4183 -0.3692  1.3079
17727TIP3   OH274595   1.642   4.059  13.311  0.3817 -0.0697  0.3452
17727TIP3    H174596   1.571   3.999  13.289 -0.8979  1.4183  0.2645
17727TIP3    H274597   1.599   4.135  13.350  1.9654  0.7104  0.6651
17728TIP3   OH274598   5.356   3.721  15.000  0.1737 -0.2316 -0.3917
17728TIP3    H174599   5.445   3.754  14.992 -0.1719  0.6229 -0.8165
17728TIP3    H274600   5.315   3.740  14.916 -0.4272 -0.5850 -0.1922
17729TIP3   OH274601   1.460   1.358   5.277 -0.4748 -0.3087 -0.0778
17729TIP3    H174602   1.398   1.336   5.208 -0.2217 -1.1886 -0.0385
17729TIP3    H274603   1.435   1.301   5.350  0.6673 -1.0343 -0.2283
17730TIP3   OH274604   5.724   0.895   3.734 -0.1658  0.4867 -0.6016
17730TIP3    H174605   5.680   0.832   3.677  1.1880  0.0634 -1.1980
17730TIP3    H274606   5.667   0.899   3.811  0.9011 -3.4127  0.6350
17731TIP3   OH274607   3.284   5.829  17.082 -0.3126  0.0136  0.4672
17731TIP3    H174608   3.272   5.798  17.172 -0.2673 -0.6177  0.2564
17731TIP3    H274609   3.370   5.873  17.084  0.9613 -2.3074  0.1317
17732TIP3   OH274610   1.879   6.636  13.671 -0.0917 -0.1786 -0.2534
17732TIP3    H174611   1.936   6.572  13.628  0.1214  0.7110 -1.3335
17732TIP3    H274612   1.810   6.652  13.606 -1.3779 -0.9350  0.8699
17733TIP3   OH274613   0.537   4.128   1.937  0.4987 -0.4509 -0.2871
17733TIP3    H174614   0.511   4.110   2.028 -0.1135  0.3173 -0.2961
17733TIP3    H274615   0.614   4.185   1.946  0.2619 -0.1335 -0.2423
17734TIP3   OH274616   2.714   0.370   6.047 -0.3926 -0.4150  0.7946
17734TIP3    H174617   2.756   0.344   5.965 -0.5684 -1.2772  0.9668
17734TIP3    H274618   2.762   0.322   6.115 -0.4190  0.0854  1.1674
17735TIP3   OH274619   0.722   1.925   0.266 -0.0341  0.1080 -0.2279
17735TIP3    H174620   0.726   1.987   0.193 -1.2210  0.0282 -0.3785
17735TIP3    H274621   0.715   1.980   0.344  0.8622  0.1864 -0.1934
17736TIP3   OH274622   5.441   4.451  10.871 -0.4182 -0.0999  0.2909
17736TIP3    H174623   5.391   4.529  10.847 -2.8727 -2.0520 -1.4788
17736TIP3    H274624   5.456   4.405  10.788 -0.5463 -2.3037  1.4060
17737TIP3   OH274625   1.644   1.116  16.563  0.1391  0.1757 -0.1409
17737TIP3    H174626   1.708   1.185  16.580 -1.2875  1.2267  1.2017
17737TIP3    H274627   1.695   1.046  16.521  2.3511  0.5874  1.6569
17738TIP3   OH274628   3.963   4.563   5.432  0.0200  0.3867  0.0832
17738TIP3    H174629   4.022   4.629   5.395  0.8287 -1.1931 -1.5582
17738TIP3    H274630   3.875   4.594   5.408  0.3296  1.3485  0.1570
17739TIP3   OH274631   2.076   5.516   2.685  0.2740  0.4789 -0.6888
17739TIP3    H174632   2.141   5.570   2.640  3.3431 -2.1694  0.2013
17739TIP3    H274633   2.049   5.451   2.620  0.8785 -0.2598 -0.2224
17740TIP3   OH274634   3.657   6.202  14.080  0.0614 -0.6599 -0.0050
17740TIP3    H174635   3.694   6.114  14.085 -0.7185 -0.9930 -0.0449
17740TIP3    H274636   3.717   6.256  14.132  0.8507 -1.1010 -0.4471
17741TIP3   OH274637   4.462   4.620  12.480  0.1216 -0.0004 -0.2887
17741TIP3    H174638   4.404   4.628  12.555 -0.0176  0.5751 -0.4511
17741TIP3    H274639   4.537   4.570  12.513  1.8618  3.3417  1.3500
17742TIP3   OH274640   4.391   5.838  13.348  0.0667  0.0595 -0.1099
17742TIP3    H174641   4.439   5.768  13.303 -1.7040 -0.5079 -1.2046
17742TIP3    H274642   4.365   5.898  13.278 -0.4414  0.5825  0.5163
17743TIP3   OH274643   2.243   4.563  12.114 -0.1382  0.1469 -0.3693
17743TIP3    H174644   2.243   4.613  12.196 -0.4166  0.5191 -0.5931
17743TIP3    H274645   2.257   4.629  12.046  2.8229 -0.4196 -0.4778
17744TIP3   OH274646   0.715   2.440   5.205 -0.7690  0.8912  0.3091
17744TIP3    H174647   0.750   2.525   5.232 -0.3744  0.6303  0.6277
17744TIP3    H274648   0.716   2.387   5.284 -2.6309  1.1085  0.5161
17745TIP3   OH274649   2.669   0.008   0.346  0.3633  0.0610 -0.2714
17745TIP3    H174650   2.722  -0.050   0.292  1.0051 -0.7956  1.2118
17745TIP3    H274651   2.730   0.077   0.374  0.3569 -0.1665  0.3211
17746TIP3   OH274652   2.714   5.737   3.178 -0.5239 -0.2192 -0.4118
17746TIP3    H174653   2.635   5.690   3.151  0.5115 -2.2825 -0.1092
17746TIP3    H274654   2.765   5.746   3.098 -0.8591  0.7001 -0.5259
17747TIP3   OH274655   3.919   1.899  13.973 -0.2331 -0.5021 -0.7348
17747TIP3    H174656   3.980   1.843  13.925 -0.6296 -1.4347 -0.1593
17747TIP3    H274657   3.927   1.984  13.929  1.5055 -0.5741 -0.6585
17748TIP3   OH274658   0.800   1.373  12.851 -0.6332  0.1031 -0.2209
17748TIP3    H174659   0.790   1.428  12.929  1.4517 -1.2474  1.1273
17748TIP3    H274660   0.895   1.368  12.839 -0.9031  0.7066 -3.2466
17749TIP3   OH274661   4.495   3.180  15.597  0.6176 -0.0311  0.1958
17749TIP3    H174662   4.563   3.198  15.531  2.3147 -2.0406  1.2661
17749TIP3    H274663   4.534   3.209  15.680 -0.1156 -0.6304  0.7586
17750TIP3   OH274664   5.339   1.132   0.493  0.3396  0.0822  0.1445
17750TIP3    H174665   5.343   1.177   0.577 -0.5903  1.6083 -0.5822
17750TIP3    H274666   5.410   1.170   0.442  0.3936 -0.2529 -0.0351
17751TIP3   OH274667   5.245   4.775   0.195 -0.4386 -0.3163  0.0685
17751TIP3    H174668   5.181   4.710   0.167 -1.5701  0.8167 -0.1159
17751TIP3    H274669   5.204   4.859   0.173  1.2002  0.4516 -0.2189
17752TIP3   OH274670   1.993   4.706   4.744 -0.2023  0.7920 -0.0104
17752TIP3    H174671   1.902   4.737   4.735 -0.2521  0.8639  0.6770
17752TIP3    H274672   1.997   4.670   4.832  0.0596 -0.5362 -0.5441
17753TIP3   OH274673   5.520   0.919   2.063  0.5849  0.1390  0.2638
17753TIP3    H174674   5.598   0.867   2.083  0.8501  0.0244 -1.0186
17753TIP3    H274675   5.529   0.998   2.117  0.3618 -0.9403  1.9561
17754TIP3   OH274676   5.112   5.310  14.034 -0.8466 -0.2966  0.3106
17754TIP3    H174677   5.048   5.242  14.055 -0.0425 -0.7523  1.4101
17754TIP3    H274678   5.197   5.271  14.056 -0.4151  1.2943  1.7456
17755TIP3   OH274679   6.278   5.891  12.142 -0.0137  0.2885 -0.6737
17755TIP3    H174680   6.255   5.926  12.056  1.8387  3.1132 -0.1704
17755TIP3    H274681   6.360   5.934  12.164 -0.8075  0.3274  2.8380
17756TIP3   OH274682   1.431   5.890   4.645 -0.6077  0.1516 -0.3800
17756TIP3    H174683   1.469   5.901   4.732 -1.0806  0.1670 -0.1717
17756TIP3    H274684   1.504   5.863   4.589 -0.4979 -0.8398  0.2237
17757TIP3   OH274685   3.153   4.695   5.291 -0.2737 -0.2888  0.0833
17757TIP3    H174686   3.185   4.783   5.270 -1.1233  0.2908  1.0724
17757TIP3    H274687   3.076   4.711   5.346 -2.1284 -1.6010 -1.9822
17758TIP3   OH274688   3.253   1.934  16.057 -0.0163  0.0194  0.0779
17758TIP3    H174689   3.295   2.003  16.006  0.8355  0.0557  0.8039
17758TIP3    H274690   3.269   1.854  16.007 -2.5909  0.5251 -1.7312
17759TIP3   OH274691   4.230   1.804  16.397 -0.2417  0.1271  0.4693
17759TIP3    H174692   4.225   1.792  16.302  1.4954 -0.9180  0.4795
17759TIP3    H274693   4.158   1.751  16.431  1.5720 -2.9088 -0.0825
17760TIP3   OH274694   2.761   3.939  14.925 -0.2748  0.2756  0.1677
17760TIP3    H174695   2.811   3.872  14.971 -0.6523 -0.7116 -0.8360
17760TIP3    H274696   2.807   4.021  14.945  0.8882 -0.4260  0.4205
17761TIP3   OH274697   2.322   2.625   6.272 -0.3842  0.5354  0.8013
17761TIP3    H174698   2.275   2.707   6.261 -0.4774  0.4209  0.3363
17761TIP3    H274699   2.415   2.650   6.275 -0.3258  0.5449 -0.5919
17762TIP3   OH274700   4.146   6.306  13.710  0.0128  0.6873  0.1606
17762TIP3    H174701   4.236   6.276  13.709 -0.3049 -0.4399 -2.6820
17762TIP3    H274702   4.152   6.401  13.701  0.9236  0.5187 -1.1474
17763TIP3   OH274703   0.649   5.726  13.700  0.4767  0.0800 -0.0533
17763TIP3    H174704   0.609   5.790  13.640  0.1352  0.6385  0.7458
17763TIP3    H274705   0.584   5.656  13.705  0.6797 -0.1556 -0.6330
17764TIP3   OH274706   4.951   1.570   2.277 -0.8483 -0.3002 -0.2780
17764TIP3    H174707   4.898   1.626   2.333  0.1355  0.4456 -0.0552
17764TIP3    H274708   4.924   1.481   2.299 -2.7630  0.0617 -0.9624
17765TIP3   OH274709   5.962   4.083  14.442  0.1155 -0.0585  0.0604
17765TIP3    H174710   5.968   4.057  14.350  0.8125  2.1919 -0.5828
17765TIP3    H274711   5.896   4.152  14.443  1.6337  1.4562  0.8363
17766TIP3   OH274712   2.659   2.889  15.630  0.0983  0.2001  0.3742
17766TIP3    H174713   2.621   2.936  15.704 -1.8876 -0.8445  0.0865
17766TIP3    H274714   2.610   2.921  15.554  0.1797 -0.7813 -0.1026
17767TIP3   OH274715   5.089   0.988  15.130  0.3009  0.3083 -0.5041
17767TIP3    H174716   5.028   1.041  15.078  0.0295 -0.6526 -1.2019
17767TIP3    H274717   5.118   1.047  15.200 -1.4259  0.8029 -0.1430
17768TIP3   OH274718   2.541   4.690   4.142  0.4514  0.7436  0.1502
17768TIP3    H174719   2.482   4.765   4.152 -0.7640  0.2251 -2.3767
17768TIP3    H274720   2.590   4.708   4.063 -0.2175 -1.2921 -0.8044
17769TIP3   OH274721   3.730   1.846  15.098 -0.6003 -0.2297 -0.2581
17769TIP3    H174722   3.819   1.823  15.126  0.2133  0.4295 -2.1210
17769TIP3    H274723   3.684   1.866  15.180  0.7910 -1.0966  0.7992
17770TIP3   OH274724   2.650   4.048   2.198 -0.6647  0.0613 -0.5068
17770TIP3    H174725   2.734   4.014   2.168 -0.9990 -0.5888 -0.7219
17770TIP3    H274726   2.665   4.142   2.210  0.0644 -0.0349 -0.6267
17771TIP3   OH274727   0.017   6.139   4.566 -0.3662  0.3370 -0.4716
17771TIP3    H174728  -0.000   6.233   4.575 -1.4165  0.2240 -1.1546
17771TIP3    H274729  -0.067   6.098   4.589  0.5082 -0.5306  1.3958
17772TIP3   OH274730   2.257   2.251  12.002 -0.8899 -0.4967  0.8086
17772TIP3    H174731   2.328   2.189  12.022 -0.8905 -0.2902  1.4634
17772TIP3    H274732   2.231   2.228  11.913 -0.4041 -0.9710  0.7784
17773TIP3   OH274733   1.039   0.941   0.122  0.1115  0.2534 -0.5245
17773TIP3    H174734   1.085   0.866   0.159  0.0988  0.4323 -0.1386
17773TIP3    H274735   0.998   0.908   0.042 -0.2575 -0.2563 -0.1285
17774TIP3   OH274736   3.177   3.854   1.802 -0.4390  0.5828  0.2431
17774TIP3    H174737   3.249   3.817   1.854 -0.0118  2.4670  1.1041
17774TIP3    H274738   3.172   3.798   1.725  0.8696 -0.5765  0.9457
17775TIP3   OH274739   1.926   2.177   4.399 -0.4989 -0.5413 -0.6167
17775TIP3    H174740   1.911   2.269   4.376  1.0358 -0.2646 -0.6027
17775TIP3    H274741   1.843   2.134   4.378 -1.0771  0.7506 -1.1136
17776TIP3   OH274742   4.577   0.593   3.432 -0.0466 -0.3544  0.3387
17776TIP3    H174743   4.644   0.545   3.382  0.0769 -1.7667  1.7817
17776TIP3    H274744   4.511   0.615   3.366  0.6524 -1.1310 -0.6703
17777TIP3   OH274745   3.614   1.139  11.400  0.1829 -0.7717 -0.0830
17777TIP3    H174746   3.677   1.093  11.344 -0.1552  1.4190 -2.4559
17777TIP3    H274747   3.663   1.214  11.434 -0.4584 -0.4254  0.0834
17778TIP3   OH274748   0.809   2.275   3.421  0.1085 -0.0236  0.0740
17778TIP3    H174749   0.719   2.308   3.426 -0.1794 -0.7069 -0.4233
17778TIP3    H274750   0.803   2.183   3.445  0.8201  0.1249  0.8797
17779TIP3   OH274751   3.794   2.342   0.266 -0.1321  0.0301  0.9082
17779TIP3    H174752   3.744   2.267   0.299 -0.7510  0.7224  1.5865
17779TIP3    H274753   3.739   2.418   0.285 -0.1581  0.5439 -1.0501
17780TIP3   OH274754   4.148   3.220   2.562  0.4972 -0.0315  0.2508
17780TIP3    H174755   4.123   3.286   2.627  0.5159  0.0187  0.2070
17780TIP3    H274756   4.203   3.267   2.499  0.5720 -0.1056  0.2600
17781TIP3   OH274757   6.227   1.487  16.058  0.0018  0.2621  0.4683
17781TIP3    H174758   6.318   1.483  16.028 -0.1068 -0.9711  0.2603
17781TIP3    H274759   6.231   1.454  16.148 -0.2373  0.2886  0.4893
17782TIP3   OH274760   5.411   0.497   3.217  0.2094 -0.5029 -0.2388
17782TIP3    H174761   5.325   0.534   3.237  2.0957  3.0074  2.3805
17782TIP3    H274762   5.417   0.419   3.272 -0.8941 -0.1716  0.3830
17783TIP3   OH274763   2.404   3.596   3.198 -0.0778  0.1723  0.1235
17783TIP3    H174764   2.437   3.666   3.253  0.6616 -0.0966  0.0329
17783TIP3    H274765   2.382   3.525   3.259 -1.2589  0.6275  0.2610
17784TIP3   OH274766   5.396   1.152   0.976  0.2654  0.1003 -0.5814
17784TIP3    H174767   5.383   1.209   1.052 -1.9956  0.6362 -1.2902
17784TIP3    H274768   5.485   1.171   0.946  0.4693  1.3638  0.7388
17785TIP3   OH274769   6.470   5.913   1.023 -0.3503  0.1368 -0.5090
17785TIP3    H174770   6.502   5.824   1.037 -0.8026 -0.0567 -0.6885
17785TIP3    H274771   6.445   5.944   1.110  1.7140  0.8508 -0.1113
17786TIP3   OH274772   6.320   2.599  11.761 -0.6541 -0.5903 -0.0226
17786TIP3    H174773   6.349   2.511  11.782 -0.6169 -0.2209  1.5580
17786TIP3    H274774   6.391   2.636  11.708  0.9513 -0.3615  2.1730
17787TIP3   OH274775   5.595   5.080   5.142 -0.0415 -0.0962 -0.0689
17787TIP3    H174776   5.598   5.081   5.237 -0.2197  0.6368 -0.0672
17787TIP3    H274777   5.565   4.992   5.119  0.7252 -0.5214  0.5276
17788TIP3   OH274778   5.690   3.207  12.411  0.3706 -0.3661  0.5363
17788TIP3    H174779   5.745   3.245  12.480 -2.7515  0.4443  2.7875
17788TIP3    H274780   5.621   3.272  12.397 -2.4167 -3.0625  0.9685
17789TIP3   OH274781   2.053   5.469   3.337 -0.0103 -0.0087 -0.3115
17789TIP3    H174782   2.115   5.525   3.290  1.6606 -0.9928  0.6392
17789TIP3    H274783   2.093   5.382   3.335 -0.9079 -0.4804  1.1381
17790TIP3   OH274784   4.396   0.821  15.480 -0.3116 -0.0063  0.0131
17790TIP3    H174785   4.412   0.901  15.532 -2.1827  0.7075 -0.4447
17790TIP3    H274786   4.320   0.781  15.520 -0.4311 -0.6408 -0.8289
17791TIP3   OH274787   4.932   2.974   2.981 -0.3279  0.0452 -0.0718
17791TIP3    H174788   5.017   3.016   2.994  0.7063 -1.8959 -0.1656
17791TIP3    H274789   4.922   2.916   3.057 -0.6849 -1.0907 -0.9484
17792TIP3   OH274790   4.704   0.676   1.224 -0.0068 -0.4555  0.3529
17792TIP3    H174791   4.627   0.620   1.233 -2.2684  1.6483 -3.3204
17792TIP3    H274792   4.774   0.617   1.194 -1.1257 -1.8643  0.4244
17793TIP3   OH274793   6.779   3.563  16.871  0.1579 -0.0041 -0.6193
17793TIP3    H174794   6.752   3.562  16.779  1.2542 -0.4402 -0.9604
17793TIP3    H274795   6.801   3.472  16.891  1.8967  0.3909 -0.5631
17794TIP3   OH274796   2.282   6.779  15.327 -0.5192 -0.5775  0.4713
17794TIP3    H174797   2.332   6.750  15.251  0.9445 -3.1924  2.2423
17794TIP3    H274798   2.246   6.698  15.364 -1.3733  0.6129  2.4266
17795TIP3   OH274799   6.489   0.382  15.451  0.5123  0.4296  0.5557
17795TIP3    H174800   6.529   0.418  15.371  1.5479  1.7764  1.6403
17795TIP3    H274801   6.396   0.375  15.429  0.9053 -0.2104 -1.1093
17796TIP3   OH274802   1.903   2.184  10.807  0.0423 -0.7134  0.1985
17796TIP3    H174803   1.808   2.192  10.804  0.1838  0.8201 -2.1753
17796TIP3    H274804   1.920   2.096  10.775 -0.5489 -0.3451 -1.2184
17797TIP3   OH274805   0.696   0.191  14.382  0.7054  0.0512 -0.6374
17797TIP3    H174806   0.682   0.105  14.423  2.2836  0.2508  0.3735
17797TIP3    H274807   0.626   0.246  14.419 -0.9819 -1.0105 -2.0916
17798TIP3   OH274808   0.948   1.481   3.250  0.0622  0.4019  0.1718
17798TIP3    H174809   0.871   1.499   3.196 -1.1048  0.2466  1.7253
17798TIP3    H274810   0.959   1.386   3.246 -0.8892  0.2238  1.2967
17799TIP3   OH274811   1.116   0.052   2.383  0.3138 -0.3578  0.2142
17799TIP3    H174812   1.190   0.096   2.341  0.9628 -0.9811  0.6920
17799TIP3    H274813   1.064   0.018   2.310  0.9642 -0.6784 -0.1017
17800TIP3   OH274814   2.072   0.698  12.953  0.0738 -0.3234 -0.3221
17800TIP3    H174815   2.028   0.633  12.899 -0.5489 -0.2121  0.0406
17800TIP3    H274816   2.024   0.779  12.936  1.7993  0.4218 -1.9729
17801TIP3   OH274817   3.159   0.068   5.853  0.2506  0.4556 -0.8347
17801TIP3    H174818   3.077   0.049   5.898  0.8600 -2.0507 -0.6192
17801TIP3    H274819   3.134   0.088   5.763 -0.5768 -1.0489 -0.9640
17802TIP3   OH274820   2.789   5.706  13.634  0.5840 -0.3494 -0.2018
17802TIP3    H174821   2.793   5.753  13.551  0.1565  1.0403  0.5378
17802TIP3    H274822   2.852   5.751  13.690 -1.0103  0.4480  1.0398
17803TIP3   OH274823   1.155   4.371  15.291  0.3323 -0.3343 -0.1031
17803TIP3    H174824   1.118   4.459  15.276  1.6639  0.7516  2.3826
17803TIP3    H274825   1.079   4.315  15.305 -0.5868  1.3720  2.5417
17804TIP3   OH274826   4.658   0.956  16.992  0.4122  0.0138 -0.4111
17804TIP3    H174827   4.676   0.936  16.901 -0.5037 -0.7709 -0.4312
17804TIP3    H274828   4.563   0.963  16.998  0.4318 -0.3281  0.5567
17805TIP3   OH274829   4.546   3.061   2.093  0.6324  0.1656 -0.0234
17805TIP3    H174830   4.595   2.991   2.052  1.7121 -0.4522  2.1898
17805TIP3    H274831   4.456   3.048   2.063  0.9476 -1.6972 -0.2588
17806TIP3   OH274832   3.100   3.445  11.256 -0.6130  0.3503  0.6468
17806TIP3    H174833   3.152   3.387  11.202 -1.3684 -0.9524  1.2643
17806TIP3    H274834   3.096   3.402  11.341  0.2155  2.1443  1.6619
17807TIP3   OH274835   0.624   0.937  13.988  0.0498  0.5812  0.4905
17807TIP3    H174836   0.602   1.027  13.961 -1.7786  0.6367  1.9218
17807TIP3    H274837   0.716   0.942  14.013 -0.0483  2.1317  0.7022
17808TIP3   OH274838   4.676   4.369  15.686 -0.0020 -0.0254  0.0798
17808TIP3    H174839   4.678   4.458  15.652 -0.4738 -0.7165 -1.8586
17808TIP3    H274840   4.590   4.360  15.726  0.0590  0.3919  0.3113
17809TIP3   OH274841   1.257   0.020  16.190 -0.5860  0.0971 -0.1100
17809TIP3    H174842   1.316   0.054  16.257  0.8229 -0.4348 -1.0352
17809TIP3    H274843   1.288   0.059  16.108 -1.4172 -0.3200 -0.6411
17810TIP3   OH274844   3.139   6.642   3.393 -0.0352  0.6360  0.2745
17810TIP3    H174845   3.074   6.622   3.325  0.7453 -0.1598 -0.2580
17810TIP3    H274846   3.158   6.558   3.434  0.8786  0.8064  0.2276
17811TIP3   OH274847   0.598   4.655   4.908  0.4283  0.2404  0.5815
17811TIP3    H174848   0.610   4.745   4.941  1.1904  0.1782  0.4986
17811TIP3    H274849   0.504   4.639   4.917  0.4424  0.6297  1.6786
17812TIP3   OH274850   2.213   0.275  13.838 -0.3994 -0.4520  0.2018
17812TIP3    H174851   2.296   0.233  13.816  0.5619  0.6292  1.5928
17812TIP3    H274852   2.183   0.228  13.916 -0.4529 -0.0358  0.4351
17813TIP3   OH274853   5.450   1.344   0.650 -0.5188 -0.5838 -0.0297
17813TIP3    H174854   5.393   1.410   0.689 -2.8278 -1.4239 -1.7773
17813TIP3    H274855   5.490   1.387   0.574 -0.3631 -0.5773  0.0551
17814TIP3   OH274856   6.242   3.855  14.197  0.1852  0.1100 -0.3388
17814TIP3    H174857   6.331   3.891  14.201  0.9408 -1.3802 -2.1335
17814TIP3    H274858   6.252   3.763  14.221 -0.7375 -0.2475 -1.2315
17815TIP3   OH274859   1.600   3.632  15.714  0.3261  0.6887  0.2094
17815TIP3    H174860   1.625   3.589  15.796  0.0341  1.3925  0.6828
17815TIP3    H274861   1.682   3.650  15.670  0.4841  0.2516  0.3182
17816TIP3   OH274862   1.328   1.381   3.014  0.2465  0.0447 -0.3689
17816TIP3    H174863   1.277   1.315   3.062  0.9753  0.5879  1.2352
17816TIP3    H274864   1.288   1.464   3.038  2.0523  0.5180  1.2614
17817TIP3   OH274865   5.628   4.938  15.491 -0.2481  0.6287  0.0855
17817TIP3    H174866   5.557   4.913  15.431  1.8717 -1.5681 -1.7301
17817TIP3    H274867   5.627   4.871  15.558 -0.0684  0.7797  0.2388
17818TIP3   OH274868   0.883   0.841  12.392 -0.0362  0.3190  0.1563
17818TIP3    H174869   0.959   0.798  12.353 -0.2465 -0.3133  0.4375
17818TIP3    H274870   0.836   0.771  12.437  0.9194  1.2176  2.7423
17819TIP3   OH274871   2.636   1.333  12.686  0.6305  0.0217 -0.2998
17819TIP3    H174872   2.574   1.331  12.612 -0.3938 -1.2377  0.5486
17819TIP3    H274873   2.626   1.421  12.722 -1.0792 -0.2993  0.1192
17820TIP3   OH274874   2.782   4.313   6.169  0.0509  0.7527 -0.0558
17820TIP3    H174875   2.864   4.362   6.177 -0.3437  1.4482 -0.1313
17820TIP3    H274876   2.746   4.313   6.258 -0.8809  2.3020 -0.3848
17821TIP3   OH274877   0.799   3.771  16.593 -0.8889  0.4995 -0.1604
17821TIP3    H174878   0.718   3.765  16.645 -0.2350  0.2474  0.8584
17821TIP3    H274879   0.831   3.681  16.589 -0.7829  0.5653 -0.7653
17822TIP3   OH274880   4.982   2.945   1.125  0.1339 -0.5348 -0.5501
17822TIP3    H174881   5.002   3.039   1.127 -0.6969 -0.3747  0.4244
17822TIP3    H274882   4.927   2.934   1.047  0.1325 -0.2060 -0.5972
17823TIP3   OH274883   1.377   0.922  13.425  0.6411  0.2086 -0.7987
17823TIP3    H174884   1.384   0.833  13.391  1.4022  1.0974 -3.2077
17823TIP3    H274885   1.459   0.964  13.399  0.2139  1.6798  0.0948
17824TIP3   OH274886   6.407   3.439  11.590  0.3386 -0.3986  0.7013
17824TIP3    H174887   6.368   3.458  11.505  1.5871 -0.7287  0.0443
17824TIP3    H274888   6.475   3.505  11.601 -0.5748  0.3698  1.9844
17825TIP3   OH274889   1.627   6.605   0.927 -0.1752 -0.1314  0.0931
17825TIP3    H174890   1.548   6.571   0.968 -1.9538  2.6187 -0.7508
17825TIP3    H274891   1.629   6.564   0.840  1.2772 -2.7143  1.2177
17826TIP3   OH274892   1.663   3.373   0.017  0.8033 -0.6529  0.8453
17826TIP3    H174893   1.675   3.468   0.029 -0.1880 -0.3415 -0.3911
17826TIP3    H274894   1.616   3.366  -0.066  1.3325 -2.2718  0.6620
17827TIP3   OH274895   1.194   0.079  12.167  0.0125  0.0581  0.4999
17827TIP3    H174896   1.281   0.063  12.129  0.9717 -1.1562  2.9708
17827TIP3    H274897   1.192   0.173  12.184  1.8693 -0.1785  2.4991
17828TIP3   OH274898   2.385   5.401   3.363  0.2060 -0.1978 -0.2241
17828TIP3    H174899   2.315   5.342   3.336  1.2449 -1.4659 -0.2869
17828TIP3    H274900   2.416   5.441   3.282 -0.0750 -0.0654 -0.2647
17829TIP3   OH274901   1.320   5.480  11.654  0.1716 -0.3444 -0.8033
17829TIP3    H174902   1.403   5.453  11.694 -0.7087 -0.8236  0.8058
17829TIP3    H274903   1.345   5.544  11.587  1.9336 -1.5652 -1.3746
17830TIP3   OH274904   6.738   6.338  15.088  0.3481  0.2618  0.0623
17830TIP3    H174905   6.722   6.296  15.173 -0.1407  1.4298  0.5663
17830TIP3    H274906   6.695   6.281  15.025  1.1567 -0.9028  0.5189
17831TIP3   OH274907   6.761   2.692  13.906  0.0384  0.2141 -0.0199
17831TIP3    H174908   6.764   2.639  13.826 -0.1556  0.1440  0.0213
17831TIP3    H274909   6.838   2.664  13.955 -0.5818 -0.7235  0.4439
17832TIP3   OH274910   6.752   6.229   0.804 -0.2744  0.3258  0.5057
17832TIP3    H174911   6.703   6.284   0.744  0.2158 -1.0916 -1.2720
17832TIP3    H274912   6.712   6.143   0.796  0.5772 -0.1687  1.3175
17833TIP3   OH274913   3.170   5.989  11.815 -0.0158 -0.1953  0.0332
17833TIP3    H174914   3.217   5.937  11.880 -0.8001  1.1398  1.7423
17833TIP3    H274915   3.080   5.956  11.818 -0.3706  0.7899  0.6632
17834TIP3   OH274916   4.948   3.121   1.850 -0.4176  0.0003  0.1864
17834TIP3    H174917   5.004   3.136   1.926 -0.9976 -0.2200  0.6622
17834TIP3    H274918   5.009   3.098   1.780  0.0762 -0.5401  0.7789
17835TIP3   OH274919   4.180   0.913  17.233  0.0570  0.6495  0.3520
17835TIP3    H174920   4.215   0.826  17.252  3.1600  1.5084 -0.8110
17835TIP3    H274921   4.193   0.962  17.314 -0.2907  0.4431  0.5357
17836TIP3   OH274922   1.576   5.030  17.159 -0.1149  0.1594  0.3335
17836TIP3    H174923   1.557   4.938  17.176 -2.1593  0.6575  1.1092
17836TIP3    H274924   1.639   5.029  17.088 -1.2572 -1.8422 -0.7502
17837TIP3   OH274925   3.086   4.850  11.485 -0.5168  0.2453 -0.3378
17837TIP3    H174926   3.142   4.928  11.483 -1.6104  1.0826  0.1728
17837TIP3    H274927   3.103   4.806  11.402  1.3279  0.1289  0.0400
17838TIP3   OH274928   6.614   1.405  14.819  0.1669 -0.0634  0.1396
17838TIP3    H174929   6.698   1.365  14.798  0.3379  0.5222 -0.3383
17838TIP3    H274930   6.611   1.484  14.764 -0.1151  0.6267  1.1207
17839TIP3   OH274931   2.528   6.212  15.708 -0.0847 -0.3971 -0.2230
17839TIP3    H174932   2.605   6.168  15.744  0.8603  0.8039 -0.7072
17839TIP3    H274933   2.504   6.276  15.775 -1.8506 -2.0042  0.7723
17840TIP3   OH274934   0.071   0.910   2.644 -0.1324 -0.7004 -0.0442
17840TIP3    H174935   0.067   0.820   2.612 -0.2900 -0.1193 -1.7914
17840TIP3    H274936   0.163   0.924   2.665 -0.1650 -1.3638  0.5565
17841TIP3   OH274937   5.341   0.145   4.116  0.3991  0.1521 -0.1714
17841TIP3    H174938   5.425   0.108   4.090  1.4530  0.1165  2.8870
17841TIP3    H274939   5.287   0.142   4.036  2.4719 -2.0769 -1.6136
17842TIP3   OH274940   0.930   6.071  15.558 -0.0029 -0.4232  0.1581
17842TIP3    H174941   0.879   6.010  15.505 -1.0098 -0.5541  1.2152
17842TIP3    H274942   0.966   6.018  15.629  0.8989 -0.1682 -0.1015
17843TIP3   OH274943   0.153   0.676  13.599  0.4111 -0.6814 -0.4970
17843TIP3    H174944   0.084   0.734  13.567  0.3374 -1.3318 -1.5942
17843TIP3    H274945   0.114   0.588  13.595  0.2766 -0.7758  1.8113
17844TIP3   OH274946   3.656   3.306  14.571 -0.2863 -0.3542 -0.8942
17844TIP3    H174947   3.730   3.245  14.567  1.1184  1.1864  0.0443
17844TIP3    H274948   3.624   3.311  14.481  2.8093  1.2746 -2.0676
17845TIP3   OH274949   2.411   3.743   5.610 -0.6980  0.0320 -0.6077
17845TIP3    H174950   2.354   3.709   5.679 -0.9342  0.4467 -0.5924
17845TIP3    H274951   2.354   3.751   5.534 -0.7265  0.6934 -0.5225
17846TIP3   OH274952   3.720   6.638   0.228 -0.6023  0.0190  0.0560
17846TIP3    H174953   3.741   6.546   0.212  0.4619  0.3206 -0.3427
17846TIP3    H274954   3.805   6.683   0.225 -1.0490  0.9419  0.7542
17847TIP3   OH274955   0.496   6.496   2.778  0.1947  0.0714  0.0457
17847TIP3    H174956   0.555   6.456   2.714  1.0171  0.1429  0.7460
17847TIP3    H274957   0.409   6.466   2.752  0.7557 -1.9866  0.3851
17848TIP3   OH274958   0.550   4.800   1.119  0.0853  0.3293  0.2331
17848TIP3    H174959   0.554   4.725   1.058  1.8227  1.9087 -1.7586
17848TIP3    H274960   0.489   4.861   1.078 -1.0547  0.2183  1.6753
17849TIP3   OH274961   5.316   2.208   4.253  0.4318  0.4323  0.2512
17849TIP3    H174962   5.257   2.165   4.192  0.0828  0.6260  0.4488
17849TIP3    H274963   5.307   2.158   4.335  1.8693 -0.6337 -0.2054
17850TIP3   OH274964   5.801   0.460  15.822 -0.4475  0.1522  1.4159
17850TIP3    H174965   5.861   0.534  15.819  0.1335 -0.3241 -0.9398
17850TIP3    H274966   5.824   0.414  15.903  1.3215  0.8451  1.3552
17851TIP3   OH274967   0.048   4.412   1.718  0.1878 -0.0639  0.4424
17851TIP3    H174968  -0.035   4.458   1.703  0.3781  0.6219  1.3599
17851TIP3    H274969   0.046   4.389   1.811  0.9732 -0.1365  0.4526
17852TIP3   OH274970   1.571   0.518  12.302 -0.1693  0.7309 -0.1654
17852TIP3    H174971   1.558   0.424  12.288  1.2496  0.7442 -1.9829
17852TIP3    H274972   1.492   0.546  12.347 -1.0973 -1.1528 -0.4851
17853TIP3   OH274973   2.523   3.193   0.385 -0.6621 -0.4404  0.4745
17853TIP3    H174974   2.547   3.249   0.459 -1.0776 -1.2755  1.2663
17853TIP3    H274975   2.455   3.135   0.421 -0.7674 -0.9485 -0.5294
17854TIP3   OH274976   0.778   2.046   5.214 -0.6158  0.1063  0.3159
17854TIP3    H174977   0.829   2.120   5.182  0.3101 -0.2563  0.8735
17854TIP3    H274978   0.828   2.015   5.291 -1.9409  0.0170  1.1669
17855TIP3   OH274979   3.771   4.549   4.598  0.0539  0.1180 -0.3562
17855TIP3    H174980   3.695   4.553   4.656  1.3082 -0.8158  1.4669
17855TIP3    H274981   3.750   4.482   4.534  0.4137 -2.2953  1.9156
17856TIP3   OH274982   6.100   1.804  13.599  0.2292  0.6872  0.4273
17856TIP3    H174983   6.078   1.769  13.685  0.3364  0.8684  0.5270
17856TIP3    H274984   6.117   1.897  13.613  0.2293  0.7218  0.2084
17857TIP3   OH274985   4.383   4.098  11.339  0.4954  0.5247 -0.3479
17857TIP3    H174986   4.420   4.179  11.374  0.8444  0.0897  0.2921
17857TIP3    H274987   4.293   4.122  11.316  0.0941  0.7146  1.2939
17858TIP3   OH274988   1.774   4.968  17.006 -0.2612 -0.0473 -0.2247
17858TIP3    H174989   1.795   4.896  16.946 -1.1044 -0.0671 -0.5131
17858TIP3    H274990   1.848   5.027  16.999  0.5698 -0.9981  0.2049
17859TIP3   OH274991   1.412   4.919   6.399  0.3258 -0.7463 -0.2713
17859TIP3    H174992   1.473   4.849   6.378 -0.8083 -2.0113  0.4452
17859TIP3    H274993   1.424   4.984   6.330  3.0814 -0.4914  0.3490
17860TIP3   OH274994   4.040   6.103  10.627  0.3552  0.7006  0.1551
17860TIP3    H174995   4.017   6.014  10.598  0.8971 -0.1433  2.1496
17860TIP3    H274996   3.960   6.135  10.668  0.3547  0.9076 -0.0053
17861TIP3   OH274997   1.776   2.505  14.636  0.4405  0.0099 -0.1520
17861TIP3    H174998   1.865   2.476  14.617  0.1245  0.7903 -3.3785
17861TIP3    H274999   1.728   2.489  14.555 -1.4497  2.9121  0.2565
17862TIP3   OH275000   0.674   1.374   0.882 -0.5111 -0.4872 -0.1897
17862TIP3    H175001   0.720   1.334   0.808  1.4206  0.4800  0.4341
17862TIP3    H275002   0.722   1.455   0.900 -3.0014  1.0652 -0.0373
17863TIP3   OH275003   1.452   6.587   4.230  0.0812 -0.1722 -0.0221
17863TIP3    H175004   1.473   6.675   4.263 -2.2143  0.0367  1.1078
17863TIP3    H275005   1.505   6.528   4.283  1.0511  0.4703 -0.2409
17864TIP3   OH275006   3.181   4.842   4.672 -0.0797  0.0591  0.3065
17864TIP3    H175007   3.132   4.793   4.738  0.8334  0.3090  1.2104
17864TIP3    H275008   3.161   4.934   4.691 -0.2432  0.1090 -0.1135
17865TIP3   OH275009   0.258   3.217  12.913  0.5764 -0.3433  0.1040
17865TIP3    H175010   0.225   3.134  12.946  2.3966  0.0745  3.4970
17865TIP3    H275011   0.213   3.283  12.966  2.3078  0.5076  0.5941
17866TIP3   OH275012   3.240   0.090   0.683 -0.0325  0.5322  0.2257
17866TIP3    H175013   3.209   0.068   0.771  0.5482  0.1713  0.3481
17866TIP3    H275014   3.221   0.013   0.630 -2.0640  1.4180 -0.4335
17867TIP3   OH275015   4.574   1.069   2.485 -0.4853 -0.0029  0.0722
17867TIP3    H175016   4.509   1.067   2.415 -1.8409  0.1793  1.2733
17867TIP3    H275017   4.550   0.995   2.541  0.6064 -0.1768  0.3289
17868TIP3   OH275018   1.043   5.466   2.637 -0.0190  0.5239 -1.0969
17868TIP3    H175019   1.113   5.529   2.654 -2.2207  3.3037 -1.6023
17868TIP3    H275020   0.975   5.488   2.701 -1.8400  0.3262 -2.8601
17869TIP3   OH275021   6.730   6.434  14.236  0.0951 -0.1560 -0.3177
17869TIP3    H175022   6.803   6.374  14.220 -1.1859 -1.5554 -1.1384
17869TIP3    H275023   6.717   6.479  14.153  1.9444  2.4094  0.6525
17870TIP3   OH275024   4.867   6.363   2.057 -0.1061 -0.3467 -0.2976
17870TIP3    H175025   4.836   6.385   2.145  1.5883  0.3970  0.1509
17870TIP3    H275026   4.956   6.398   2.053 -1.0114  1.9772 -3.2396
17871TIP3   OH275027   3.974   4.422   4.204 -0.1893 -0.0212  0.2702
17871TIP3    H175028   4.005   4.411   4.114  0.0285 -0.8432  0.4433
17871TIP3    H275029   4.015   4.351   4.253  1.3838  1.6078  1.4735
17872TIP3   OH275030   4.894   0.508  11.538 -0.0369 -0.3988  0.1573
17872TIP3    H175031   4.925   0.441  11.477 -1.8413 -0.9676 -0.1892
17872TIP3    H275032   4.808   0.477  11.566 -0.4840  1.2936  0.7638
17873TIP3   OH275033   6.194   1.769  16.989  0.6595 -0.2646 -0.3433
17873TIP3    H175034   6.287   1.746  16.992  0.3740 -1.3199  1.5763
17873TIP3    H275035   6.159   1.739  17.072 -1.5211 -0.3222 -1.2190
17874TIP3   OH275036   5.885   4.053  14.708  0.9350  0.0920 -0.2231
17874TIP3    H175037   5.928   3.972  14.736  0.1776 -0.0754  0.4871
17874TIP3    H275038   5.911   4.063  14.616  0.9075 -1.0435 -0.3725
17875TIP3   OH275039   1.462   1.091   6.802 -0.2686 -0.2612 -0.0675
17875TIP3    H175040   1.455   1.000   6.831  0.5432 -0.6819 -1.1192
17875TIP3    H275041   1.373   1.115   6.777 -0.6062 -0.5426  0.8418
17876TIP3   OH275042   1.282   3.761   3.210  0.3489 -0.4996 -0.9522
17876TIP3    H175043   1.357   3.737   3.264  1.5296  0.8716 -1.9095
17876TIP3    H275044   1.217   3.692   3.227  0.0374  0.5369  3.2901
17877TIP3   OH275045   2.052   3.815   3.800  0.0908  0.2756  0.4763
17877TIP3    H175046   2.078   3.893   3.752  0.4503  1.2681  2.2186
17877TIP3    H275047   2.019   3.755   3.732  0.9638  1.4320 -1.0280
17878TIP3   OH275048   3.954   5.277  17.070  0.3737 -0.4694 -0.1149
17878TIP3    H175049   3.900   5.345  17.031  0.2906 -1.5364 -1.9669
17878TIP3    H275050   3.961   5.302  17.162 -1.6733  0.7386 -0.2177
17879TIP3   OH275051   5.701   4.578   2.043  0.0974 -0.0137 -0.1159
17879TIP3    H175052   5.768   4.595   1.978 -1.5096  0.9635 -1.5912
17879TIP3    H275053   5.747   4.584   2.127  1.6242  1.7988 -1.0064
17880TIP3   OH275054   2.479   0.560   0.482 -0.4609  0.0738 -0.6025
17880TIP3    H175055   2.497   0.651   0.457  0.9156 -0.1397 -0.4725
17880TIP3    H275056   2.560   0.514   0.464 -0.9496 -1.0174 -0.0931
17881TIP3   OH275057   0.381   0.186   2.554  0.0350 -0.4519 -0.0256
17881TIP3    H175058   0.414   0.275   2.550 -1.8279  0.3005  0.3137
17881TIP3    H275059   0.460   0.131   2.556  1.2117  1.1568 -0.3754
17882TIP3   OH275060   6.218   2.121   2.345 -0.3018  0.2470 -0.4750
17882TIP3    H175061   6.204   2.026   2.337  0.3367  0.0350  0.6734
17882TIP3    H275062   6.132   2.156   2.369 -0.4294 -0.1066 -0.4076
17883TIP3   OH275063   5.429   2.449  15.181  0.0599  0.4450 -0.0114
17883TIP3    H175064   5.375   2.388  15.232 -1.1131  2.6497  1.5503
17883TIP3    H275065   5.418   2.420  15.090 -0.8127 -1.3650  0.6231
17884TIP3   OH275066   2.761   2.644  15.593  0.1145 -0.3249 -0.3206
17884TIP3    H175067   2.750   2.735  15.621 -0.5483 -0.2163 -0.9052
17884TIP3    H275068   2.685   2.599  15.629 -0.5272 -0.2674 -1.5350
17885TIP3   OH275069   3.711   0.994  16.612  0.0166 -0.3866 -0.7532
17885TIP3    H175070   3.785   0.980  16.671 -0.3101 -0.5670 -0.3861
17885TIP3    H275071   3.683   0.905  16.587 -0.1964 -0.3223 -0.7434
17886TIP3   OH275072   0.236   5.902  12.592  0.0656 -0.3537  0.1995
17886TIP3    H175073   0.262   5.826  12.540  0.6831 -0.1549  0.2190
17886TIP3    H275074   0.238   5.871  12.682 -0.9193 -0.6728  0.1307
17887TIP3   OH275075   4.729   3.044  16.296  0.0386  0.0813 -0.3191
17887TIP3    H175076   4.810   3.074  16.254  0.6315 -0.6278  0.2911
17887TIP3    H275077   4.693   3.123  16.337  0.2576  0.4627 -0.8474
17888TIP3   OH275078   3.607   3.908   2.047 -0.1996 -0.0002  0.0131
17888TIP3    H175079   3.594   3.959   1.967  0.2223  0.3286  0.1511
17888TIP3    H275080   3.542   3.838   2.041  2.7645 -2.8355 -2.9123
17889TIP3   OH275081   5.092   4.826   4.147  0.2360 -0.5220 -0.1315
17889TIP3    H175082   5.046   4.905   4.118 -0.5983 -0.9496 -0.0085
17889TIP3    H275083   5.167   4.859   4.195  1.0066  0.2023 -1.7425
17890TIP3   OH275084   1.098   3.987  14.091  0.1185  0.2641  0.1130
17890TIP3    H175085   1.119   3.961  14.001  0.4344  0.6042  0.0852
17890TIP3    H275086   1.018   4.039  14.083  0.8707  1.4301 -0.1479
17891TIP3   OH275087   5.868   6.670   5.406 -0.4570 -0.0875 -0.3175
17891TIP3    H175088   5.885   6.580   5.436 -0.4508 -0.2571 -0.8099
17891TIP3    H275089   5.941   6.721   5.441 -0.9437 -0.0892  0.7488
17892TIP3   OH275090   5.131   3.849  11.999 -0.2667  0.0338 -0.8304
17892TIP3    H175091   5.190   3.921  11.978  2.5868 -1.5059  1.1923
17892TIP3    H275092   5.119   3.856  12.094 -1.8123 -0.8605 -0.9340
17893TIP3   OH275093   5.044   1.730   1.358  0.1604 -0.2776 -0.0962
17893TIP3    H175094   4.953   1.758   1.368  0.4711  0.6696  0.1912
17893TIP3    H275095   5.065   1.687   1.441 -0.5396 -2.0793 -0.8053
17894TIP3   OH275096   4.441   2.524  12.096  0.5076 -0.2604  0.0704
17894TIP3    H175097   4.368   2.467  12.119 -0.5455  0.6006 -1.0286
17894TIP3    H275098   4.408   2.578  12.024  2.1634  0.2908 -0.3213
17895TIP3   OH275099   3.099   6.555  13.127  0.1667  0.5380 -0.2875
17895TIP3    H175100   3.159   6.629  13.129  1.0260 -0.1484  0.3066
17895TIP3    H275101   3.016   6.592  13.097  1.0138  1.4034 -1.7079
17896TIP3   OH275102   6.463   6.332   0.257 -0.1051  0.0876  0.1068
17896TIP3    H175103   6.406   6.375   0.194  0.1974 -1.4697 -1.3137
17896TIP3    H275104   6.484   6.400   0.321 -1.2542  1.4513 -0.8984
17897TIP3   OH275105   5.907   6.032   4.350 -0.0047  0.1393 -0.0742
17897TIP3    H175106   5.859   6.027   4.432  1.0157 -0.6721  0.4925
17897TIP3    H275107   5.912   6.126   4.331  0.5513  0.4090  1.2950
17898TIP3   OH275108   2.537   1.752  14.883 -0.2603  0.6180 -0.3303
17898TIP3    H175109   2.611   1.749  14.823  0.8613  1.9310  0.9025
17898TIP3    H275110   2.565   1.699  14.958 -1.3636 -0.4485 -0.6477
17899TIP3   OH275111   1.419   3.703  10.945  0.4111  0.6276 -0.6741
17899TIP3    H175112   1.378   3.780  10.906  1.2858  0.3780 -2.2072
17899TIP3    H275113   1.419   3.720  11.039 -1.3119  1.5310 -0.8015
17900TIP3   OH275114   5.439   0.692   2.602  0.3166 -0.0833 -0.0315
17900TIP3    H175115   5.494   0.770   2.603 -0.1472  0.2490  0.2978
17900TIP3    H275116   5.464   0.645   2.522  1.2700 -0.0884  0.2647
17901TIP3   OH275117   2.273   6.404   5.730  0.1637 -0.5292 -0.2308
17901TIP3    H175118   2.258   6.481   5.675 -1.3311 -1.0955 -0.6846
17901TIP3    H275119   2.241   6.430   5.817  0.1725 -0.4596 -0.2485
17902TIP3   OH275120   5.573   5.379   6.920  0.3655 -0.1349  0.0989
17902TIP3    H175121   5.668   5.371   6.928  0.4091  1.1050  1.4004
17902TIP3    H275122   5.538   5.321   6.988  0.3145  1.1935  1.2698
17903TIP3   OH275123   4.044   4.718   6.290 -0.3616 -0.0358 -0.0020
17903TIP3    H175124   4.015   4.795   6.242 -0.7064  0.4789  0.9948
17903TIP3    H275125   3.965   4.665   6.300 -0.5817  0.4633  1.0649
17904TIP3   OH275126   3.927   0.054   4.836  0.2159 -0.0100  0.3889
17904TIP3    H175127   3.852   0.085   4.786 -0.7838 -1.7856  0.6815
17904TIP3    H275128   3.936  -0.039   4.811  0.9235 -0.4115  1.9959
17905TIP3   OH275129   2.610   4.825   5.406 -0.8285  0.4106 -0.2041
17905TIP3    H175130   2.577   4.911   5.431  2.8662  1.9674 -0.0429
17905TIP3    H275131   2.644   4.788   5.487 -1.4949 -0.7875 -0.4543
17906TIP3   OH275132   2.540   4.938   6.639  0.4265 -0.1949 -0.0002
17906TIP3    H175133   2.603   5.005   6.663 -1.2369  2.1431 -1.7428
17906TIP3    H275134   2.456   4.984   6.636 -0.7139 -2.2178 -1.8285
17907TIP3   OH275135   4.160   0.693   5.253 -0.8472 -0.2711 -0.7224
17907TIP3    H175136   4.232   0.756   5.249 -0.3976 -0.8239 -2.0578
17907TIP3    H275137   4.101   0.728   5.320  0.8469 -0.0203  0.7230
17908TIP3   OH275138   1.178   2.779   3.744 -0.0805 -0.2789  0.5588
17908TIP3    H175139   1.160   2.785   3.650 -1.6197  0.3418  0.8596
17908TIP3    H275140   1.244   2.846   3.761 -0.2225 -0.0023  0.0181
17909TIP3   OH275141   5.069   4.727  16.225 -0.0463  0.7683 -0.2343
17909TIP3    H175142   5.033   4.643  16.251  1.5203  0.7537  2.2625
17909TIP3    H275143   5.013   4.792  16.269  0.0982  0.9165 -0.2654
17910TIP3   OH275144   5.961   1.437   4.304  0.0078  0.2357  0.0500
17910TIP3    H175145   5.971   1.374   4.375 -1.2484  0.0284  0.0701
17910TIP3    H275146   5.897   1.501   4.337 -0.0435  0.5423 -0.6213
17911TIP3   OH275147   3.210   3.100  12.329 -0.1574 -0.1561  0.3323
17911TIP3    H175148   3.142   3.153  12.372 -0.0941  0.2503 -0.0644
17911TIP3    H275149   3.174   3.012  12.328 -0.6250  0.0314  0.2482
17912TIP3   OH275150   2.828   1.526  16.812 -0.6829  0.4602  0.3073
17912TIP3    H175151   2.777   1.601  16.842 -1.5718  0.0641 -0.1700
17912TIP3    H275152   2.916   1.540  16.848 -0.6386  2.0953 -0.3515
17913TIP3   OH275153   4.132   6.494   2.145  0.0285 -0.0392 -0.5919
17913TIP3    H175154   4.175   6.468   2.227  1.7896 -0.6269 -1.6519
17913TIP3    H275155   4.095   6.414   2.110 -1.1142  0.2902 -0.1881
17914TIP3   OH275156   5.913   2.965  16.959 -0.4287  0.0747  0.6290
17914TIP3    H175157   5.831   2.921  16.983 -0.1720 -1.4773 -1.1662
17914TIP3    H275158   5.925   2.946  16.866  1.6335  0.8642  0.6779
17915TIP3   OH275159   6.383   2.714  15.809 -0.0180 -0.3129 -0.1916
17915TIP3    H175160   6.450   2.772  15.772  0.1318 -0.0672  0.4554
17915TIP3    H275161   6.324   2.772  15.856  0.4055 -0.7177  0.8714
17916TIP3   OH275162   0.481   3.048  13.157 -0.3516 -0.5198 -0.2550
17916TIP3    H175163   0.430   3.117  13.200  0.1169 -0.0620 -0.4259
17916TIP3    H275164   0.556   3.034  13.215  0.0009 -0.2812 -0.6484
17917TIP3   OH275165   6.057   4.262  14.156  0.0933 -0.6128 -0.3479
17917TIP3    H175166   5.984   4.320  14.180 -0.5294 -1.9360  1.1106
17917TIP3    H275167   6.128   4.287  14.216 -0.2373 -1.4520  0.4093
17918TIP3   OH275168   0.927   4.916   6.102  0.2859  0.1642 -0.1934
17918TIP3    H175169   0.980   4.838   6.083 -0.9880 -0.9835  0.7093
17918TIP3    H275170   0.853   4.909   6.041  0.0893  0.5909 -0.0028
17919TIP3   OH275171   3.417   6.620  13.080  0.1724 -0.1269 -0.0910
17919TIP3    H175172   3.511   6.603  13.068  0.2755 -0.9693  1.6131
17919TIP3    H275173   3.374   6.557  13.022  0.6541 -0.3796 -0.1767
17920TIP3   OH275174   0.658   6.714  14.460 -0.2369  0.2870  0.1382
17920TIP3    H175175   0.712   6.713  14.539  0.1878 -1.5563 -0.1100
17920TIP3    H275176   0.569   6.727  14.492 -0.0216 -0.0305  0.8969
17921TIP3   OH275177   5.625   2.922  16.629 -0.2155  0.7130 -0.1354
17921TIP3    H175178   5.561   2.857  16.599  0.2434  0.1973 -0.0220
17921TIP3    H275179   5.629   2.908  16.724  1.3670 -0.4896 -0.3428
17922TIP3   OH275180   2.742   0.395  10.367 -0.4815  0.5270 -0.0685
17922TIP3    H175181   2.833   0.425  10.369 -0.2872 -0.0306 -0.5691
17922TIP3    H275182   2.702   0.444  10.295  0.0353 -0.9374 -1.4066
17923TIP3   OH275183   3.145   3.884  16.728  0.3493 -0.0345 -0.1998
17923TIP3    H175184   3.133   3.869  16.822  1.6325 -0.8525 -0.1327
17923TIP3    H275185   3.137   3.797  16.689  1.6904 -0.0110 -0.5908
17924TIP3   OH275186   0.541   3.810  14.711 -0.0342  0.1459 -0.5530
17924TIP3    H175187   0.585   3.726  14.720 -1.4636 -0.4845  1.1932
17924TIP3    H275188   0.465   3.804  14.768 -2.0278  1.4440 -2.8610
17925TIP3   OH275189   1.562   5.345  11.220 -0.2406 -0.4628 -0.3005
17925TIP3    H175190   1.596   5.288  11.289  3.8389  0.7268 -1.0027
17925TIP3    H275191   1.568   5.433  11.258 -2.4352 -0.1267 -0.6441
17926TIP3   OH275192   3.817   5.317  12.104 -0.2081  0.3122 -0.0457
17926TIP3    H175193   3.842   5.225  12.112 -2.0453 -0.0594  2.8512
17926TIP3    H275194   3.783   5.325  12.015 -0.4599 -1.9541 -0.2147
17927TIP3   OH275195   2.466   3.775  12.973 -0.3076  0.4371  0.4966
17927TIP3    H175196   2.503   3.688  12.958  1.6414  1.5141 -1.6106
17927TIP3    H275197   2.477   3.790  13.067  0.6803 -1.0095  0.6422
17928TIP3   OH275198   1.287   4.950  14.434 -0.4546  0.3872  0.3673
17928TIP3    H175199   1.212   4.919  14.484 -1.6401  2.4144 -0.0718
17928TIP3    H275200   1.323   4.871  14.394 -3.1652 -0.4963 -0.5291
17929TIP3   OH275201   1.409   5.615  12.228 -0.0855 -0.3569 -0.2013
17929TIP3    H175202   1.321   5.622  12.190  0.3924 -0.2902 -1.3132
17929TIP3    H275203   1.467   5.602  12.153  1.0495  1.1823  0.3792
17930TIP3   OH275204   1.523   4.391   1.643  0.3862  0.3817  0.2826
17930TIP3    H175205   1.428   4.382   1.652  0.4658 -0.1958  0.5633
17930TIP3    H275206   1.557   4.302   1.653  0.8860  0.4292 -0.7819
17931TIP3   OH275207   6.198   3.995   5.639 -0.2399  0.0267 -0.1253
17931TIP3    H175208   6.287   3.992   5.673  0.0495 -2.8588 -0.8917
17931TIP3    H275209   6.205   4.045   5.557  0.6308 -0.0246 -0.0896
17932TIP3   OH275210   3.191   2.274  10.355 -0.5124  0.0136 -0.7694
17932TIP3    H175211   3.165   2.365  10.344 -0.7326 -0.1300 -1.5606
17932TIP3    H275212   3.285   2.273  10.337 -0.8994 -0.2458 -3.1166
17933TIP3   OH275213   6.328   6.509  16.026 -0.5902 -0.6129  0.0533
17933TIP3    H175214   6.291   6.482  15.942  0.9982 -0.5951 -0.6914
17933TIP3    H275215   6.415   6.468  16.028  0.6590  1.8352  0.2689
17934TIP3   OH275216   4.220   5.522   3.178 -0.2144  0.0467  0.1008
17934TIP3    H175217   4.277   5.451   3.207 -1.0040 -1.2624 -1.3434
17934TIP3    H275218   4.274   5.574   3.119 -0.2564 -0.7613 -0.6833
17935TIP3   OH275219   6.457   2.288   2.007 -0.4610  0.2270  0.0312
17935TIP3    H175220   6.482   2.225   2.074 -0.1334 -1.1128 -1.2955
17935TIP3    H275221   6.528   2.284   1.942 -0.2565  2.2272  0.0593
17936TIP3   OH275222   4.657   4.998   0.800 -0.2075  0.4644  0.2951
17936TIP3    H175223   4.678   4.932   0.735  1.2390  0.2667  0.9188
17936TIP3    H275224   4.727   4.991   0.865  0.4336  3.0934  0.0163
17937TIP3   OH275225   4.499   2.829   5.029  0.3270  0.2914  0.6312
17937TIP3    H175226   4.469   2.781   4.952  0.7521 -0.1928  0.7616
17937TIP3    H275227   4.426   2.822   5.091  0.1267  0.3765  0.4040
17938TIP3   OH275228   0.394   2.843   1.065  0.1752 -0.4196 -0.6986
17938TIP3    H175229   0.373   2.884   1.149  1.2434 -0.3226 -0.4735
17938TIP3    H275230   0.456   2.773   1.087  0.5305 -0.3364 -1.4209
17939TIP3   OH275231   6.345   6.030  11.560 -0.1565 -0.4372  0.3549
17939TIP3    H175232   6.255   6.040  11.527 -1.0604 -3.3519  1.6623
17939TIP3    H275233   6.338   6.041  11.654  1.2522  1.0758  0.3374
17940TIP3   OH275234   6.164   5.360   0.423  0.1631 -0.3519 -0.3242
17940TIP3    H175235   6.118   5.279   0.404 -0.0307  0.1932 -2.3304
17940TIP3    H275236   6.256   5.342   0.403 -0.0279  0.1946 -1.8111
17941TIP3   OH275237   2.128   1.288  16.162  0.3718 -0.1813 -0.0288
17941TIP3    H175238   2.115   1.289  16.257 -0.5822  0.0637 -0.1497
17941TIP3    H275239   2.206   1.341  16.147  1.2309 -1.2046  0.7048
17942TIP3   OH275240   6.139   1.757  15.420 -0.3604 -0.0814  0.3718
17942TIP3    H175241   6.104   1.826  15.364 -0.3682 -0.3989 -0.0207
17942TIP3    H275242   6.204   1.801  15.474 -1.9766  0.7048  1.7449
17943TIP3   OH275243   3.733   6.467  14.575 -0.3402 -0.5135 -0.2171
17943TIP3    H175244   3.770   6.447  14.489  0.0488  2.0291 -0.7260
17943TIP3    H275245   3.809   6.462  14.634  0.3550  1.8464 -0.7886
17944TIP3   OH275246   5.312   6.471   5.849 -0.0039 -0.4098 -0.2309
17944TIP3    H175247   5.404   6.481   5.823 -0.1294  0.8016 -0.2668
17944TIP3    H275248   5.298   6.540   5.913 -0.8466 -0.7175 -0.0736
17945TIP3   OH275249   3.081   5.228   2.458 -0.0854  0.3153 -0.3661
17945TIP3    H175250   3.156   5.239   2.400 -0.4645 -0.6438 -1.0746
17945TIP3    H275251   3.116   5.236   2.546  0.7489  0.4480 -0.7061
17946TIP3   OH275252   3.796   0.172   3.875  0.4900  0.5152  0.4422
17946TIP3    H175253   3.785   0.101   3.812  0.8471  0.8978 -0.0666
17946TIP3    H275254   3.707   0.191   3.906  0.1246  1.1362 -0.8775
17947TIP3   OH275255   1.317   3.438  16.082 -0.7202 -0.5820 -0.5093
17947TIP3    H175256   1.349   3.528  16.081 -0.7141 -0.4397  2.5324
17947TIP3    H275257   1.226   3.445  16.113  0.1014 -1.6848  2.5271
17948TIP3   OH275258   6.715   2.763  13.376  0.3401  0.1483 -0.6323
17948TIP3    H175259   6.651   2.730  13.439  0.2883  0.9498 -0.2388
17948TIP3    H275260   6.682   2.735  13.291 -0.4587  0.4094 -0.4250
17949TIP3   OH275261   1.838   6.028   0.496  0.1043  0.0819 -0.1217
17949TIP3    H175262   1.878   5.993   0.576 -0.6037  1.4543  0.8909
17949TIP3    H275263   1.814   5.951   0.445  0.3617 -0.8426  1.1049
17950TIP3   OH275264   3.119   1.084  12.467 -0.0846 -0.0559  0.4483
17950TIP3    H175265   3.062   1.129  12.529 -0.6507  1.9385 -1.3958
17950TIP3    H275266   3.207   1.104  12.496 -0.2806  3.2132 -0.7935
17951TIP3   OH275267   5.923   2.237  14.762  0.1342 -0.3053 -0.0787
17951TIP3    H175268   5.982   2.226  14.836  1.1161  3.8652 -0.0109
17951TIP3    H275269   5.969   2.198  14.688  0.7607 -1.2877  0.7982
17952TIP3   OH275270   5.789   2.580   4.223  0.3410  0.0383 -0.4410
17952TIP3    H175271   5.770   2.539   4.139 -0.2983 -0.3850 -0.1013
17952TIP3    H275272   5.774   2.511   4.288  0.1250  0.5557  0.0729
17953TIP3   OH275273   4.317   6.303   2.743 -0.3215  0.1206  0.1249
17953TIP3    H175274   4.296   6.397   2.742 -1.0873 -0.0453 -0.6006
17953TIP3    H275275   4.395   6.297   2.799 -0.6463  1.1029  0.7234
17954TIP3   OH275276   6.096   1.652   6.834 -0.5862 -0.6781  0.1898
17954TIP3    H175277   6.016   1.637   6.784  0.0583 -2.7727 -0.3386
17954TIP3    H275278   6.070   1.642   6.926 -0.9342 -1.4175  0.0164
17955TIP3   OH275279   0.639   5.073  11.936  0.0999 -0.1461 -0.0337
17955TIP3    H175280   0.722   5.120  11.941 -0.0839  0.1992 -0.1991
17955TIP3    H275281   0.657   4.998  11.879  0.0842  0.3852 -0.7519
17956TIP3   OH275282   3.254   3.813  12.748  0.2916 -0.5493 -0.2340
17956TIP3    H175283   3.160   3.825  12.750  0.5608  1.7585  1.4366
17956TIP3    H275284   3.288   3.894  12.709  1.6615 -0.7287  0.5400
17957TIP3   OH275285   3.823   2.559  16.701 -0.5174 -0.0369 -0.1012
17957TIP3    H175286   3.735   2.551  16.737  0.4854  0.6963  2.8014
17957TIP3    H275287   3.881   2.548  16.777  1.9238 -0.6672 -1.9245
17958TIP3   OH275288   4.752   0.937  16.701 -0.2221  0.0697  0.1849
17958TIP3    H175289   4.830   0.908  16.749  0.0839 -0.1254 -0.4241
17958TIP3    H275290   4.740   0.872  16.633  0.8898  1.6845 -1.6729
17959TIP3   OH275291   2.536   3.853   3.998 -0.3315  0.1112 -0.4196
17959TIP3    H175292   2.556   3.886   4.086  0.4592  2.8658 -1.5425
17959TIP3    H275293   2.446   3.820   4.005 -0.2989  0.2988  1.4016
17960TIP3   OH275294   3.088   3.361  10.447  0.0061  0.0840  0.4363
17960TIP3    H175295   3.083   3.437  10.389  1.6329  0.5326  0.8361
17960TIP3    H275296   3.032   3.295  10.406 -0.1209  0.9372 -0.7901
17961TIP3   OH275297   0.936   5.203  15.043  0.0041  0.0948 -0.2660
17961TIP3    H175298   0.914   5.177  15.133 -0.3844  0.5152 -0.2373
17961TIP3    H275299   0.864   5.260  15.016  0.8598  1.1842 -0.3149
17962TIP3   OH275300   4.198   5.971  14.788  0.4744  0.1546  0.0423
17962TIP3    H175301   4.224   5.940  14.874 -0.8290 -1.1154 -0.0058
17962TIP3    H275302   4.199   5.893  14.732 -2.0223  0.2756 -0.2742
17963TIP3   OH275303   0.351   2.745   2.653 -0.3691 -0.0892  0.3655
17963TIP3    H175304   0.444   2.746   2.677 -0.5899 -0.3291  1.2655
17963TIP3    H275305   0.312   2.816   2.704 -0.5687  0.4588 -0.5265
17964TIP3   OH275306   0.851   0.798   3.547 -0.1262  0.0892  0.3195
17964TIP3    H175307   0.898   0.750   3.616 -0.2572 -1.1368 -0.4174
17964TIP3    H275308   0.772   0.829   3.590  1.1945  1.9901  1.5188
17965TIP3   OH275309   2.607   3.803   4.393  0.3467 -0.3533 -0.2816
17965TIP3    H175310   2.696   3.771   4.411  0.8176  0.8251 -0.4229
17965TIP3    H275311   2.619   3.867   4.323 -0.6770 -0.4638 -0.5678
17966TIP3   OH275312   1.096   0.499  10.924 -0.6017 -0.6591  0.6866
17966TIP3    H175313   1.105   0.404  10.930 -1.3623 -0.8538 -0.6741
17966TIP3    H275314   1.182   0.534  10.947 -0.0172 -1.7331  0.1923
17967TIP3   OH275315   1.201   0.837   6.698  0.2805  0.4653  0.1555
17967TIP3    H175316   1.293   0.824   6.678  0.4691  0.3009  1.0697
17967TIP3    H275317   1.155   0.817   6.617  0.9503 -0.7288  0.0478
17968TIP3   OH275318   1.393   1.416   5.709 -0.1721  0.2498 -0.9966
17968TIP3    H175319   1.364   1.475   5.778 -0.1481 -1.7523  0.8241
17968TIP3    H275320   1.486   1.400   5.728 -0.1850 -0.4031 -1.4400
17969TIP3   OH275321   2.037   3.559  12.444  0.3015 -0.0228 -0.2642
17969TIP3    H175322   2.044   3.474  12.486  1.7272 -1.0875 -2.4779
17969TIP3    H275323   2.083   3.549  12.360 -2.7477  1.7677 -2.3746
17970TIP3   OH275324   1.080   5.257  16.765 -0.2697  0.2156 -0.5547
17970TIP3    H175325   1.017   5.242  16.695  0.3118 -0.5817 -0.9232
17970TIP3    H275326   1.035   5.227  16.844  0.1649 -1.8517 -1.0205
17971TIP3   OH275327   4.775   3.847  15.450  0.6334  0.0282 -0.0793
17971TIP3    H175328   4.731   3.899  15.516 -0.4234  0.8975 -1.3991
17971TIP3    H275329   4.816   3.911  15.392  0.7377 -0.6658 -0.7918
17972TIP3   OH275330   2.907   4.353  11.597 -0.2404 -0.3362  0.1316
17972TIP3    H175331   2.840   4.417  11.573  0.3491  0.5572  0.8012
17972TIP3    H275332   2.943   4.324  11.513 -2.6867 -2.2466 -0.3653
17973TIP3   OH275333   4.218   4.819  15.533  0.2147  0.3207  0.0372
17973TIP3    H175334   4.250   4.803  15.622  1.8641 -0.2549 -0.6140
17973TIP3    H275335   4.203   4.732  15.497  0.9819  0.4814 -0.7103
17974TIP3   OH275336   3.935   6.763  14.094 -0.2198 -0.6580 -0.9475
17974TIP3    H175337   3.914   6.808  14.176  0.5339  0.0169 -1.1102
17974TIP3    H275338   3.856   6.715  14.072 -0.2092 -1.4338  0.5517
17975TIP3   OH275339   3.981   6.714  11.097 -0.0414  0.0689  0.5114
17975TIP3    H175340   4.032   6.661  11.037 -0.5999  0.8161 -0.6534
17975TIP3    H275341   3.904   6.741  11.047 -0.4221  0.8797  1.4851
17976TIP3   OH275342   0.074   6.146   3.206  0.4827  0.1826 -0.1189
17976TIP3    H175343   0.147   6.193   3.246 -0.4356  0.8940  0.7978
17976TIP3    H275344   0.039   6.208   3.141 -0.5470  0.6903  0.8826
17977TIP3   OH275345   1.258   6.250   5.097 -0.2249  0.6215 -0.1062
17977TIP3    H175346   1.235   6.342   5.110  0.1051  0.4604  1.9479
17977TIP3    H275347   1.350   6.252   5.070 -0.4300  0.9100 -0.8092
17978TIP3   OH275348   4.806   1.283   0.628  0.4163 -0.2875  0.2819
17978TIP3    H175349   4.844   1.318   0.548  1.9311 -4.1943 -0.9203
17978TIP3    H275350   4.865   1.312   0.697 -0.2885  2.1803 -0.0346
17979TIP3   OH275351   4.001   1.115  17.144  0.5999  0.5084  0.1389
17979TIP3    H175352   4.057   1.038  17.159 -0.2458  0.2249  2.1709
17979TIP3    H275353   4.063   1.187  17.135  1.3890 -0.2896 -1.1218
17980TIP3   OH275354   5.032   5.969   1.877 -0.3726 -0.4415  0.4852
17980TIP3    H175355   5.109   5.988   1.930  1.3521  0.1003 -2.0327
17980TIP3    H275356   5.029   5.873   1.872 -0.4263 -0.4906  1.3027
17981TIP3   OH275357   6.717   3.388   2.350  0.3573  0.3145  0.2986
17981TIP3    H175358   6.761   3.471   2.328 -0.5231  1.3949  2.3754
17981TIP3    H275359   6.785   3.322   2.337  1.4185  1.4787 -0.3866
17982TIP3   OH275360   6.058   2.100   5.763 -0.0935  0.2411  0.2800
17982TIP3    H175361   6.069   2.065   5.851  0.7738  0.3275  0.2129
17982TIP3    H275362   6.025   2.189   5.777  0.8308  0.5549  0.5594
17983TIP3   OH275363   5.740   1.051  16.895 -0.1552 -0.2273 -0.7509
17983TIP3    H175364   5.809   0.986  16.881  0.3698  0.5296 -1.8154
17983TIP3    H275365   5.659   0.999  16.898  0.3322 -1.0025 -0.7647
17984TIP3   OH275366   6.317   0.926  14.444  0.5783  0.0700  0.6117
17984TIP3    H175367   6.281   0.917  14.532  1.1612 -0.3731  0.8096
17984TIP3    H275368   6.247   0.898  14.386 -0.2920  1.6306  0.8523
17985TIP3   OH275369   1.905   1.359   3.824  0.0662 -0.1437 -0.1166
17985TIP3    H175370   1.879   1.298   3.893  2.3526  0.3150  1.2515
17985TIP3    H275371   2.000   1.359   3.827  0.1929  1.0284 -2.3170
17986TIP3   OH275372   5.461   2.378   0.209  0.5551  0.0122 -0.0544
17986TIP3    H175373   5.442   2.471   0.202 -1.4943 -0.4289 -1.2676
17986TIP3    H275374   5.492   2.353   0.122 -0.4468 -0.7209 -0.2187
17987TIP3   OH275375   4.418   5.243   3.702 -0.2920 -0.7375  0.4510
17987TIP3    H175376   4.344   5.300   3.683 -1.2287 -2.3289 -0.8856
17987TIP3    H275377   4.383   5.176   3.760 -0.2914 -2.2178 -1.1754
17988TIP3   OH275378   3.675   3.134   1.420 -0.4033  0.1572 -0.2043
17988TIP3    H175379   3.629   3.211   1.454 -1.8728 -0.1031 -1.4563
17988TIP3    H275380   3.766   3.162   1.411 -0.9175  1.8145 -0.7383
17989TIP3   OH275381   1.090   1.379  14.514  0.1061 -0.1829 -0.1948
17989TIP3    H175382   1.139   1.448  14.469  0.5475 -0.3728 -0.0119
17989TIP3    H275383   1.154   1.309  14.527 -0.2314 -0.4580 -0.0030
17990TIP3   OH275384   0.000   4.821   5.448  0.1022 -0.0901  0.3058
17990TIP3    H175385   0.023   4.843   5.539  0.5921 -1.8717  0.6578
17990TIP3    H275386  -0.093   4.842   5.441 -0.7099 -2.5784  2.1689
17991TIP3   OH275387   2.308   2.916  12.338  0.0897 -0.3886  0.4816
17991TIP3    H175388   2.217   2.941  12.326  0.4595  1.1984  0.8428
17991TIP3    H275389   2.355   2.998  12.352  1.7181 -1.0928 -0.4963
17992TIP3   OH275390   5.822   3.150   5.143 -0.5175 -0.7524  0.6865
17992TIP3    H175391   5.834   3.103   5.060 -2.1010  1.7328 -1.0958
17992TIP3    H275392   5.900   3.206   5.150 -1.8704  1.5456 -1.0503
17993TIP3   OH275393   0.691   4.810  16.550 -0.0211  0.3371 -0.2329
17993TIP3    H175394   0.595   4.812  16.541 -0.0003  2.5991 -0.7439
17993TIP3    H275395   0.712   4.892  16.594  1.8041  0.7941 -1.8267
17994TIP3   OH275396   0.000   1.361   6.250 -0.2174  0.1769 -0.2273
17994TIP3    H175397   0.076   1.367   6.192  0.7762 -1.7377  0.7874
17994TIP3    H275398  -0.073   1.338   6.193  0.6936 -1.4237 -0.8046
17995TIP3   OH275399   4.173   1.405   0.896  0.1754 -0.0273 -0.5606
17995TIP3    H175400   4.119   1.439   0.968  0.4126 -2.0483  0.6477
17995TIP3    H275401   4.185   1.480   0.838 -0.3206  1.6073  1.3265
17996TIP3   OH275402   4.558   4.139   4.942 -0.3053 -0.4312 -0.1649
17996TIP3    H175403   4.612   4.183   4.877 -0.1445 -1.7290 -0.9384
17996TIP3    H275404   4.614   4.134   5.020 -0.5652  1.2925  0.1826
17997TIP3   OH275405   3.129   1.141   0.424  0.0224 -0.4989  0.5904
17997TIP3    H175406   3.088   1.154   0.510 -0.2760  1.4677  0.2025
17997TIP3    H275407   3.137   1.046   0.415 -1.2523 -0.8005  2.1782
17998TIP3   OH275408   2.272   4.009  12.937  0.7293 -0.4059 -0.1141
17998TIP3    H175409   2.346   3.949  12.945  0.9076 -0.6266 -2.6967
17998TIP3    H275410   2.220   3.975  12.865 -0.2710  1.4193 -0.3285
17999TIP3   OH275411   0.288   3.650   1.941 -0.0405 -0.6678 -0.3004
17999TIP3    H175412   0.241   3.672   1.861  0.1072 -1.5127 -0.6257
17999TIP3    H275413   0.312   3.735   1.979  1.2875 -0.2368 -1.9810
18000TIP3   OH275414   4.419   5.443  12.926  0.0725 -0.2922  0.2837
18000TIP3    H175415   4.421   5.428  13.021 -0.9671 -0.5121  0.2833
18000TIP3    H275416   4.445   5.359  12.888  1.1371 -0.0118  0.3771
18001TIP3   OH275417   2.539   0.264  15.136  0.5654  0.6227  0.5351
18001TIP3    H175418   2.618   0.310  15.165  0.4400  1.6426 -0.6465
18001TIP3    H275419   2.561   0.171  15.144  1.5219  0.8857  1.1566
18002TIP3   OH275420   2.845   4.802  11.632 -0.7306  0.1448  0.6065
18002TIP3    H175421   2.801   4.790  11.548 -0.5391 -1.6559  0.7179
18002TIP3    H275422   2.935   4.823  11.609 -0.5477 -0.8782  0.3266
18003TIP3   OH275423   4.889   2.737   2.098 -0.2360 -0.0125  0.1488
18003TIP3    H175424   4.868   2.650   2.065 -4.4634  0.5447  0.8465
18003TIP3    H275425   4.898   2.725   2.192  3.3940 -0.2218 -0.0918
18004TIP3   OH275426   0.703   3.825   1.475  0.2258 -0.4984  0.1767
18004TIP3    H175427   0.790   3.788   1.492  0.7976  0.2023 -1.1198
18004TIP3    H275428   0.680   3.870   1.556  1.4674  0.0748  0.2306
18005TIP3   OH275429   6.665   1.640  11.654  0.3972  0.2402  0.7117
18005TIP3    H175430   6.609   1.658  11.579  1.2216 -0.6507 -0.1361
18005TIP3    H275431   6.724   1.715  11.660  0.7609  0.0095  0.0583
18006TIP3   OH275432   6.351   1.617   1.493  0.7074 -0.4542  0.2983
18006TIP3    H175433   6.331   1.556   1.422 -1.2427  0.5826 -0.1255
18006TIP3    H275434   6.399   1.564   1.557 -2.2408 -2.9723  0.7155
18007TIP3   OH275435   0.619   0.792  10.563 -0.0893  0.0853  0.2495
18007TIP3    H175436   0.532   0.776  10.598  1.2120 -2.2227  2.7615
18007TIP3    H275437   0.645   0.876  10.600 -0.5812 -0.0721  0.9753
18008TIP3   OH275438   0.819   1.072  11.625  0.3215 -0.0324  0.0064
18008TIP3    H175439   0.827   1.001  11.561  1.0078 -0.5979  0.6866
18008TIP3    H275440   0.781   1.145  11.577  0.8723 -0.4256 -1.0482
18009TIP3   OH275441   2.025   5.758  12.160 -0.2440 -0.5039 -0.9154
18009TIP3    H175442   2.022   5.695  12.233 -3.0888 -0.3966 -0.8098
18009TIP3    H275443   2.093   5.820  12.185 -0.5736 -0.9269  1.2960
18010TIP3   OH275444   2.032   1.465  15.802 -0.0844 -0.6397  0.7375
18010TIP3    H175445   1.984   1.443  15.722  1.3678 -2.6962  0.3675
18010TIP3    H275446   1.966   1.462  15.871 -0.9290 -1.0991 -0.0622
18011TIP3   OH275447   2.040   5.331  11.485 -0.5408  0.3721 -0.4708
18011TIP3    H175448   2.015   5.353  11.395 -0.1571 -0.7911 -0.8652
18011TIP3    H275449   2.118   5.278  11.477 -0.3969  0.4022  0.5728
18012TIP3   OH275450   4.436   6.774  11.002 -0.8013 -0.1824 -0.5500
18012TIP3    H175451   4.425   6.690  10.956  1.1823  0.1043 -1.6563
18012TIP3    H275452   4.473   6.750  11.087 -0.3990 -0.4612 -0.7984
18013TIP3   OH275453   6.189   6.321   2.906  0.1046  0.1109  0.4083
18013TIP3    H175454   6.201   6.371   2.987 -0.4961  0.2005  0.4485
18013TIP3    H275455   6.098   6.290   2.910  0.2151 -0.2821 -0.0096
18014TIP3   OH275456   5.364   1.814  17.024  0.0524 -0.4163 -0.3529
18014TIP3    H175457   5.445   1.771  17.051  0.4568  0.6137  0.1601
18014TIP3    H275458   5.368   1.901  17.065 -1.6513 -0.5928  0.2727
18015TIP3   OH275459   1.330   2.782  15.440 -0.6591 -0.2354  0.5589
18015TIP3    H175460   1.353   2.821  15.524 -1.8299  0.9466  0.3719
18015TIP3    H275461   1.268   2.712  15.461 -1.1620  0.2401  0.6648
18016TIP3   OH275462   5.542   5.370   5.365 -0.3321  0.3227  0.5090
18016TIP3    H175463   5.456   5.408   5.385 -0.1068  0.9713  0.2824
18016TIP3    H275464   5.524   5.277   5.348 -0.7703  0.1172  1.9591
18017TIP3   OH275465   1.344   1.197  13.524  0.6440 -0.3342 -0.0532
18017TIP3    H175466   1.303   1.145  13.593  0.4266 -1.9433 -1.3607
18017TIP3    H275467   1.272   1.249  13.487  1.0573  1.9325  2.0227
18018TIP3   OH275468   1.781   4.836   0.986  0.3098 -0.6680  0.3556
18018TIP3    H175469   1.701   4.829   1.038 -0.3053  1.1387 -0.2880
18018TIP3    H275470   1.804   4.928   0.990  0.4735 -0.5245 -2.2157
18019TIP3   OH275471   6.729   6.425   3.794 -0.0172 -0.2104 -0.4678
18019TIP3    H175472   6.682   6.468   3.722  0.0966 -0.2369 -0.5583
18019TIP3    H275473   6.701   6.472   3.872 -1.5465 -1.3420 -0.2877
18020TIP3   OH275474   0.111   4.357   5.167  0.1106 -0.2800  0.2794
18020TIP3    H175475   0.106   4.453   5.163  1.0567 -0.0954  2.1867
18020TIP3    H275476   0.183   4.340   5.228 -1.2837 -2.1788  1.5106
18021TIP3   OH275477   1.557   4.317   2.347  0.3416  0.2418  0.4707
18021TIP3    H175478   1.607   4.242   2.378 -0.5140 -0.7118 -0.3965
18021TIP3    H275479   1.470   4.307   2.387 -0.2821 -0.1487 -0.8995
18022TIP3   OH275480   1.275   1.312   5.073 -0.1209 -0.2549  0.3549
18022TIP3    H175481   1.232   1.375   5.015  0.3432 -0.8267 -0.6415
18022TIP3    H275482   1.209   1.292   5.140 -1.3262 -0.8915 -0.9704
18023TIP3   OH275483   2.797   4.173   5.240 -0.2881  0.1170 -0.1097
18023TIP3    H175484   2.831   4.134   5.159 -0.3604 -0.7903  0.2828
18023TIP3    H275485   2.874   4.214   5.280 -0.3523  1.0099 -0.8722
18024TIP3   OH275486   0.965   4.307  13.350 -0.5341 -0.2813 -0.1614
18024TIP3    H175487   0.945   4.329  13.441  0.7711 -0.3191  0.1431
18024TIP3    H275488   0.886   4.334  13.302 -0.2695  2.1497  0.6264
18025TIP3   OH275489   3.523   3.283  11.074 -0.7427 -0.3310  0.0579
18025TIP3    H175490   3.564   3.235  11.003 -0.7333 -0.1831 -0.0373
18025TIP3    H275491   3.434   3.248  11.079 -0.6427 -0.5640  0.1814
18026TIP3   OH275492   2.557   6.410   6.080  0.6557  0.5837 -0.1063
18026TIP3    H175493   2.486   6.423   6.143 -0.3897  1.6671 -1.4594
18026TIP3    H275494   2.634   6.393   6.135 -0.5716 -0.4088  1.4077
18027TIP3   OH275495   0.153   5.244   5.943  0.1537  0.2344 -0.5902
18027TIP3    H175496   0.215   5.301   5.989 -0.7199  1.5099 -0.9443
18027TIP3    H275497   0.125   5.295   5.868 -3.5064  0.9472  1.0458
18028TIP3   OH275498   4.356   0.051   3.996 -0.6155 -0.0814  0.1551
18028TIP3    H175499   4.386  -0.002   3.922  0.5562  1.6846 -0.6968
18028TIP3    H275500   4.380   0.000   4.073 -1.7620 -1.9140 -0.6300
18029TIP3   OH275501   5.754   6.385  14.031 -0.0906 -0.6316  0.0668
18029TIP3    H175502   5.748   6.458  14.093 -2.4684 -1.4950  0.9506
18029TIP3    H275503   5.842   6.349  14.045 -0.2552 -0.2941  2.4187
18030TIP3   OH275504   5.769   0.733  11.644  0.1915  0.8816 -0.0867
18030TIP3    H175505   5.781   0.800  11.577 -1.9088  1.0949 -0.3313
18030TIP3    H275506   5.760   0.651  11.595 -0.4470  0.9090 -0.0286
18031TIP3   OH275507   3.267   3.205   1.111  1.2241 -0.3379 -0.4845
18031TIP3    H175508   3.219   3.275   1.066  1.5545  0.7003  0.7395
18031TIP3    H275509   3.203   3.169   1.173  0.5695 -2.1851 -2.1077
18032TIP3   OH275510   3.746   2.914   2.760 -0.6638 -0.1124 -0.0843
18032TIP3    H175511   3.788   2.997   2.783 -2.2883  0.4661  0.9003
18032TIP3    H275512   3.794   2.884   2.682  0.5731  1.2397  0.1144
18033TIP3   OH275513   0.990   5.430  13.002 -0.0979  0.3923  0.2037
18033TIP3    H175514   0.917   5.492  13.001  1.0625  1.7995 -0.6804
18033TIP3    H275515   1.065   5.480  12.971  1.0711 -1.2525  0.2283
18034TIP3   OH275516   4.650   5.214  14.655 -0.5560 -0.5694 -0.0044
18034TIP3    H175517   4.577   5.180  14.707 -0.1903  0.9085  1.5724
18034TIP3    H275518   4.661   5.150  14.585 -2.4435 -1.5539  0.5243
18035TIP3   OH275519   0.141   6.730   1.746  0.3434 -0.4707 -0.0346
18035TIP3    H175520   0.205   6.660   1.736  0.0209 -0.8435  0.4622
18035TIP3    H275521   0.066   6.703   1.693 -0.0729 -0.8705  0.7343
18036TIP3   OH275522   2.180   0.319  15.689 -0.5365 -0.4036 -0.5434
18036TIP3    H175523   2.229   0.245  15.725  0.6121  0.1205 -0.9798
18036TIP3    H275524   2.243   0.390  15.686 -1.6840  0.6899  0.0887
18037TIP3   OH275525   4.673   1.769  12.852  0.9174 -0.4565 -0.2959
18037TIP3    H175526   4.688   1.752  12.945  2.3112 -1.1708 -0.6268
18037TIP3    H275527   4.758   1.796  12.818  1.6490 -4.4110 -2.2240
18038TIP3   OH275528   6.354   4.641   0.346 -0.4459 -0.5309 -0.0459
18038TIP3    H175529   6.394   4.680   0.424  0.5152  0.4541 -0.9887
18038TIP3    H275530   6.260   4.639   0.365 -0.5070  1.8850  0.2463
18039TIP3   OH275531   1.639   5.724  13.396 -0.3071  0.2220 -0.0311
18039TIP3    H175532   1.586   5.653  13.432 -0.6959  0.0346 -0.9337
18039TIP3    H275533   1.724   5.715  13.438  0.3217 -2.0909 -1.6042
18040TIP3   OH275534   1.886   4.252  15.768 -0.4388  0.2652  0.4651
18040TIP3    H175535   1.918   4.320  15.709 -2.5493  1.5535  0.7002
18040TIP3    H275536   1.794   4.273  15.781 -0.6443 -1.4426  2.2471
18041TIP3   OH275537   0.344   4.842  13.880 -0.3887 -0.5313 -0.2252
18041TIP3    H175538   0.363   4.908  13.946 -0.4758 -0.0547 -0.6708
18041TIP3    H275539   0.401   4.865  13.806 -1.1383 -0.3623 -0.7561
18042TIP3   OH275540   5.559   2.680  13.166 -0.3681  0.4216 -0.1730
18042TIP3    H175541   5.536   2.634  13.246  0.0196  0.3055 -0.1241
18042TIP3    H275542   5.545   2.616  13.096  0.9110 -0.0465 -0.0352
18043TIP3   OH275543   0.974   4.793   4.955 -0.0411  0.5279 -0.0361
18043TIP3    H175544   0.982   4.702   4.985 -0.1653  0.5992  0.2127
18043TIP3    H275545   1.001   4.845   5.031 -3.9209  0.8608  1.3668
18044TIP3   OH275546   0.293   3.105   2.122  0.3556  0.3030 -0.1317
18044TIP3    H175547   0.249   3.189   2.113  0.9130  0.6230  0.0695
18044TIP3    H275548   0.348   3.098   2.045  2.9085  1.7096  1.4300
18045TIP3   OH275549   6.346   1.455  15.660  0.2692  0.6364 -0.1770
18045TIP3    H175550   6.278   1.523  15.660 -0.1570  0.2447 -1.5479
18045TIP3    H275551   6.311   1.387  15.717 -0.7117  0.2610 -1.1822
18046TIP3   OH275552   0.730   2.669  12.096  0.2998 -0.4316  0.5931
18046TIP3    H175553   0.826   2.678  12.096  0.2976 -0.3890  0.1438
18046TIP3    H275554   0.700   2.738  12.155  0.5821 -0.8553  1.2401
18047TIP3   OH275555   5.944   0.144  13.055  0.1536 -0.3096  0.4483
18047TIP3    H175556   5.906   0.189  13.130  0.8979 -1.5845  1.6406
18047TIP3    H275557   5.933   0.051  13.074  2.3215 -0.7076  0.0822
18048TIP3   OH275558   0.905   2.815   1.154  0.0087 -0.3361 -0.5640
18048TIP3    H175559   0.979   2.774   1.200 -0.4456  0.5840  1.0642
18048TIP3    H275560   0.863   2.869   1.220 -0.7411  1.0150 -2.0780
18049TIP3   OH275561   6.581   3.107  16.672  0.1922  0.8844  0.0940
18049TIP3    H175562   6.639   3.097  16.748  0.1067 -1.0112 -0.0432
18049TIP3    H275563   6.555   3.018  16.651 -3.0949  1.6817  0.3544
18050TIP3   OH275564   0.040   0.600  16.218 -0.0177 -0.6240  0.2746
18050TIP3    H175565   0.060   0.633  16.306  0.5386 -0.2391  0.0105
18050TIP3    H275566   0.057   0.506  16.223  1.8393 -0.3271  0.0901
18051TIP3   OH275567   0.008   0.420  12.532 -0.1885  0.3447  0.1932
18051TIP3    H175568   0.030   0.342  12.483 -0.4901 -1.1231  2.2818
18051TIP3    H275569   0.074   0.426  12.601 -0.9906  1.1282  0.9241
18052TIP3   OH275570   6.393   2.153   2.583 -0.0902  0.0034  0.7941
18052TIP3    H175571   6.468   2.106   2.546  1.1254  1.2256  1.6049
18052TIP3    H275572   6.335   2.167   2.509  1.2559  0.4533 -0.2122
18053TIP3   OH275573   5.877   1.882   4.884 -0.2418 -0.2641 -0.6033
18053TIP3    H175574   5.937   1.848   4.951 -1.0308  0.6319  0.5891
18053TIP3    H275575   5.866   1.974   4.905 -1.1969 -0.1571 -1.4618
18054TIP3   OH275576   0.031   6.570   0.886  0.0031 -0.0898  0.6976
18054TIP3    H175577  -0.060   6.541   0.873  0.0624  0.4697 -1.3879
18054TIP3    H275578   0.039   6.647   0.831  1.4250  0.6081  1.8302
18055TIP3   OH275579   3.011   0.017  12.090 -0.7653  0.8737 -0.0152
18055TIP3    H175580   3.070  -0.003  12.018  0.2826  3.7907 -0.1340
18055TIP3    H275581   2.957  -0.061  12.101  1.7070 -1.1505 -1.2992
18056TIP3   OH275582   2.763   4.521  14.071  0.4539 -0.3995 -0.4623
18056TIP3    H175583   2.778   4.426  14.070 -0.2029 -0.5195 -1.6125
18056TIP3    H275584   2.692   4.534  14.007  0.0203  0.7861  0.2322
18057TIP3   OH275585   2.414   2.757  10.549 -0.5547  0.6284  0.3440
18057TIP3    H175586   2.327   2.722  10.567 -0.2494  0.9211  2.7047
18057TIP3    H275587   2.474   2.686  10.574 -0.0672  0.7254 -0.4851
18058TIP3   OH275588   2.088   5.980   2.488  0.0027 -0.0961 -0.1424
18058TIP3    H175589   2.011   6.021   2.447  0.9911  1.4525 -0.5244
18058TIP3    H275590   2.061   5.964   2.579 -0.7917  0.3434 -0.2913
18059TIP3   OH275591   4.654   2.732  11.818 -0.3610  0.3825 -0.5091
18059TIP3    H175592   4.581   2.773  11.772  0.8290  1.3095 -1.6326
18059TIP3    H275593   4.667   2.785  11.897 -0.1621  0.9323 -0.9060
18060TIP3   OH275594   5.357   5.484   4.109  0.2024 -0.0154 -0.0143
18060TIP3    H175595   5.272   5.445   4.132  1.0763 -2.0674 -0.0724
18060TIP3    H275596   5.346   5.516   4.020  0.1026 -2.2764 -0.8537
18061TIP3   OH275597   6.207   3.638  15.718 -0.2842 -0.2623  0.7678
18061TIP3    H175598   6.275   3.570  15.709 -0.1260  0.0994 -1.0251
18061TIP3    H275599   6.139   3.612  15.657 -0.8917  0.4422  1.1311
18062TIP3   OH275600   0.877   5.690   1.830 -0.2273 -0.0807 -0.7085
18062TIP3    H175601   0.890   5.746   1.753 -1.8362  0.3702 -0.6934
18062TIP3    H275602   0.833   5.612   1.795  0.8580 -0.7927 -0.5297
18063TIP3   OH275603   3.827   5.373  13.937  0.2315 -0.1551 -0.0669
18063TIP3    H175604   3.849   5.280  13.939 -1.6662 -0.6219  0.9183
18063TIP3    H275605   3.786   5.386  13.851  0.8086 -0.1255 -0.3462
18064TIP3   OH275606   0.980   0.109  14.561  0.3834 -0.2129 -0.0143
18064TIP3    H175607   0.961   0.171  14.491  1.0661  1.3035  1.0712
18064TIP3    H275608   1.026   0.037  14.519 -0.2843  0.0782 -1.2856
18065TIP3   OH275609   4.147   5.189  12.842  0.2031 -0.5771  0.1291
18065TIP3    H175610   4.072   5.130  12.833 -0.9389  0.8905 -0.3496
18065TIP3    H275611   4.211   5.138  12.891 -1.2413 -1.7547  0.8894
18066TIP3   OH275612   3.543   4.560  11.661 -0.4103  0.2484 -0.2881
18066TIP3    H175613   3.470   4.570  11.722  0.4244  0.1653  0.7741
18066TIP3    H275614   3.532   4.472  11.624 -1.2744  0.5418 -0.7392
18067TIP3   OH275615   0.569   0.648   5.483 -0.3318 -0.3112 -0.1703
18067TIP3    H175616   0.592   0.641   5.576 -1.0544  0.2145  0.0518
18067TIP3    H275617   0.484   0.692   5.482  0.7121  1.8184 -1.1693
18068TIP3   OH275618   4.544   5.800  11.013  0.3747 -0.4981 -0.3587
18068TIP3    H175619   4.587   5.764  10.935  0.2074  1.3907 -1.3924
18068TIP3    H275620   4.613   5.847  11.059  0.1518 -0.3168 -0.2068
18069TIP3   OH275621   5.554   5.528  13.423  0.4464  0.1226  0.6351
18069TIP3    H175622   5.604   5.609  13.418 -1.3378  1.3177  1.1116
18069TIP3    H275623   5.472   5.548  13.378 -0.9030 -0.7012  2.6300
18070TIP3   OH275624   4.740   2.454   2.004 -0.1467  0.4793  0.2394
18070TIP3    H175625   4.678   2.521   2.033 -1.2458 -0.5991  0.4755
18070TIP3    H275626   4.757   2.475   1.913  0.8733  2.0654  0.7579
18071TIP3   OH275627   0.704   2.450  16.711 -0.1229  0.2707 -0.7303
18071TIP3    H175628   0.678   2.437  16.620 -2.6045  0.3083 -0.1091
18071TIP3    H275629   0.675   2.371  16.756 -0.4659  0.9479  0.2848
18072TIP3   OH275630   3.425   1.334  14.703  0.3660 -0.3087 -0.0531
18072TIP3    H175631   3.452   1.425  14.687 -1.4012  0.3936  0.7738
18072TIP3    H275632   3.379   1.309  14.623  0.8896 -0.5012 -0.2976
18073TIP3   OH275633   3.317   2.999  13.529  0.1148 -0.4746 -0.3566
18073TIP3    H175634   3.277   2.952  13.602 -0.9304  1.0003  0.0713
18073TIP3    H275635   3.253   2.993  13.459 -0.0761  0.3890 -0.2597
18074TIP3   OH275636   0.249   4.777   0.617  0.0285  0.3066  0.4528
18074TIP3    H175637   0.158   4.749   0.610 -0.1906  0.8379  1.0563
18074TIP3    H275638   0.300   4.697   0.608 -0.4680  0.0661 -0.4224
18075TIP3   OH275639   5.909   5.034  13.524 -0.1853  0.3495 -0.0519
18075TIP3    H175640   5.861   5.113  13.551 -0.4855  0.0951  0.1657
18075TIP3    H275641   5.848   4.989  13.466 -1.0970 -1.0636  1.8945
18076TIP3   OH275642   6.760   4.554  16.206  0.5215  0.0703 -0.6515
18076TIP3    H175643   6.681   4.608  16.212  0.8606  0.4189  1.5222
18076TIP3    H275644   6.818   4.602  16.147  0.2656  1.3676  0.1220
18077TIP3   OH275645   2.466   0.314   2.056  0.9629  0.5650  0.3287
18077TIP3    H175646   2.468   0.388   1.995 -2.0370  0.1112 -0.5070
18077TIP3    H275647   2.384   0.325   2.103  1.8670 -0.6798  2.3110
18078TIP3   OH275648   6.278   0.752  11.342  0.1636  0.0463  0.0280
18078TIP3    H175649   6.222   0.806  11.398 -1.4775 -1.0998 -0.4138
18078TIP3    H275650   6.367   0.773  11.369 -0.5252  0.6283  2.0141
18079TIP3   OH275651   5.692   6.528  15.097  0.5505 -0.2495 -0.2203
18079TIP3    H175652   5.628   6.484  15.040 -0.6654  1.6966 -0.4846
18079TIP3    H275653   5.691   6.478  15.178 -0.0032 -1.2699 -0.8292
18080TIP3   OH275654   4.386   6.184  12.355  0.6159 -0.1171  0.3497
18080TIP3    H175655   4.305   6.201  12.307 -0.1581  0.2509  1.7240
18080TIP3    H275656   4.356   6.155  12.442  1.9574 -0.0179  0.8641
18081TIP3   OH275657   6.464   5.755   1.565  0.2297  0.2449  0.2077
18081TIP3    H175658   6.410   5.677   1.553 -0.7994  0.8668  0.6228
18081TIP3    H275659   6.548   5.732   1.525 -0.8833 -0.1292 -2.1259
18082TIP3   OH275660   1.077   3.758   4.372  0.1011 -0.0166  0.4499
18082TIP3    H175661   1.006   3.784   4.313  3.9416  3.1780 -3.5072
18082TIP3    H275662   1.121   3.687   4.326  0.5930 -0.6892  1.9078
18083TIP3   OH275663   0.140   4.877   6.176  0.5810 -0.3227 -0.4368
18083TIP3    H175664   0.127   4.788   6.143 -0.9452 -0.6993  1.0800
18083TIP3    H275665   0.092   4.880   6.258 -0.3004  2.2304 -0.9453
18084TIP3   OH275666   6.444   5.382  16.220 -0.3341 -0.3102  0.4701
18084TIP3    H175667   6.422   5.307  16.166  1.1208  0.5824 -1.4582
18084TIP3    H275668   6.523   5.356  16.267 -0.5597 -0.4357  0.7819
18085TIP3   OH275669   6.338   3.167   4.012 -0.3526 -0.4891  0.1098
18085TIP3    H175670   6.305   3.112   3.941  0.7268  0.6821 -1.3629
18085TIP3    H275671   6.272   3.160   4.081 -3.4980  1.3018 -2.4314
18086TIP3   OH275672   0.560   4.339   3.440  0.4153  0.9737 -0.5571
18086TIP3    H175673   0.587   4.268   3.498  1.1061  0.2464 -1.7168
18086TIP3    H275674   0.597   4.418   3.479  1.0870  0.4634 -0.1371
18087TIP3   OH275675   6.707   1.777   1.974 -0.0795  0.0938  0.2438
18087TIP3    H175676   6.720   1.871   1.987 -0.2625  0.2003 -0.3263
18087TIP3    H275677   6.644   1.771   1.902 -1.6191 -0.4272  1.5838
18088TIP3   OH275678   5.655   1.203  11.931 -0.5898 -0.4571 -0.0983
18088TIP3    H175679   5.580   1.224  11.986 -2.3523  1.3286 -2.9210
18088TIP3    H275680   5.708   1.283  11.931 -0.8211 -0.2857 -1.2144
18089TIP3   OH275681   6.087   3.219   2.351  0.0388 -1.1055 -0.0556
18089TIP3    H175682   6.024   3.278   2.309  2.0256  1.0978 -0.1122
18089TIP3    H275683   6.091   3.143   2.293  1.6312  1.2002 -3.2227
18090TIP3   OH275684   5.006   1.316  11.564 -1.0273 -0.1365 -0.9352
18090TIP3    H175685   5.097   1.345  11.568 -1.4872  1.3751 -0.7124
18090TIP3    H275686   4.962   1.368  11.631 -1.4168 -3.4832  1.6497
18091TIP3   OH275687   5.991   0.169   2.519  0.3095  0.0324  0.2348
18091TIP3    H175688   5.972   0.098   2.580  0.8872  0.1559  0.5709
18091TIP3    H275689   5.998   0.247   2.575 -1.6325  0.6254 -0.2580
18092TIP3   OH275690   0.316   2.104  14.208 -0.1526  0.5698 -0.4390
18092TIP3    H175691   0.315   2.127  14.115 -0.4800  2.5350  0.0267
18092TIP3    H275692   0.288   2.183  14.253  2.1933  0.3989  1.4998
18093TIP3   OH275693   4.459   5.595   0.513  0.2144  0.0924  0.1149
18093TIP3    H175694   4.509   5.595   0.594 -3.2371 -0.7669  2.4729
18093TIP3    H275695   4.510   5.651   0.453  3.6583 -0.4463  2.2808
18094TIP3   OH275696   4.952   4.245   0.194  0.0740 -0.4431  0.3345
18094TIP3    H175697   4.916   4.333   0.202  0.6870 -0.3153  2.2827
18094TIP3    H275698   4.952   4.211   0.283  3.7284 -0.8112  0.3789
18095TIP3   OH275699   5.332   6.030  17.206  0.0236 -0.3372  0.3178
18095TIP3    H175700   5.259   5.974  17.232  0.4354 -0.4184  1.3755
18095TIP3    H275701   5.324   6.107  17.262 -0.3135  0.5062 -0.8572
18096TIP3   OH275702   3.141   4.386  12.555  0.0828  0.6464  0.5332
18096TIP3    H175703   3.076   4.322  12.584  0.3488 -0.2871 -0.8568
18096TIP3    H275704   3.112   4.468  12.595 -2.0751  0.3087 -0.1912
18097TIP3   OH275705   3.330   1.199   2.007 -0.2702 -0.9130 -0.6364
18097TIP3    H175706   3.420   1.232   2.004  0.3861 -2.6499 -1.0296
18097TIP3    H275707   3.309   1.196   2.101 -0.0230 -0.2783 -0.5546
18098TIP3   OH275708   3.654   5.895  17.251 -0.3488 -0.4847 -0.5216
18098TIP3    H175709   3.735   5.946  17.250 -0.5212 -0.1893  0.1008
18098TIP3    H275710   3.666   5.830  17.182  0.0447  0.1348 -1.0470
18099TIP3   OH275711   2.967   5.014   0.658 -0.2585  0.6291 -0.1727
18099TIP3    H175712   2.998   5.104   0.657  1.5797  0.0477  0.4401
18099TIP3    H275713   2.979   4.985   0.748  0.1878 -0.5498 -0.5914
18100TIP3   OH275714   0.657   3.105   5.950 -0.2616 -0.1301  0.2710
18100TIP3    H175715   0.731   3.044   5.961 -0.8568 -0.8907  0.1249
18100TIP3    H275716   0.671   3.144   5.864  0.1856  0.0344  0.4115
18101TIP3   OH275717   1.300   2.082   0.866 -0.2482  0.0360 -0.6979
18101TIP3    H175718   1.290   2.177   0.856 -1.1713 -0.0814 -1.0020
18101TIP3    H275719   1.269   2.064   0.954  1.5875  0.2248  0.0168
18102TIP3   OH275720   5.447   2.645  12.847  0.0820 -0.2230 -0.1196
18102TIP3    H175721   5.481   2.557  12.834 -2.7898 -1.3949 -0.6073
18102TIP3    H275722   5.356   2.631  12.875 -0.6287  2.5951 -0.7042
18103TIP3   OH275723   5.957   0.798  12.565 -0.4390  0.6851 -0.1016
18103TIP3    H175724   5.998   0.869  12.516  0.1589 -0.7919 -1.8407
18103TIP3    H275725   6.022   0.728  12.566 -1.3829 -0.2247  0.6793
18104TIP3   OH275726   1.005   5.070   3.887  0.1663  0.2105 -0.2387
18104TIP3    H175727   1.019   5.158   3.922  0.7613 -0.4207  1.1915
18104TIP3    H275728   0.958   5.084   3.805 -0.8972  1.7913  0.5975
18105TIP3   OH275729   2.617   4.673  12.977 -0.5209  0.3557 -0.0616
18105TIP3    H175730   2.542   4.654  13.034  0.4638 -0.5370  0.9810
18105TIP3    H275731   2.678   4.722  13.032  0.8812 -1.3739  0.0148
18106TIP3   OH275732   0.614   6.310  15.234  0.9400 -0.4452  0.2166
18106TIP3    H175733   0.619   6.223  15.194 -0.8708 -0.7175  0.4964
18106TIP3    H275734   0.538   6.350  15.194  1.5538  0.9023  0.3559
18107TIP3   OH275735   5.097   2.802   3.489  0.2414 -0.0197  0.2608
18107TIP3    H175736   5.081   2.807   3.583 -1.1819 -0.0507  0.0517
18107TIP3    H275737   5.189   2.827   3.478  0.6192 -0.6761  1.7090
18108TIP3   OH275738   2.939   1.856  13.234  0.5356  0.0956 -0.6392
18108TIP3    H175739   2.868   1.793  13.246 -1.1537  1.9762 -0.0591
18108TIP3    H275740   2.978   1.834  13.150 -0.8616 -0.9033 -1.0515
18109TIP3   OH275741   1.961   1.640   6.224  0.6449 -0.2941 -0.5324
18109TIP3    H175742   1.956   1.617   6.317  0.3920  1.2026 -0.1552
18109TIP3    H275743   2.052   1.664   6.210  0.6224 -0.2538 -0.6105
18110TIP3   OH275744   2.429   2.474  16.373 -0.1789  1.0564  0.3782
18110TIP3    H175745   2.516   2.513  16.377  0.0168  0.8929 -1.3740
18110TIP3    H275746   2.417   2.451  16.281 -0.5423 -2.4226  1.1467
18111TIP3   OH275747   6.191   3.071   1.099  0.1244 -0.1475 -0.5790
18111TIP3    H175748   6.189   3.094   1.192 -0.3014 -0.0558 -0.6096
18111TIP3    H275749   6.271   3.112   1.065  0.3984 -0.3670 -0.2092
18112TIP3   OH275750   4.665   3.671   4.470 -0.2484 -0.2261  0.0004
18112TIP3    H175751   4.735   3.609   4.450 -0.2624  0.5283 -2.7690
18112TIP3    H275752   4.590   3.641   4.419 -0.5083  1.5420 -0.7254
18113TIP3   OH275753   4.376   0.466  11.754  0.4001 -0.4224  0.2942
18113TIP3    H175754   4.400   0.558  11.738  0.6639 -0.1529  1.9827
18113TIP3    H275755   4.283   0.461  11.733  0.7050 -0.1449 -1.2156
18114TIP3   OH275756   1.204   1.847  15.617 -0.5358  0.2020  0.5716
18114TIP3    H175757   1.157   1.822  15.696 -1.8323 -0.0868 -0.2670
18114TIP3    H275758   1.183   1.940  15.606 -1.3942 -0.0561 -0.0998
18115TIP3   OH275759   2.469   4.219   5.039 -0.0805 -0.4693  0.2374
18115TIP3    H175760   2.375   4.221   5.057  0.0046 -2.1158  1.0904
18115TIP3    H275761   2.475   4.231   4.944 -1.3415 -2.6051 -0.1790
18116TIP3   OH275762   5.281   1.391   5.091 -0.1928 -0.2552 -0.3948
18116TIP3    H175763   5.226   1.454   5.044 -1.8426  0.8918  2.7869
18116TIP3    H275764   5.363   1.390   5.043 -1.5870  1.0352 -3.0298
18117TIP3   OH275765   2.492   2.809   6.114 -0.0860 -0.2659 -0.5371
18117TIP3    H175766   2.523   2.876   6.175  0.3969  0.7105 -1.8138
18117TIP3    H275767   2.561   2.743   6.115  0.7103  0.5344 -1.2339
18118TIP3   OH275768   6.667   2.200   5.704 -0.2390 -0.3245  0.0554
18118TIP3    H175769   6.681   2.266   5.636  0.9378  0.7459  1.2885
18118TIP3    H275770   6.589   2.230   5.751  0.6202  0.5203  0.9676
18119TIP3   OH275771   5.896   4.303   1.045  0.8024  0.7746  0.4211
18119TIP3    H175772   5.859   4.262   1.124 -0.2038  0.4053 -0.2195
18119TIP3    H275773   5.821   4.314   0.987  1.6610  0.2465 -0.8295
18120TIP3   OH275774   0.272   6.552   4.634 -0.2848 -0.1166  0.4116
18120TIP3    H175775   0.286   6.616   4.564  1.4927 -0.6865  0.1947
18120TIP3    H275776   0.343   6.568   4.695 -1.5656  0.0723  1.9009
18121TIP3   OH275777   2.488   3.532   3.609  0.1410 -0.3549  0.2555
18121TIP3    H175778   2.406   3.507   3.566 -1.5379  1.8673  1.9441
18121TIP3    H275779   2.498   3.625   3.589  1.5523 -0.2620  1.2086
18122TIP3   OH275780   5.831   3.810   3.305  0.4296  0.1925  0.8755
18122TIP3    H175781   5.914   3.856   3.296  1.2517 -1.4265 -0.3451
18122TIP3    H275782   5.768   3.878   3.329  2.2213  1.3386  2.6091
18123TIP3   OH275783   5.507   1.647   5.329  0.6508 -0.2832 -0.8331
18123TIP3    H175784   5.580   1.590   5.355  1.3674  0.8439 -0.2929
18123TIP3    H275785   5.541   1.736   5.341 -1.2103  0.2865  0.6631
18124TIP3   OH275786   0.164   4.331  16.108 -0.1191 -0.4072  0.0720
18124TIP3    H175787   0.130   4.419  16.124  0.5179  0.1685 -1.5117
18124TIP3    H275788   0.234   4.320  16.172  0.8804  0.9086 -0.7447
18125TIP3   OH275789   2.611   1.257  15.228 -0.3431 -0.3853 -0.6740
18125TIP3    H175790   2.597   1.351  15.213  2.5468  0.6238  2.0005
18125TIP3    H275791   2.567   1.239  15.311  0.0322 -1.1779 -0.6385
18126TIP3   OH275792   5.287   6.621   2.707 -0.2640  0.1700  0.0374
18126TIP3    H175793   5.245   6.697   2.666 -0.3890 -1.1547 -2.4665
18126TIP3    H275794   5.310   6.564   2.634  1.7652 -1.2639  1.6799
18127TIP3   OH275795   2.743   1.118   1.038 -0.3287  0.4353  0.2072
18127TIP3    H175796   2.762   1.070   0.958  3.3853  1.4159  0.3202
18127TIP3    H275797   2.738   1.051   1.106 -2.8113 -0.3314 -0.6193
18128TIP3   OH275798   4.127   4.048   5.459 -0.8665 -0.4114  0.2717
18128TIP3    H175799   4.074   3.979   5.499 -0.0402 -1.3653 -0.2183
18128TIP3    H275800   4.096   4.129   5.499 -1.5770 -1.1095  1.1732
18129TIP3   OH275801   3.929   2.233   0.694  0.2305  0.4950 -0.1635
18129TIP3    H175802   3.950   2.240   0.601  2.4307  0.0587  0.2404
18129TIP3    H275803   3.972   2.308   0.735  0.6681 -0.1971  0.6961
18130TIP3   OH275804   4.674   2.679  14.558 -0.1887  0.3246  0.4852
18130TIP3    H175805   4.580   2.682  14.540  0.0912  0.5678 -1.0266
18130TIP3    H275806   4.715   2.707  14.477  1.2085  0.0146  1.0610
18131TIP3   OH275807   1.058   2.282  11.153 -0.6320  0.5346  0.3887
18131TIP3    H175808   1.002   2.210  11.126 -0.0118  0.1867  0.0040
18131TIP3    H275809   1.110   2.303  11.075  0.6718 -0.0032  1.0876
18132TIP3   OH275810   5.077   4.846  11.596 -0.2706  0.1371 -0.0496
18132TIP3    H175811   5.110   4.759  11.621  0.6559 -0.3752 -2.7210
18132TIP3    H275812   5.097   4.902  11.671  3.9876 -0.8290 -0.2073
18133TIP3   OH275813   5.755   6.029   4.568  0.4712 -0.3310 -0.0920
18133TIP3    H175814   5.685   6.076   4.523  0.6251  0.2489  0.2720
18133TIP3    H275815   5.747   6.056   4.660 -1.5619 -3.5229  0.8433
18134TIP3   OH275816   2.420   6.135  12.386  0.1029  0.3734 -0.1308
18134TIP3    H175817   2.360   6.066  12.416 -0.4486  0.8689 -0.0750
18134TIP3    H275818   2.478   6.091  12.324  0.9114 -0.5444  1.2415
18135TIP3   OH275819   2.875   3.649  11.206 -0.0371  0.1324 -0.0976
18135TIP3    H175820   2.791   3.650  11.252  0.7972  0.3920  1.4989
18135TIP3    H275821   2.936   3.609  11.268  1.0229 -0.0921 -1.2394
18136TIP3   OH275822   3.405   5.841  14.756 -0.5302 -0.3366  0.0227
18136TIP3    H175823   3.365   5.893  14.687 -0.0261  1.8524  1.2773
18136TIP3    H275824   3.332   5.805  14.805 -0.8915 -0.3900 -0.5418
18137TIP3   OH275825   1.176   0.579   4.066 -0.1342  0.3224 -0.6016
18137TIP3    H175826   1.131   0.509   4.019  0.4233 -1.3130  1.1613
18137TIP3    H275827   1.244   0.608   4.005  0.7243 -1.8945 -0.8172
18138TIP3   OH275828   1.776   2.811   5.521 -0.4977 -0.2371 -0.1914
18138TIP3    H175829   1.744   2.744   5.580 -0.3251 -0.9522 -0.8946
18138TIP3    H275830   1.748   2.894   5.560  0.4377 -0.6317  1.3891
18139TIP3   OH275831   4.422   1.767  11.790 -0.0334  0.0504  1.1830
18139TIP3    H175832   4.514   1.742  11.794  0.2413  0.5204 -0.8957
18139TIP3    H275833   4.421   1.851  11.744 -1.6315 -1.3642 -1.6614
18140TIP3   OH275834   4.725   5.463  14.567 -0.0445 -0.1540  0.0241
18140TIP3    H175835   4.731   5.462  14.472 -0.6423 -0.1924 -0.0189
18140TIP3    H275836   4.693   5.376  14.590 -1.5531  0.3897  0.1198
18141TIP3   OH275837   0.563   3.961   3.486  0.9141 -0.0245  0.2853
18141TIP3    H175838   0.624   4.012   3.434  0.6253 -0.4994 -0.5440
18141TIP3    H275839   0.611   3.881   3.509  0.3288 -0.8332 -1.1745
18142TIP3   OH275840   0.966   5.541   4.848 -0.0479 -0.0523  0.6242
18142TIP3    H175841   0.946   5.605   4.780 -1.3015 -0.3150  0.7138
18142TIP3    H275842   0.908   5.467   4.829  0.5124 -0.6635  1.2289
18143TIP3   OH275843   2.869   1.266  13.491 -0.1329 -0.6460  0.6850
18143TIP3    H175844   2.863   1.335  13.557 -1.1996 -0.6586  0.6190
18143TIP3    H275845   2.825   1.191  13.531 -1.9701 -0.2587 -0.5208
18144TIP3   OH275846   0.406   0.728   5.182  0.4520 -0.3338 -0.1321
18144TIP3    H175847   0.492   0.755   5.215  0.2015 -0.1023  0.3431
18144TIP3    H275848   0.406   0.633   5.191  0.1643 -0.2258  1.1077
18145TIP3   OH275849   6.411   2.512  12.391 -0.6375  0.3292 -0.0837
18145TIP3    H175850   6.370   2.426  12.377 -2.9758  1.5729 -1.6884
18145TIP3    H275851   6.499   2.492  12.422 -0.8350 -2.6569 -1.1028
18146TIP3   OH275852   3.411   0.883   5.157 -0.2702  0.5833 -0.4505
18146TIP3    H175853   3.442   0.796   5.179  0.1817  0.8552  0.0077
18146TIP3    H275854   3.320   0.870   5.129  0.3892 -0.2919 -2.3410
18147TIP3   OH275855   2.476   1.052  12.423 -0.6695  0.0770 -0.0726
18147TIP3    H175856   2.407   1.069  12.487 -0.9308 -1.3188  0.0535
18147TIP3    H275857   2.472   0.958  12.408  0.3387  0.1676 -1.0740
18148TIP3   OH275858   6.523   3.712   4.195 -0.0978  0.7312  1.0026
18148TIP3    H175859   6.499   3.780   4.132 -0.6415 -0.5093 -0.1943
18148TIP3    H275860   6.619   3.708   4.191 -0.1730 -1.0404 -1.7618
18149TIP3   OH275861   3.166   5.959   4.400  0.5668 -0.0330 -0.1589
18149TIP3    H175862   3.194   5.976   4.490  0.1917  0.3343 -0.1044
18149TIP3    H275863   3.127   6.042   4.372  1.2555  0.0604 -0.8834
18150TIP3   OH275864   4.633   0.905  12.488  0.1178  0.4697  0.4448
18150TIP3    H175865   4.620   0.838  12.421  0.7952  0.3106  0.4643
18150TIP3    H275866   4.684   0.973  12.444  1.9683 -0.3430  1.1875
18151TIP3   OH275867   1.915   2.520  17.212  0.3156 -0.3472 -0.6697
18151TIP3    H175868   1.922   2.552  17.302 -0.1251 -2.4334  0.1849
18151TIP3    H275869   1.826   2.543  17.186  0.1893 -0.3914 -0.2864
18152TIP3   OH275870   6.603   4.225  14.168  0.0873 -0.1756 -0.1810
18152TIP3    H175871   6.628   4.265  14.251  0.5679  2.0820 -1.3191
18152TIP3    H275872   6.676   4.243  14.110 -1.2228  0.4585 -1.7247
18153TIP3   OH275873   6.207   6.055   5.614  0.7075 -0.2223 -0.1358
18153TIP3    H175874   6.233   6.021   5.700  1.3226 -2.3821 -1.1088
18153TIP3    H275875   6.251   6.140   5.608  0.7690 -0.0969  1.6191
18154TIP3   OH275876   4.233   1.301   5.287 -0.2985  0.6738 -0.5086
18154TIP3    H175877   4.293   1.285   5.359 -1.6550 -0.0646  0.5216
18154TIP3    H275878   4.222   1.396   5.284  0.9342  0.8208 -0.7538
18155TIP3   OH275879   2.432   5.317  16.676  0.0176  0.1806 -0.3391
18155TIP3    H175880   2.473   5.279  16.598  1.4449 -0.6761  0.7774
18155TIP3    H275881   2.346   5.275  16.680  1.2417 -2.4365  0.4102
18156TIP3   OH275882   3.376   1.652  13.980  0.4003  0.0304  0.0408
18156TIP3    H175883   3.333   1.720  13.928  1.8749  1.3788  0.5123
18156TIP3    H275884   3.465   1.685  13.995  0.4199 -0.8721  2.3511
18157TIP3   OH275885   2.984   4.095  15.666  0.2451 -0.5733 -0.4483
18157TIP3    H175886   3.048   4.128  15.729  0.5795 -0.9661 -0.5740
18157TIP3    H275887   2.962   4.170  15.611 -1.4400  0.2501  1.2645
18158TIP3   OH275888   4.181   3.679  10.399  0.3053  0.2245 -0.2885
18158TIP3    H175889   4.183   3.585  10.381  0.9588  0.5114 -1.9383
18158TIP3    H275890   4.264   3.697  10.443  0.4226  0.1075 -0.4587
18159TIP3   OH275891   1.004   4.020   2.655 -0.9874  0.3405 -0.3487
18159TIP3    H175892   1.084   4.061   2.623 -0.2888 -0.5241  0.2065
18159TIP3    H275893   0.966   4.085   2.715 -0.6653  0.7367 -0.5685
18160TIP3   OH275894   1.795   0.786   0.166 -0.1561 -0.3432  0.3058
18160TIP3    H175895   1.777   0.828   0.082  2.1538  0.8111  0.3072
18160TIP3    H275896   1.788   0.692   0.148 -3.0147 -0.1043 -0.2922
18161TIP3   OH275897   0.926   3.971  12.522 -0.3938  0.1483  0.1309
18161TIP3    H175898   0.924   3.935  12.433 -2.0060  1.6435 -0.5147
18161TIP3    H275899   0.974   4.053  12.513 -0.2821  0.1468  0.7142
18162TIP3   OH275900   5.620   1.073  16.336  0.0328 -0.5772  0.1290
18162TIP3    H175901   5.690   1.010  16.324  0.2778 -0.3710  0.4416
18162TIP3    H275902   5.623   1.094  16.429 -0.6512 -0.8050  0.2032
18163TIP3   OH275903   4.726   1.945   6.221 -0.6196  0.1620 -0.6391
18163TIP3    H175904   4.750   2.010   6.288 -0.8019 -0.5707  0.1455
18163TIP3    H275905   4.633   1.959   6.206 -0.4671  0.6828 -1.1419
18164TIP3   OH275906   5.567   5.651   1.855 -0.2968  0.0710  0.8055
18164TIP3    H175907   5.662   5.650   1.860 -0.2007  0.5101 -0.5027
18164TIP3    H275908   5.537   5.624   1.942  1.0023  1.4560  1.7323
18165TIP3   OH275909   5.647   0.509  13.459  0.0323 -0.0817  0.1551
18165TIP3    H175910   5.653   0.444  13.530 -0.4862 -1.5950 -1.1223
18165TIP3    H275911   5.566   0.557  13.477 -0.2621 -0.6635  0.4074
18166TIP3   OH275912   2.585   5.947  10.932 -0.0514  0.0529  0.0744
18166TIP3    H175913   2.552   6.036  10.946 -1.0421 -0.1078 -1.0542
18166TIP3    H275914   2.545   5.919  10.850  1.2437 -0.9817 -0.2478
18167TIP3   OH275915   4.610   2.540  16.488 -0.0226  0.0565  0.5583
18167TIP3    H175916   4.561   2.483  16.429  0.6232 -0.0415  0.1107
18167TIP3    H275917   4.613   2.624  16.443  0.1756  0.0758  0.6069
18168TIP3   OH275918   5.784   1.648  12.620  0.3660 -0.6665  0.1030
18168TIP3    H175919   5.727   1.676  12.548  0.4539 -0.0859  0.2531
18168TIP3    H275920   5.804   1.729  12.667  1.4017 -0.8540 -0.0099
18169TIP3   OH275921   4.041   5.385   4.661  0.0823  0.0124  0.1603
18169TIP3    H175922   4.015   5.476   4.648 -2.1073  0.0474  3.4509
18169TIP3    H275923   3.971   5.333   4.621  0.8021 -0.2494 -0.8020
18170TIP3   OH275924   1.939   1.069  14.918  0.1500  0.1893  0.0098
18170TIP3    H175925   1.872   1.029  14.863 -1.7077  0.9769  1.5327
18170TIP3    H275926   2.016   1.077  14.862 -0.8585 -1.2450 -1.6757
18171TIP3   OH275927   4.792   5.302  10.341  0.0171  0.0114  0.1617
18171TIP3    H175928   4.824   5.392  10.349  0.6485 -0.2355  0.5108
18171TIP3    H275929   4.814   5.277  10.252 -1.7591  0.7925 -0.5287
18172TIP3   OH275930   3.216   3.056   1.535  0.1943  0.3695  0.2960
18172TIP3    H175931   3.224   3.152   1.535  2.5035  0.2315 -0.9096
18172TIP3    H275932   3.226   3.031   1.443 -1.4443 -1.0083  0.4383
18173TIP3   OH275933   1.613   5.562   5.125 -0.2765  0.2536 -0.3231
18173TIP3    H175934   1.588   5.475   5.094 -0.1466  0.1065 -0.0215
18173TIP3    H275935   1.547   5.584   5.191 -1.4537  1.2147 -1.7579
18174TIP3   OH275936   3.366   4.986   5.036  0.4024 -0.1530 -0.0777
18174TIP3    H175937   3.273   5.003   5.020  0.4048  0.1202  0.1799
18174TIP3    H275938   3.377   4.892   5.018  0.2722  0.0034 -0.9814
18175TIP3   OH275939   6.697   6.092  16.080 -0.0119 -0.3056  0.2037
18175TIP3    H175940   6.770   6.088  16.019 -0.6053 -0.0501 -0.5439
18175TIP3    H275941   6.676   6.000  16.098  0.3192 -0.3810  0.2023
18176TIP3   OH275942   3.381   6.075  11.353 -0.3480 -0.0601  0.3116
18176TIP3    H175943   3.403   6.109  11.439  1.2615  1.3472 -0.5847
18176TIP3    H275944   3.450   6.109  11.295 -1.6990 -0.4323 -1.6383
18177TIP3   OH275945   6.162   6.741   3.902  1.0997  0.1002 -0.1766
18177TIP3    H175946   6.237   6.692   3.868  0.0417 -1.2691 -0.6240
18177TIP3    H275947   6.198   6.827   3.923  2.8397 -0.5725 -0.1805
18178TIP3   OH275948   5.867   5.140   1.449  0.0988 -0.3300  0.2381
18178TIP3    H175949   5.926   5.074   1.487  1.5973  0.2362 -1.0041
18178TIP3    H275950   5.903   5.224   1.479  2.3563  0.2696 -3.5158
18179TIP3   OH275951   3.926   4.766  11.002 -0.2427  0.2913 -0.5447
18179TIP3    H175952   3.896   4.680  10.973 -0.0721  0.2898 -0.7227
18179TIP3    H275953   4.013   4.750  11.038 -0.5782  0.2478  0.2512
18180TIP3   OH275954   6.146   1.593   6.535  0.2017  0.2123 -0.4101
18180TIP3    H175955   6.064   1.610   6.580  0.1385  0.2142 -0.5264
18180TIP3    H275956   6.127   1.609   6.442  0.2403 -0.1288 -0.4772
18181TIP3   OH275957   5.195   3.089  16.294  0.5727  0.5789  0.5731
18181TIP3    H175958   5.119   3.122  16.247  1.0099  1.2653  0.3380
18181TIP3    H275959   5.159   3.026  16.357 -0.1594  0.7218  0.3063
18182TIP3   OH275960   1.127   3.326  13.654  0.0120  0.0724  0.5167
18182TIP3    H175961   1.086   3.246  13.687 -2.3013  0.6365 -0.7605
18182TIP3    H275962   1.092   3.335  13.565 -0.0831  2.6657  0.7628
18183TIP3   OH275963   5.907   3.677  15.314  0.4135  0.5379 -0.2099
18183TIP3    H175964   5.862   3.627  15.246 -0.6922  1.8665 -0.4992
18183TIP3    H275965   5.882   3.768  15.297  0.7150  0.9780  1.5300
18184TIP3   OH275966   4.301   2.128  11.213 -0.2337  0.2543 -0.0633
18184TIP3    H175967   4.208   2.132  11.234  0.0429  0.1479  1.2298
18184TIP3    H275968   4.305   2.146  11.118 -1.4828  1.1581  0.0282
18185TIP3   OH275969   0.517   6.725   2.888  0.3855  0.2554  0.2779
18185TIP3    H175970   0.594   6.751   2.837  0.7568  0.6030  0.9931
18185TIP3    H275971   0.472   6.661   2.833  1.3837 -0.2292  0.0001
18186TIP3   OH275972   6.117   5.022   5.923 -0.1576 -0.2668  0.2790
18186TIP3    H175973   6.063   5.081   5.975  0.2050 -0.5496  0.9893
18186TIP3    H275974   6.072   4.937   5.929  0.2187 -0.4403  0.6410
18187TIP3   OH275975   4.648   2.144  12.668  0.3378 -0.0847  0.2620
18187TIP3    H175976   4.562   2.185  12.657 -0.5271 -1.9275 -0.1493
18187TIP3    H275977   4.704   2.189  12.605 -0.8343 -0.2079 -0.9197
18188TIP3   OH275978   2.693   0.053  16.711 -0.2561 -0.2586 -0.2163
18188TIP3    H175979   2.786   0.072  16.726 -0.3523 -0.4946  0.7445
18188TIP3    H275980   2.689   0.025  16.620  0.6078 -0.1533 -0.2974
18189TIP3   OH275981   4.049   1.551   1.118 -0.1823  0.7317 -0.0322
18189TIP3    H175982   4.080   1.591   1.200  0.2494 -0.0410  0.1971
18189TIP3    H275983   4.006   1.622   1.071  0.1271  1.3416  0.5849
18190TIP3   OH275984   4.906   3.172  14.767  0.4493  0.0231 -0.4724
18190TIP3    H175985   4.933   3.081  14.758  0.8973 -0.0263  1.1211
18190TIP3    H275986   4.947   3.202  14.848 -0.6699  1.2859 -0.3310
18191TIP3   OH275987   3.293   3.258  10.887  0.0669  0.3964  0.3646
18191TIP3    H175988   3.296   3.323  10.816 -1.0029  0.4962  0.3802
18191TIP3    H275989   3.351   3.188  10.858 -1.3672 -0.1967 -1.2893
18192TIP3   OH275990   1.023   0.740  16.279 -0.1288  0.2831 -0.2968
18192TIP3    H175991   1.101   0.772  16.234  0.7798 -1.4806 -0.0559
18192TIP3    H275992   1.013   0.798  16.354 -1.0533  2.6177 -2.0966
18193TIP3   OH275993   5.206   3.399  14.228 -0.1675  0.4004  0.0577
18193TIP3    H175994   5.166   3.333  14.284 -1.4705  0.9516 -0.1938
18193TIP3    H275995   5.280   3.354  14.186 -0.7064 -0.7276  0.2895
18194TIP3   OH275996   1.887   2.279  15.791 -0.2130 -0.2563  0.1533
18194TIP3    H175997   1.944   2.220  15.841 -0.1586  0.1375  0.5570
18194TIP3    H275998   1.925   2.366  15.803 -0.7371 -0.0266  0.1996
18195TIP3   OH275999   2.828   2.103   1.596  0.1877  0.0983  0.2812
18195TIP3    H176000   2.817   2.131   1.687 -0.7860  1.8404 -0.3444
18195TIP3    H276001   2.753   2.045   1.579  1.0522 -1.2764  0.9228
18196TIP3   OH276002   0.940   2.317   4.272  0.2274  0.2469  0.1245
18196TIP3    H176003   0.857   2.352   4.305 -0.2162  0.4337 -1.1454
18196TIP3    H276004   0.951   2.234   4.319 -0.2573  0.5992  0.8962
18197TIP3   OH276005   6.692   2.110   0.049  0.3961 -0.1317 -0.0358
18197TIP3    H176006   6.641   2.102   0.130 -0.0233  0.5931 -0.2191
18197TIP3    H276007   6.781   2.086   0.074  0.1073 -0.7328  0.4457
18198TIP3   OH276008   0.442   3.014   0.810  0.0806  0.1380  0.4076
18198TIP3    H176009   0.391   2.963   0.874 -0.3257  0.6565  0.4992
18198TIP3    H276010   0.530   3.017   0.847  0.2894 -1.0790  0.0706
18199TIP3   OH276011   1.686   4.294  12.496  0.0614 -0.5399 -0.2511
18199TIP3    H176012   1.716   4.351  12.566  0.7802  0.4982 -1.3659
18199TIP3    H276013   1.620   4.238  12.537  1.3711 -0.8525  1.5530
18200TIP3   OH276014   2.321   0.752   2.737 -0.0759  0.5470  0.3124
18200TIP3    H176015   2.300   0.770   2.645 -0.6494  0.1031  0.3533
18200TIP3    H276016   2.258   0.685   2.763  0.0927  0.6647  1.0307
18201TIP3   OH276017   1.487   3.397   1.469 -0.4090 -0.3510  0.2773
18201TIP3    H176018   1.537   3.399   1.387 -0.6016 -0.3670  0.1566
18201TIP3    H276019   1.466   3.489   1.486 -2.0014 -0.4724 -0.7225
18202TIP3   OH276020   3.015   5.382   5.636  0.2532  0.2490  0.3116
18202TIP3    H176021   3.068   5.345   5.707  1.3682 -0.6682 -0.9619
18202TIP3    H276022   2.936   5.328   5.635  0.8737 -0.6755 -0.0570
18203TIP3   OH276023   5.513   3.115  15.160 -0.1535 -0.0062  0.4303
18203TIP3    H176024   5.583   3.166  15.200  0.1268 -0.4817  0.5548
18203TIP3    H276025   5.522   3.028  15.198 -1.7403  0.2963  1.5921
18204TIP3   OH276026   3.476   3.675  14.462 -0.6476  0.3774 -0.0350
18204TIP3    H176027   3.409   3.611  14.488  0.4011 -0.8485 -0.2705
18204TIP3    H276028   3.441   3.715  14.382 -0.6392 -1.0189 -0.7636
18205TIP3   OH276029   0.764   0.479   1.065 -0.5858 -0.1955 -0.0522
18205TIP3    H176030   0.804   0.429   0.994  2.6481  2.5536 -0.3932
18205TIP3    H276031   0.675   0.497   1.034 -0.3285 -1.8006 -1.9166
18206TIP3   OH276032   5.259   3.153  13.641  0.1652 -0.0458  0.0197
18206TIP3    H176033   5.248   3.187  13.730  0.3399  0.1155 -0.0185
18206TIP3    H276034   5.180   3.180  13.594  0.1578  0.0314  0.0764
18207TIP3   OH276035   5.289   6.682  10.814  0.4040  0.5263 -0.8366
18207TIP3    H176036   5.288   6.747  10.883 -1.0553  0.2162 -0.5307
18207TIP3    H276037   5.323   6.728  10.737 -1.8971  2.1094 -1.0151
18208TIP3   OH276038   5.239   5.607  16.091  0.2143 -0.3136  0.2651
18208TIP3    H176039   5.333   5.617  16.105  0.2362 -1.0379  0.6651
18208TIP3    H276040   5.199   5.626  16.176 -0.0562  0.5526 -0.0388
18209TIP3   OH276041   5.636   6.371   3.190  0.0404 -0.1832  0.2175
18209TIP3    H176042   5.647   6.277   3.175 -0.8373 -0.3668  0.6588
18209TIP3    H276043   5.554   6.393   3.146  0.5535  0.5074 -0.4079
18210TIP3   OH276044   3.878   0.261   3.605 -0.2708 -0.3366  0.4913
18210TIP3    H176045   3.868   0.202   3.680  2.0379 -0.9232  0.4160
18210TIP3    H276046   3.848   0.346   3.637  0.4938 -0.6228  2.0322
18211TIP3   OH276047   5.778   5.219   3.963 -0.1168  0.2413  0.3208
18211TIP3    H176048   5.828   5.138   3.980 -1.0019 -0.4642 -0.3781
18211TIP3    H276049   5.827   5.263   3.893  0.3083  0.2697  0.6288
18212TIP3   OH276050   6.113   1.961   2.825 -0.6801  0.6013 -0.0129
18212TIP3    H176051   6.021   1.938   2.838 -0.4803  0.8329  2.1887
18212TIP3    H276052   6.154   1.945   2.910  1.1083  1.4817 -0.6570
18213TIP3   OH276053   6.708   1.330  13.753  1.2915  0.5484 -0.1197
18213TIP3    H176054   6.706   1.359  13.662 -0.2740 -1.0754 -0.6541
18213TIP3    H276055   6.763   1.252  13.753 -1.4293 -1.5185 -0.4322
18214TIP3   OH276056   4.303   6.506  13.924 -0.3373  0.3280 -0.0625
18214TIP3    H176057   4.378   6.454  13.896  0.1040  1.0079 -0.1780
18214TIP3    H276058   4.273   6.464  14.005  0.3693  0.2393  0.1617
18215TIP3   OH276059   4.940   1.937   0.316  0.4471 -0.0776  0.1598
18215TIP3    H176060   4.872   1.984   0.267  0.1253 -0.8434 -0.1429
18215TIP3    H276061   4.970   2.000   0.382  0.7211  0.9043 -0.8517
18216TIP3   OH276062   3.757   3.962  14.350 -0.3018  0.0633  0.6660
18216TIP3    H176063   3.688   4.000  14.297 -0.2694 -1.9004 -0.8835
18216TIP3    H276064   3.831   4.021  14.339 -0.6464  0.2741 -0.5852
18217TIP3   OH276065   3.118   4.009   2.675 -0.2999  0.3426 -0.2913
18217TIP3    H176066   3.137   4.086   2.620  0.5537  2.2189  2.4468
18217TIP3    H276067   3.032   3.980   2.646  0.0903  1.2163 -2.5753
18218TIP3   OH276068   4.982   5.226   0.221  0.4037  0.1674 -0.1782
18218TIP3    H176069   4.936   5.309   0.207 -0.1654  0.1157  1.2744
18218TIP3    H276070   5.010   5.229   0.312  0.2908 -1.2767 -0.0777
18219TIP3   OH276071   1.014   3.879   5.308 -0.2108  0.1719 -0.0993
18219TIP3    H176072   1.011   3.898   5.401 -1.4910  0.9014 -0.2726
18219TIP3    H276073   1.084   3.814   5.299  1.3465  1.5825  1.0910
18220TIP3   OH276074   1.396   2.318  16.467  0.2216  0.5757 -0.6246
18220TIP3    H176075   1.397   2.234  16.513  0.5628  0.2118 -1.2927
18220TIP3    H276076   1.423   2.297  16.378 -0.8194  1.2171 -1.1087
18221TIP3   OH276077   3.987   5.647  17.059 -0.3978  0.1445  0.2152
18221TIP3    H176078   4.041   5.568  17.065 -0.3023  0.2294  0.4841
18221TIP3    H276079   4.010   5.685  16.974 -0.4535 -0.1242  0.0803
18222TIP3   OH276080   5.940   0.513  13.895  0.2934 -0.1990  0.4426
18222TIP3    H176081   5.879   0.469  13.954 -1.1261  1.2954  0.1498
18222TIP3    H276082   5.887   0.540  13.821  1.7301 -0.6066 -0.7906
18223TIP3   OH276083   1.163   4.520  14.742 -0.0309 -0.5045  0.2039
18223TIP3    H176084   1.257   4.540  14.735 -0.2368  0.1056 -0.9767
18223TIP3    H276085   1.124   4.602  14.771 -0.0534 -1.1544  2.1846
18224TIP3   OH276086   0.716   5.536   2.626  0.7235 -0.4231  0.6569
18224TIP3    H176087   0.776   5.540   2.700 -0.2434 -0.7811  1.4963
18224TIP3    H276088   0.719   5.445   2.597  0.9665 -0.3247  0.3675
18225TIP3   OH276089   4.865   5.533   0.819  0.4254 -0.3651 -0.1528
18225TIP3    H176090   4.810   5.456   0.804 -0.7441  0.2754  0.7211
18225TIP3    H276091   4.899   5.555   0.732  0.4476 -1.6088 -0.4812
18226TIP3   OH276092   2.808   6.554   1.223  0.2065  0.0654  0.1068
18226TIP3    H176093   2.865   6.576   1.149  0.5766  1.8502  0.8632
18226TIP3    H276094   2.831   6.618   1.291 -0.6591 -1.0425  1.5010
18227TIP3   OH276095   1.016   4.168   1.524  0.0031 -0.6576 -0.0751
18227TIP3    H176096   1.041   4.260   1.514 -0.9931 -0.2827  0.7552
18227TIP3    H276097   0.922   4.166   1.505 -0.2247 -1.3044  1.0157
18228TIP3   OH276098   5.787   5.924   2.843 -0.2684  0.0995  0.4489
18228TIP3    H176099   5.844   5.961   2.911  0.3459  0.2460 -0.1361
18228TIP3    H276100   5.719   5.991   2.829  0.2882  0.5962  0.0764
18229TIP3   OH276101   1.118   5.968   0.808  0.6233  0.4857 -0.5272
18229TIP3    H176102   1.034   5.949   0.765  1.4482  2.0638 -3.0800
18229TIP3    H276103   1.145   5.884   0.845 -1.5207 -0.3154 -0.6301
18230TIP3   OH276104   0.084   4.463   0.619  0.0892 -0.1805  0.2177
18230TIP3    H176105   0.176   4.444   0.597  0.1586  0.5198 -0.1198
18230TIP3    H276106   0.067   4.409   0.696  1.9476  2.4260  2.6671
18231TIP3   OH276107   1.251   4.348   1.658  0.3501  0.4538 -0.3158
18231TIP3    H176108   1.182   4.408   1.688 -1.1963 -0.8064 -1.1767
18231TIP3    H276109   1.232   4.334   1.565  0.0077 -2.1100  0.0500
18232TIP3   OH276110   4.068   2.461   1.938  0.1671  0.0906 -0.3460
18232TIP3    H176111   4.096   2.462   1.847 -2.3952  0.2153 -1.2110
18232TIP3    H276112   4.014   2.382   1.946  1.3264 -0.5869  1.4292
18233TIP3   OH276113   3.413   6.312   6.044 -0.5282 -0.0774  0.9934
18233TIP3    H176114   3.382   6.309   6.134 -2.0596  1.0065  0.5585
18233TIP3    H276115   3.345   6.267   5.993 -1.3712  2.0699  0.0504
18234TIP3   OH276116   0.773   4.030  12.891  0.5801 -0.1412  0.8946
18234TIP3    H176117   0.819   4.092  12.948  1.2150 -0.7560  1.0550
18234TIP3    H276118   0.820   3.947  12.902  1.8331  0.1051 -1.8396
18235TIP3   OH276119   0.403   2.106   2.755 -0.5334  0.3885  0.0932
18235TIP3    H176120   0.453   2.177   2.794 -2.0988  1.0076  1.0716
18235TIP3    H276121   0.313   2.118   2.787 -0.6009 -2.8842  1.6221
18236TIP3   OH276122   5.622   3.467  17.261 -0.1303  0.3574 -0.0605
18236TIP3    H176123   5.630   3.546  17.315 -0.0485  0.9406 -0.9063
18236TIP3    H276124   5.668   3.399  17.311 -0.8328  0.6552  1.0202
18237TIP3   OH276125   5.064   4.423   6.242 -0.0986 -0.6373  0.0243
18237TIP3    H176126   4.985   4.476   6.231 -0.4693 -1.0024  0.8381
18237TIP3    H276127   5.040   4.358   6.308  1.3032  0.1101  1.3423
18238TIP3   OH276128   3.849   2.860  14.201 -0.3059  0.4680 -0.2504
18238TIP3    H176129   3.939   2.857  14.169 -0.5099 -0.8017 -0.7529
18238TIP3    H276130   3.806   2.927  14.147 -0.1145 -0.2063 -1.2646
18239TIP3   OH276131   5.654   3.727  14.936 -0.0420  0.4408 -0.4080
18239TIP3    H176132   5.647   3.811  14.981  0.1857  0.8469 -1.1215
18239TIP3    H276133   5.748   3.711  14.930 -0.0931 -0.0970  0.1406
18240TIP3   OH276134   1.895   0.512  15.327 -0.4926  0.5413 -0.5735
18240TIP3    H176135   1.928   0.497  15.415  0.0112  0.0590 -0.8386
18240TIP3    H276136   1.838   0.438  15.309 -0.4469  0.5399 -0.7191
18241TIP3   OH276137   5.478   6.624   5.003  0.2144  0.2005  0.5699
18241TIP3    H176138   5.511   6.699   4.955 -0.9646  1.0217  0.9934
18241TIP3    H276139   5.531   6.622   5.083 -0.3762  1.1930  1.0080
18242TIP3   OH276140   1.597   6.388   4.674 -0.2727  0.3972  0.0067
18242TIP3    H176141   1.602   6.315   4.736 -0.0601  0.4793  0.0848
18242TIP3    H276142   1.531   6.447   4.712 -0.5654  0.1682 -0.1397
18243TIP3   OH276143   4.253   4.493   3.240 -0.0472  0.0007  0.0449
18243TIP3    H176144   4.263   4.485   3.145 -0.5498 -0.1942  0.0086
18243TIP3    H276145   4.178   4.551   3.252  0.0086  0.0180  0.3266
18244TIP3   OH276146   3.383   4.864   3.184  0.4860  0.2543 -0.2589
18244TIP3    H176147   3.449   4.817   3.132 -0.4080 -0.6200 -0.6349
18244TIP3    H276148   3.320   4.796   3.210  1.3440  0.4882  2.7388
18245TIP3   OH276149   5.572   1.987  12.389 -0.0879  0.3522  0.5925
18245TIP3    H176150   5.479   1.969  12.376 -0.6581  3.2797 -0.0137
18245TIP3    H276151   5.575   2.048  12.462  1.4052  0.2178  0.6827
18246TIP3   OH276152   4.532   3.300   3.874  0.1358 -0.3879  0.2706
18246TIP3    H176153   4.557   3.280   3.784  0.4624  0.5392  0.1462
18246TIP3    H276154   4.552   3.393   3.885 -1.9483  0.0762  0.6264
18247TIP3   OH276155   0.760   5.740  11.553  0.5477 -0.3954  0.2775
18247TIP3    H176156   0.678   5.750  11.601 -0.1239 -1.1954 -0.6599
18247TIP3    H276157   0.777   5.827  11.517 -0.9610 -0.6565 -1.1621
18248TIP3   OH276158   2.472   5.324   0.521  0.4656 -0.0635  0.1786
18248TIP3    H176159   2.420   5.260   0.570  1.7003 -0.0387  1.5740
18248TIP3    H276160   2.542   5.272   0.481  0.4321  0.1678 -0.1872
18249TIP3   OH276161   4.313   3.490   5.636  0.8289  0.4848  0.2590
18249TIP3    H176162   4.270   3.535   5.708  0.6700  0.4540  0.1850
18249TIP3    H276163   4.255   3.416   5.616  0.6781  0.7061 -0.1461
18250TIP3   OH276164   4.672   0.978   4.515  0.5275 -0.1788  0.0866
18250TIP3    H176165   4.577   0.985   4.517  0.5826  0.5439  1.5178
18250TIP3    H276166   4.703   1.065   4.540  1.6832  0.9926 -4.5072
18251TIP3   OH276167   3.694   3.389  13.731 -0.5007 -1.1243 -0.1295
18251TIP3    H176168   3.626   3.455  13.715 -0.5465 -1.3552 -0.9641
18251TIP3    H276169   3.664   3.313  13.682  0.2313 -1.3196 -0.2810
18252TIP3   OH276170   6.358   1.022   1.285 -0.2913 -0.9071 -0.7858
18252TIP3    H176171   6.396   0.934   1.277  0.7594 -0.3396 -2.7348
18252TIP3    H276172   6.434   1.079   1.293 -0.9657 -0.1393  0.3623
18253TIP3   OH276173   0.663   0.119   1.626  0.1551 -0.4734 -0.0680
18253TIP3    H176174   0.607   0.074   1.689 -0.9991 -0.4076 -1.0049
18253TIP3    H276175   0.660   0.065   1.547  0.0985  0.3690 -0.6573
18254TIP3   OH276176   3.556   4.218   5.002  0.0298 -0.6169  0.0396
18254TIP3    H176177   3.521   4.143   4.953  1.1136 -0.9418 -0.2583
18254TIP3    H276178   3.651   4.212   4.990  0.2625 -0.2625  1.5583
18255TIP3   OH276179   6.157   6.287  13.997  0.1783  0.4952  0.5012
18255TIP3    H176180   6.090   6.341  13.954  0.0208  1.0020  1.3560
18255TIP3    H276181   6.232   6.345  14.005 -0.3651  1.0047  2.4570
18256TIP3   OH276182   5.420   2.553   3.570  0.6319 -0.2513  0.4522
18256TIP3    H176183   5.332   2.566   3.604  0.2310  0.6499 -0.8523
18256TIP3    H276184   5.469   2.629   3.601  0.6293 -0.1268  0.1482
18257TIP3   OH276185   0.854   1.544  15.738 -0.6164  0.2603  0.2649
18257TIP3    H176186   0.907   1.465  15.733 -0.2910  0.5033 -0.2607
18257TIP3    H276187   0.901   1.600  15.800 -1.3788 -0.3405  1.4120
18258TIP3   OH276188   0.591   1.745  16.465 -0.6203 -0.0500 -0.2039
18258TIP3    H176189   0.541   1.677  16.420  1.6594 -0.2974 -2.6084
18258TIP3    H276190   0.635   1.699  16.537  0.4688 -1.0663 -1.4718
18259TIP3   OH276191   3.953   3.911  15.378  0.1705  0.4825 -0.4472
18259TIP3    H176192   3.922   3.901  15.468  2.5387  3.5437  0.8905
18259TIP3    H276193   3.944   3.824  15.340  0.1910 -1.2750  3.1420
18260TIP3   OH276194   6.356   4.832   3.785  0.3736  0.2037  0.1911
18260TIP3    H176195   6.385   4.833   3.876  1.3577  1.7352 -0.1068
18260TIP3    H276196   6.437   4.817   3.735 -0.3848 -2.3913 -0.4063
18261TIP3   OH276197   0.420   4.340  16.612  0.1231 -0.2210 -0.2560
18261TIP3    H176198   0.360   4.352  16.538  0.2250  1.7449 -0.0795
18261TIP3    H276199   0.508   4.347  16.573  0.1773  1.0082  0.0264
18262TIP3   OH276200   5.980   5.480  16.393 -0.0447  0.1808  0.2719
18262TIP3    H176201   6.044   5.452  16.328 -1.0087  0.2346 -0.7371
18262TIP3    H276202   6.025   5.548  16.443  0.6572  0.2685 -0.4545
18263TIP3   OH276203   4.451   5.541   3.906  0.6903  0.1573 -0.2642
18263TIP3    H176204   4.425   5.627   3.940  2.1482  0.4860  0.1005
18263TIP3    H276205   4.406   5.533   3.822  0.1215  1.0497 -0.0574
18264TIP3   OH276206   1.073   4.943  14.073 -0.0787  0.3060 -0.4770
18264TIP3    H176207   1.063   4.924  14.166  0.1509  2.4048  0.0123
18264TIP3    H276208   0.996   4.994  14.050 -0.0687 -0.0789 -1.4096
18265TIP3   OH276209   2.789   6.021  14.692  0.3568 -0.2054  0.0222
18265TIP3    H176210   2.814   5.943  14.642  2.5506 -0.0542  0.8143
18265TIP3    H276211   2.841   6.017  14.772  1.0478  2.4000 -0.2072
18266TIP3   OH276212   0.312   5.994   6.214  0.1091 -0.5911  0.2577
18266TIP3    H176213   0.269   6.063   6.265 -0.2818 -0.3759 -0.3554
18266TIP3    H276214   0.337   5.929   6.280 -0.2678 -0.2570  0.7468
18267TIP3   OH276215   2.354   6.294   2.829  0.9394 -0.2268  0.6563
18267TIP3    H176216   2.313   6.342   2.758  1.2937 -1.9320 -0.7785
18267TIP3    H276217   2.348   6.202   2.803  1.3468 -0.8984  2.7064
18268TIP3   OH276218   6.313   2.783  11.074 -0.1893 -0.1271  0.1634
18268TIP3    H176219   6.245   2.781  11.007 -0.4291 -3.4020  0.3286
18268TIP3    H276220   6.380   2.723  11.042  0.5038 -0.4128  2.0135
18269TIP3   OH276221   3.656   5.884  14.311 -0.4375  0.0364 -0.1401
18269TIP3    H176222   3.728   5.837  14.355  1.7924  1.7112 -1.7684
18269TIP3    H276223   3.577   5.854  14.356  1.2851 -1.6750  1.9795
18270TIP3   OH276224   3.067   3.453   0.030  0.1014 -0.1652 -0.0616
18270TIP3    H176225   3.129   3.389  -0.003 -0.5107 -0.3755 -0.8193
18270TIP3    H276226   3.055   3.430   0.122  1.4694  0.1476  0.2170
18271TIP3   OH276227   1.807   6.419   3.044  0.1199  0.2113 -0.2908
18271TIP3    H176228   1.777   6.431   3.134 -0.5338  0.2364 -0.5069
18271TIP3    H276229   1.740   6.461   2.990  0.1971 -0.3161 -0.8150
18272TIP3   OH276230   0.689   0.856   1.014 -0.2612  0.1905  0.5061
18272TIP3    H176231   0.751   0.793   0.978  0.3395  2.0118 -1.9299
18272TIP3    H276232   0.710   0.860   1.107  0.9272 -1.7770  0.3736
18273TIP3   OH276233   1.395   1.989   3.302  0.5391 -0.0798 -0.0428
18273TIP3    H176234   1.336   1.917   3.279  0.0920  0.3053 -0.1063
18273TIP3    H276235   1.421   2.026   3.217  0.0549  0.4026  0.0135
18274TIP3   OH276236   4.699   3.474   1.907 -0.5123  0.3186  0.1173
18274TIP3    H176237   4.793   3.487   1.920 -0.4186 -1.3259  1.3988
18274TIP3    H276238   4.659   3.548   1.953  0.1183 -0.3606  1.8568
18275TIP3   OH276239   0.551   1.517   2.090 -0.4392 -0.5216  0.4855
18275TIP3    H176240   0.642   1.499   2.067 -0.5782 -0.0998 -0.4258
18275TIP3    H276241   0.552   1.608   2.121 -0.6444 -0.3059 -0.1210
18276TIP3   OH276242   5.099   6.032   5.208  0.6533 -0.0371 -0.0282
18276TIP3    H176243   5.070   6.115   5.247  1.6044  0.9326 -1.2680
18276TIP3    H276244   5.129   5.980   5.282  1.1994  1.2200  0.6723
18277TIP3   OH276245   2.970   5.317   1.136 -0.4031 -0.4540 -0.1252
18277TIP3    H176246   2.943   5.225   1.134 -0.7070 -0.3625 -1.0617
18277TIP3    H276247   2.919   5.356   1.206  0.5209 -1.2283  1.0082
18278TIP3   OH276248   6.331   0.197   5.443  0.2680 -0.1139  0.1883
18278TIP3    H176249   6.363   0.121   5.395  1.1648  0.6462 -0.4653
18278TIP3    H276250   6.403   0.261   5.438  0.0083  0.3286  1.7706
18279TIP3   OH276251   6.358   5.558  16.577 -0.9826  0.6664 -0.1858
18279TIP3    H176252   6.410   5.621  16.628 -0.4036  0.8060 -0.9234
18279TIP3    H276253   6.389   5.473  16.606 -0.7591  0.7440 -0.1937
18280TIP3   OH276254   6.681   6.238   4.062  0.1029 -0.0045 -0.3130
18280TIP3    H176255   6.608   6.176   4.065 -0.2350  0.2645 -1.9888
18280TIP3    H276256   6.670   6.284   3.979  1.3043  1.1395  0.1244
18281TIP3   OH276257   6.374   6.381   1.062  0.6041 -0.2650 -0.4011
18281TIP3    H176258   6.317   6.304   1.053 -0.6246  0.4885  0.6096
18281TIP3    H276259   6.451   6.349   1.109  0.9512 -1.2640 -1.6172
18282TIP3   OH276260   3.289   2.801   0.508 -0.2702  0.7548 -0.0379
18282TIP3    H176261   3.235   2.753   0.445  1.7629 -0.6423 -0.8148
18282TIP3    H276262   3.319   2.734   0.570  1.0937  1.3568 -0.0177
18283TIP3   OH276263   0.911   3.784  12.776  0.1292 -0.1828 -0.6873
18283TIP3    H176264   0.999   3.747  12.770 -0.2467 -1.8025  2.1048
18283TIP3    H276265   0.897   3.826  12.691  3.8665  0.8739 -0.9502
18284TIP3   OH276266   0.414   0.445  16.179 -0.0187 -0.1649  0.4455
18284TIP3    H176267   0.332   0.469  16.223  0.2461  1.1228  0.2840
18284TIP3    H276268   0.387   0.413  16.093 -0.3039  1.6690 -0.1850
18285TIP3   OH276269   1.582   1.397  12.438 -0.1437 -0.2912 -0.2203
18285TIP3    H176270   1.501   1.347  12.448 -0.6829  0.4047 -1.0164
18285TIP3    H276271   1.647   1.345  12.485 -1.1087 -0.6808  0.7315
18286TIP3   OH276272   5.481   0.346  13.133  0.3018  0.2398 -0.1964
18286TIP3    H176273   5.457   0.315  13.221  2.4692 -3.5493 -0.7171
18286TIP3    H276274   5.556   0.403  13.148 -0.4593  1.0874  0.4929
18287TIP3   OH276275   0.527   2.049   2.521  0.1640  0.4896  0.4617
18287TIP3    H176276   0.496   1.960   2.506 -2.2605  1.4478 -0.8278
18287TIP3    H276277   0.493   2.073   2.607 -1.0422  0.8409 -0.0886
18288TIP3   OH276278   4.406   4.636   0.583 -0.4582  0.1168  0.3585
18288TIP3    H176279   4.496   4.613   0.608 -0.2360 -0.2815 -0.7618
18288TIP3    H276280   4.352   4.600   0.653  0.2513  0.4137  1.0836
18289TIP3   OH276281   5.379   5.390   6.706  0.5598  0.2347 -0.0512
18289TIP3    H176282   5.293   5.385   6.748  0.7280  0.5817  0.3503
18289TIP3    H276283   5.440   5.402   6.779  0.8965  0.4629 -0.3673
18290TIP3   OH276284   0.463   3.469   4.943 -0.0110  0.0267 -0.5233
18290TIP3    H176285   0.380   3.487   4.988  0.6117  0.8883  0.3368
18290TIP3    H276286   0.521   3.436   5.012  1.5226  3.0783 -0.1915
18291TIP3   OH276287   3.139   6.072  12.126 -0.5307  0.4207 -0.4204
18291TIP3    H176288   3.221   6.091  12.173 -1.0305  0.2907  0.5367
18291TIP3    H276289   3.095   6.008  12.181 -0.6369 -0.5864 -1.6528
18292TIP3   OH276290   3.126   1.329  11.353 -0.6081 -0.0400 -0.6126
18292TIP3    H176291   3.189   1.262  11.326 -1.0941 -0.3420 -1.0230
18292TIP3    H276292   3.092   1.363  11.270  1.1252  2.1916 -0.4984
18293TIP3   OH276293   4.658   0.108  12.824  0.2760 -0.6887 -0.0307
18293TIP3    H176294   4.571   0.143  12.846  1.1241  1.1842  0.5954
18293TIP3    H276295   4.693   0.077  12.908  0.1996 -1.5228 -0.2993
18294TIP3   OH276296   5.449   4.293  12.894  0.1940 -0.4365 -0.3130
18294TIP3    H176297   5.384   4.279  12.826 -0.7178  2.2638 -0.0849
18294TIP3    H276298   5.532   4.267  12.854 -0.8215 -3.0023 -0.9225
18295TIP3   OH276299   1.707   0.292  16.806 -0.3620  0.5266  0.7278
18295TIP3    H176300   1.666   0.340  16.878  1.4266  1.2022  1.3273
18295TIP3    H276301   1.750   0.218  16.848 -0.5142  0.1143  0.1668
18296TIP3   OH276302   4.368   4.289  17.188 -0.4746  0.4119 -0.0919
18296TIP3    H176303   4.292   4.346  17.181 -1.2233 -0.3470  1.3725
18296TIP3    H276304   4.364   4.234  17.110  0.0691  2.0654 -1.3518
18297TIP3   OH276305   5.462   1.317   0.331  0.0158  0.3780 -0.2316
18297TIP3    H176306   5.427   1.405   0.344  2.6958  1.4968  0.1547
18297TIP3    H276307   5.555   1.325   0.353  0.3008 -2.6364  0.0753
18298TIP3   OH276308   0.769   2.282  12.184 -0.3003 -0.2622 -0.9004
18298TIP3    H176309   0.861   2.310  12.181 -0.0738 -1.0818 -2.0741
18298TIP3    H276310   0.771   2.189  12.165 -1.1282 -1.0017  2.0739
18299TIP3   OH276311   4.144   5.365   0.950 -0.3271  0.5288  0.2333
18299TIP3    H176312   4.090   5.327   1.019 -1.1058  0.8556 -0.1789
18299TIP3    H276313   4.197   5.432   0.994  0.4925 -0.4754  0.8201
18300TIP3   OH276314   2.801   4.748   2.849  0.3051 -0.4649 -0.1386
18300TIP3    H176315   2.879   4.778   2.801  1.4851 -0.4903  1.6782
18300TIP3    H276316   2.813   4.781   2.938 -0.3847 -2.7847  0.8958
18301TIP3   OH276317   1.543   4.346   3.387  0.2014 -0.0972 -0.0743
18301TIP3    H176318   1.493   4.278   3.342  0.5757  0.6104 -1.6413
18301TIP3    H276319   1.576   4.304   3.466 -1.2155 -1.1435 -0.0018
18302TIP3   OH276320   3.112   2.851   1.223  0.0181  0.1294  0.0532
18302TIP3    H176321   3.058   2.778   1.195 -0.2639  0.1070  0.6270
18302TIP3    H276322   3.191   2.811   1.259  0.9383  0.1996 -1.8034
18303TIP3   OH276323   4.601   2.710  16.220  0.1715  0.0584 -0.1671
18303TIP3    H176324   4.620   2.661  16.141  0.7750 -0.5411  0.3380
18303TIP3    H276325   4.609   2.802  16.194  1.4905 -0.1378 -0.5467
18304TIP3   OH276326   1.125   4.788   2.760 -0.1055  0.2643  0.8157
18304TIP3    H176327   1.148   4.824   2.846 -1.8359 -0.3520  1.5824
18304TIP3    H276328   1.030   4.777   2.763  0.0700 -2.1800 -0.2224
18305TIP3   OH276329   5.801   0.601  17.105 -0.0974  0.4561 -0.1356
18305TIP3    H176330   5.890   0.574  17.129 -0.5404 -0.1471  0.8795
18305TIP3    H276331   5.805   0.697  17.102  0.6371  0.4276 -0.3109
18306TIP3   OH276332   2.529   0.846  14.169 -0.0627  0.5071  0.2398
18306TIP3    H176333   2.547   0.790  14.244 -0.3125 -1.0313 -0.7766
18306TIP3    H276334   2.565   0.798  14.094 -0.6373  1.5335 -0.7325
18307TIP3   OH276335   1.232   1.487   3.872  0.7216 -0.3371 -0.4547
18307TIP3    H176336   1.204   1.396   3.862  0.8522 -0.1569 -3.8883
18307TIP3    H276337   1.314   1.492   3.823  3.0936  0.7937  3.2306
18308TIP3   OH276338   2.221   2.245   6.803 -0.6001 -0.4030  0.0280
18308TIP3    H176339   2.157   2.286   6.744 -1.9829  0.9841  2.3441
18308TIP3    H276340   2.302   2.292   6.785 -1.4302  1.2852  0.4214
18309TIP3   OH276341   3.005   1.201   3.163  0.2196 -0.0860  0.2507
18309TIP3    H176342   3.020   1.121   3.113  0.0103 -0.7022  1.1719
18309TIP3    H276343   3.040   1.183   3.250 -0.2986  0.6342  0.6163
18310TIP3   OH276344   0.292   5.415  15.831 -0.4913 -0.0624  0.1171
18310TIP3    H176345   0.363   5.350  15.837  0.0378  0.6136  1.5403
18310TIP3    H276346   0.335   5.494  15.798 -0.8357 -0.0010 -0.1892
18311TIP3   OH276347   4.629   0.964  13.692  0.7127  0.1963  0.1424
18311TIP3    H176348   4.645   1.030  13.759 -0.1355  0.7144 -0.1536
18311TIP3    H276349   4.682   0.993  13.617 -0.2153  0.9538 -0.2378
18312TIP3   OH276350   6.580   1.158   2.049  0.1981  0.3870 -0.2245
18312TIP3    H176351   6.663   1.206   2.053  0.9501 -0.7044 -1.5121
18312TIP3    H276352   6.605   1.072   2.016 -1.0799 -0.9754  2.1190
18313TIP3   OH276353   0.152   1.266  12.254 -0.2589  0.5927  0.0552
18313TIP3    H176354   0.057   1.251  12.249 -0.3532  1.2635 -0.2049
18313TIP3    H276355   0.184   1.240  12.168  0.0078 -1.0263  0.6043
18314TIP3   OH276356   2.734   6.184   4.398 -0.1288  0.2649 -0.2717
18314TIP3    H176357   2.650   6.230   4.393 -0.1382  0.1434 -2.4148
18314TIP3    H276358   2.710   6.091   4.401 -0.0680  0.2646  1.9339
18315TIP3   OH276359   6.351   6.228  17.054 -0.3612  0.3152 -0.7440
18315TIP3    H176360   6.441   6.225  17.086 -0.4574 -2.1930 -0.5460
18315TIP3    H276361   6.351   6.171  16.977 -1.6056  0.9533 -1.2442
18316TIP3   OH276362   5.454   1.426  13.824  0.3804 -0.0538 -0.2146
18316TIP3    H176363   5.487   1.501  13.875  0.1214 -1.1929  1.7412
18316TIP3    H276364   5.532   1.390  13.782  0.7859  0.3281  0.1960
18317TIP3   OH276365   3.385   1.043  15.800  0.1161  0.3999  0.2643
18317TIP3    H176366   3.456   1.106  15.810  0.0565  0.8059 -1.5560
18317TIP3    H276367   3.369   1.039  15.706 -2.0631  0.0741  0.5972
18318TIP3   OH276368   1.542   6.266   3.242 -0.0349  0.4416 -0.5423
18318TIP3    H176369   1.566   6.185   3.287 -1.1236  0.7545  0.6500
18318TIP3    H276370   1.512   6.237   3.155  0.5530 -0.3259 -0.4962
18319TIP3   OH276371   5.076   3.664  11.038  0.2435 -0.0238 -0.0519
18319TIP3    H176372   4.988   3.626  11.035  1.0230 -1.8761 -0.8903
18319TIP3    H276373   5.135   3.589  11.045  1.8332  1.0634 -1.1000
18320TIP3   OH276374   2.012   4.221  12.162 -0.5603 -0.1819  0.0855
18320TIP3    H176375   1.920   4.232  12.186 -0.1210  0.9344  1.3775
18320TIP3    H276376   2.050   4.173  12.235 -0.2932 -1.5416 -0.8987
18321TIP3   OH276377   0.010   6.018  13.800 -0.3055  0.1372 -0.6974
18321TIP3    H176378  -0.084   6.009  13.819 -0.1112 -1.0145 -0.1625
18321TIP3    H276379   0.050   6.041  13.884 -0.2399  1.9193 -1.1866
18322TIP3   OH276380   0.554   2.342  14.514  0.5757  0.2898 -0.0693
18322TIP3    H176381   0.581   2.250  14.519  1.9180  0.7604  3.3011
18322TIP3    H276382   0.620   2.384  14.460  1.8892 -0.1518  1.1487
18323TIP3   OH276383   0.220   0.472   1.259 -0.1469 -0.1728  0.3149
18323TIP3    H176384   0.131   0.440   1.273 -0.5691  1.0077  0.4692
18323TIP3    H276385   0.240   0.447   1.168 -1.6454  1.7756 -0.6195
18324TIP3   OH276386   1.386   4.711  13.344  0.3178  0.5750 -0.3051
18324TIP3    H176387   1.390   4.805  13.362  2.3506  0.7599 -1.4026
18324TIP3    H276388   1.350   4.705  13.255  0.6144  0.3466 -0.4106
18325TIP3   OH276389   0.828   0.211  12.041  0.0790  0.7104 -0.0137
18325TIP3    H176390   0.810   0.160  11.962  0.3158  2.0162 -0.9514
18325TIP3    H276391   0.744   0.217  12.086  0.3826 -2.0175  1.1133
18326TIP3   OH276392   6.396   0.988   4.188 -0.3762  0.1087  0.1422
18326TIP3    H176393   6.457   0.995   4.115  0.7871  1.6052  1.1990
18326TIP3    H276394   6.309   0.998   4.148  0.2081  0.5941 -1.0561
18327TIP3   OH276395   0.213   4.273  10.845  0.6600  0.1169  0.2688
18327TIP3    H176396   0.143   4.219  10.811 -1.0359  0.8638  2.3472
18327TIP3    H276397   0.293   4.227  10.820 -0.5863 -1.3970 -1.1358
18328TIP3   OH276398   3.963   4.305  16.577 -0.1197 -0.3122 -0.3315
18328TIP3    H176399   3.892   4.369  16.574  0.5163  0.6334  2.1991
18328TIP3    H276400   3.920   4.222  16.597 -0.5728  0.1235  0.5293
18329TIP3   OH276401   2.105   6.697  17.210 -0.1301  0.3479  0.1920
18329TIP3    H176402   2.166   6.625  17.196  0.7164  1.1471 -0.3418
18329TIP3    H276403   2.159   6.776  17.204 -1.3636  1.1278 -1.3051
18330TIP3   OH276404   5.051   3.177   4.560 -0.7612  0.3228  0.2583
18330TIP3    H176405   5.121   3.225   4.516 -1.2093  1.8984  1.1999
18330TIP3    H276406   4.970   3.218   4.529 -1.1743 -0.0337  0.8404
18331TIP3   OH276407   5.809   5.136   0.804 -0.1152  0.1383  0.5930
18331TIP3    H176408   5.803   5.168   0.894 -0.1002  2.0297 -0.0200
18331TIP3    H276409   5.868   5.198   0.761 -0.9787 -0.0749 -0.9677
18332TIP3   OH276410   5.061   3.165   0.303  0.4224  0.4442  0.2091
18332TIP3    H176411   5.042   3.104   0.232  0.8139 -0.5993  0.9808
18332TIP3    H276412   5.156   3.161   0.314  0.3068  0.1279  1.1862
18333TIP3   OH276413   0.832   0.555   1.305  0.0677 -0.2282  0.0446
18333TIP3    H176414   0.924   0.530   1.317  0.3905  0.1088 -1.5299
18333TIP3    H276415   0.810   0.525   1.217 -1.1242  0.3590  0.1154
18334TIP3   OH276416   5.314   6.167   3.064 -0.0745  0.1233 -0.5462
18334TIP3    H176417   5.252   6.095   3.071  0.7280 -0.5897 -0.5367
18334TIP3    H276418   5.395   6.132   3.100  0.8571  0.3664 -2.2789
18335TIP3   OH276419   3.172   0.381   0.941  0.3858  0.5272  0.0980
18335TIP3    H176420   3.155   0.413   1.030 -0.3232 -0.5359  0.3637
18335TIP3    H276421   3.210   0.294   0.954  0.1046  0.2871 -0.6344
18336TIP3   OH276422   4.290   2.779  13.147  0.0412  0.1608  0.0490
18336TIP3    H176423   4.253   2.815  13.067  2.8809 -1.1017 -2.0178
18336TIP3    H276424   4.256   2.690  13.152 -0.6009  0.4285  0.6220
18337TIP3   OH276425   3.355   0.211   1.878 -0.5450 -0.3432  0.2320
18337TIP3    H176426   3.339   0.279   1.812  0.9667 -0.9437 -0.7958
18337TIP3    H276427   3.286   0.146   1.861  0.9619 -1.4687 -2.1625
18338TIP3   OH276428   3.726   2.787   4.704 -0.3486  0.3395  0.1895
18338TIP3    H176429   3.676   2.747   4.775  1.0197 -0.4761  0.7317
18338TIP3    H276430   3.699   2.740   4.625  0.8196 -1.3334  0.7365
18339TIP3   OH276431   6.696   1.267  12.898  0.0505  0.2446 -0.2935
18339TIP3    H176432   6.680   1.360  12.885  0.0038  0.5177  1.4854
18339TIP3    H276433   6.786   1.262  12.931  0.1544 -0.3758 -0.6451
18340TIP3   OH276434   3.796   3.474  11.344  0.2598  0.5810  0.4953
18340TIP3    H176435   3.810   3.458  11.251  0.0689  1.5910  0.2792
18340TIP3    H276436   3.862   3.540  11.367 -0.3206  1.0409  0.8517
18341TIP3   OH276437   1.834   0.465   2.999 -0.2381  0.9239  0.1931
18341TIP3    H176438   1.881   0.540   3.035  2.4370 -0.1503 -0.8042
18341TIP3    H276439   1.855   0.393   3.058 -2.0399  0.7313  0.6371
18342TIP3   OH276440   0.439   3.456   0.350 -0.3153 -0.3598 -0.0468
18342TIP3    H176441   0.387   3.534   0.333 -0.1974 -0.3536 -0.3920
18342TIP3    H276442   0.384   3.383   0.322 -1.2783 -0.5697  2.2259
18343TIP3   OH276443   2.788   3.745  12.618  0.2523  0.1041  0.8510
18343TIP3    H176444   2.717   3.777  12.674 -0.2498  2.1094 -0.7984
18343TIP3    H276445   2.776   3.650  12.617 -2.4967  0.3483  0.6089
18344TIP3   OH276446   2.577   5.780   4.791  0.3924 -0.0727  0.2817
18344TIP3    H176447   2.525   5.734   4.725  1.2983  1.8170 -1.8870
18344TIP3    H276448   2.666   5.781   4.756  0.8217  1.3774  1.3076
18345TIP3   OH276449   6.583   3.527  16.177  0.9844  0.7535  0.1897
18345TIP3    H176450   6.546   3.600  16.126  1.5584 -0.2568 -1.7667
18345TIP3    H276451   6.672   3.517  16.144  0.0403 -2.6832 -1.8322
18346TIP3   OH276452   2.728   3.336   6.514  0.3468 -0.5920  0.2390
18346TIP3    H176453   2.743   3.254   6.562  0.2998 -0.8815 -0.2317
18346TIP3    H276454   2.740   3.312   6.422 -1.6960 -0.5428 -0.0810
18347TIP3   OH276455   0.403   6.630  12.829 -0.2431  0.6449 -0.0687
18347TIP3    H176456   0.385   6.620  12.736  0.6098 -1.7009 -0.0609
18347TIP3    H276457   0.403   6.724  12.844  1.5040  1.2215 -2.8483
18348TIP3   OH276458   1.766   4.683  13.085 -0.2499 -0.0703  0.0266
18348TIP3    H176459   1.736   4.669  13.174  0.6888  0.3266  0.4231
18348TIP3    H276460   1.754   4.599  13.042 -0.5286 -0.3185  0.5815
18349TIP3   OH276461   5.547   5.830  11.635 -0.1689  0.1477 -0.7299
18349TIP3    H176462   5.549   5.869  11.547 -0.0059  2.6446  0.3033
18349TIP3    H276463   5.609   5.882  11.686  0.8482 -2.1878  0.5634
18350TIP3   OH276464   4.346   6.268  14.544 -0.4361  0.2728 -0.4148
18350TIP3    H176465   4.360   6.262  14.639  0.5158 -0.5724 -0.5917
18350TIP3    H276466   4.434   6.270  14.507 -0.7805  1.6792 -1.2424
18351TIP3   OH276467   2.377   1.876   1.411  0.1991  0.3463 -0.4132
18351TIP3    H176468   2.297   1.926   1.392  1.3230  1.2102 -3.6549
18351TIP3    H276469   2.346   1.793   1.446 -1.9989  1.3717  0.2726
18352TIP3   OH276470   3.701   0.580  15.966  0.1571 -0.5893  0.2680
18352TIP3    H176471   3.703   0.501  15.911 -0.9101  0.3031 -1.1200
18352TIP3    H276472   3.781   0.628  15.941 -0.2745 -0.2330 -0.4764
18353TIP3   OH276473   6.252   4.347  16.158  0.3026 -0.4521  0.9312
18353TIP3    H176474   6.270   4.441  16.166  0.2497 -0.4276  0.7633
18353TIP3    H276475   6.339   4.307  16.153  0.3730 -0.5402  2.3408
18354TIP3   OH276476   1.910   6.590  16.448  0.0845 -0.2219 -0.7682
18354TIP3    H176477   1.929   6.607  16.540  0.8364 -2.1065 -0.5261
18354TIP3    H276478   1.945   6.666  16.401 -0.0817  0.6319  0.4642
18355TIP3   OH276479   2.554   5.124  15.211 -0.1527 -0.5055  0.1449
18355TIP3    H176480   2.467   5.083  15.210 -0.9778  1.1333 -1.7383
18355TIP3    H276481   2.579   5.123  15.303 -0.9473 -3.4149  0.4338
18356TIP3   OH276482   4.153   2.204   0.969  0.1805 -0.1581  0.0447
18356TIP3    H176483   4.214   2.175   1.037 -0.4194  0.3623  0.8252
18356TIP3    H276484   4.066   2.186   1.006 -0.1554  0.2756 -0.5168
18357TIP3   OH276485   0.168   5.524   0.738 -0.3742  0.2808 -0.5591
18357TIP3    H176486   0.166   5.572   0.821 -2.5680 -0.6317 -0.0299
18357TIP3    H276487   0.217   5.444   0.757 -1.2893 -0.1572  0.0247
18358TIP3   OH276488   5.647   1.442  16.283  0.7183 -0.2898  1.0257
18358TIP3    H176489   5.656   1.366  16.339 -0.4001 -0.8667  0.4585
18358TIP3    H276490   5.563   1.480  16.307  0.4340 -0.2860  0.0623
18359TIP3   OH276491   1.175   1.872   6.595  0.4924  0.3312  0.6605
18359TIP3    H176492   1.193   1.841   6.684  2.0883  1.3495  0.7254
18359TIP3    H276493   1.097   1.927   6.604  1.7640  2.0305  1.8205
18360TIP3   OH276494   6.055   2.854  13.022 -0.0229  0.0851 -0.0160
18360TIP3    H176495   6.062   2.890  12.933  0.0193  1.8467  0.6603
18360TIP3    H276496   5.967   2.818  13.026  0.0138 -0.1247 -0.7927
18361TIP3   OH276497   5.707   6.351  12.423  0.5351 -0.0028  0.3864
18361TIP3    H176498   5.724   6.293  12.349  0.7324  1.6342 -0.9323
18361TIP3    H276499   5.773   6.328  12.488  0.6799 -1.1515 -0.1514
18362TIP3   OH276500   4.829   4.858   2.299  0.1287 -0.6665  0.2076
18362TIP3    H176501   4.871   4.863   2.213 -1.2909  0.0603 -0.4821
18362TIP3    H276502   4.851   4.771   2.331  1.4742 -0.6052 -0.4569
18363TIP3   OH276503   5.629   0.491  10.698 -0.2906 -0.1201  0.6028
18363TIP3    H176504   5.663   0.579  10.716  1.2988 -0.6235  0.2889
18363TIP3    H276505   5.698   0.450  10.645 -0.7203 -1.7490  1.2460
18364TIP3   OH276506   3.548   5.890  16.648  0.0103 -0.2011  0.1126
18364TIP3    H176507   3.453   5.903  16.635  0.1657  1.2723  0.2102
18364TIP3    H276508   3.583   5.888  16.559 -0.1411 -1.1204  0.0640
18365TIP3   OH276509   2.258   2.838  13.558  0.4660  0.5992 -0.2181
18365TIP3    H176510   2.340   2.850  13.606  0.8984 -3.3821  0.3713
18365TIP3    H276511   2.192   2.825  13.626 -0.1285  0.9289 -0.7150
18366TIP3   OH276512   5.136   5.821   4.007  0.1201  0.4574 -0.3399
18366TIP3    H176513   5.088   5.880   3.948  1.7878  2.0710 -0.1662
18366TIP3    H276514   5.189   5.767   3.949 -0.9968 -0.5448 -0.4684
18367TIP3   OH276515   6.552   5.990  11.348  0.3711  0.1691 -0.5083
18367TIP3    H176516   6.474   5.984  11.403  0.0752 -0.0025 -0.9417
18367TIP3    H276517   6.584   6.079  11.360 -0.0957  0.3535 -0.6019
18368TIP3   OH276518   5.896   0.562   3.413 -0.2582 -0.3627  0.0915
18368TIP3    H176519   5.913   0.654   3.433  1.4014 -0.8789  1.2464
18368TIP3    H276520   5.967   0.537   3.354 -1.7209 -0.4769 -1.7421
18369TIP3   OH276521   6.198   1.118   3.899  0.7543 -0.2566 -0.5998
18369TIP3    H176522   6.187   1.027   3.928  2.7991 -0.1269  0.8331
18369TIP3    H276523   6.166   1.171   3.972  0.9119  0.1548 -0.8263
18370TIP3   OH276524   3.545   0.053   5.027  0.0589  0.1557  0.5386
18370TIP3    H176525   3.496   0.070   5.107 -0.5014 -1.1062  0.4829
18370TIP3    H276526   3.614   0.119   5.027 -1.5275  1.9169  0.6857
18371TIP3   OH276527   1.793   2.277  15.500 -0.3625  0.0856  0.1845
18371TIP3    H176528   1.881   2.267  15.464 -0.1008  0.4465  0.7175
18371TIP3    H276529   1.802   2.260  15.594 -0.9976 -0.6006  0.1340
18372TIP3   OH276530   3.925   6.014   4.875 -0.1859  0.2090  0.2872
18372TIP3    H176531   3.910   5.925   4.907  0.3384  0.3246  0.8933
18372TIP3    H276532   3.840   6.043   4.842 -0.4210 -0.4204  0.3236
18373TIP3   OH276533   5.505   5.529   5.993 -0.1771  0.6245  0.4549
18373TIP3    H176534   5.414   5.511   6.017 -0.0606 -0.6242  0.0141
18373TIP3    H276535   5.512   5.504   5.901  0.6839  0.4147  0.5644
18374TIP3   OH276536   1.218   0.750   5.013 -0.1390  0.1605 -0.1556
18374TIP3    H176537   1.268   0.829   5.031  0.5630 -0.2203 -0.4076
18374TIP3    H276538   1.142   0.781   4.963  0.3671  0.6173 -0.6485
18375TIP3   OH276539   0.360   0.792  10.632  0.5262 -0.3022 -0.2569
18375TIP3    H176540   0.268   0.819  10.643  0.4450  0.4049 -2.2239
18375TIP3    H276541   0.362   0.748  10.548  1.9494 -0.5893 -0.0942
18376TIP3   OH276542   4.202   0.329  10.735 -0.0635 -0.1926 -0.6004
18376TIP3    H176543   4.219   0.244  10.777  0.5792 -0.0695 -0.6012
18376TIP3    H276544   4.147   0.376  10.798  1.1867  0.1329  0.3074
18377TIP3   OH276545   2.733   4.954  12.204 -0.0141 -0.0946  0.2089
18377TIP3    H176546   2.808   4.994  12.161 -0.0815 -0.7388 -0.5342
18377TIP3    H276547   2.734   4.863  12.175 -0.1779 -0.5148  1.4314
18378TIP3   OH276548   4.912   1.283   1.270  0.1960  0.4533 -0.0297
18378TIP3    H176549   4.972   1.275   1.195 -1.9544 -1.4497 -1.6910
18378TIP3    H276550   4.895   1.377   1.276  1.2881  0.7753 -1.2006
18379TIP3   OH276551   1.026   0.608  11.936 -0.0212  0.0364  0.0647
18379TIP3    H176552   1.067   0.694  11.946  0.0790  0.2394 -1.7586
18379TIP3    H276553   0.941   0.627  11.897 -0.0034 -0.6994 -0.3500
18380TIP3   OH276554   0.065   6.555  13.161 -0.2788 -0.3229 -0.0005
18380TIP3    H176555   0.126   6.621  13.194  1.5496 -1.6921 -0.4474
18380TIP3    H276556   0.067   6.566  13.066 -1.5566  0.2769  0.0266
18381TIP3   OH276557   6.537   1.020  12.840 -0.1072  0.4160  0.3685
18381TIP3    H176558   6.559   1.106  12.875 -0.1960  1.3179 -1.6601
18381TIP3    H276559   6.441   1.021  12.832  0.0046  0.9858 -1.5471
18382TIP3   OH276560   0.180   3.825  11.612 -0.3551 -0.7044 -0.1208
18382TIP3    H176561   0.097   3.871  11.598  0.0479 -0.3068 -1.3113
18382TIP3    H276562   0.203   3.845  11.703 -0.1810  1.5349 -0.5776
18383TIP3   OH276563   3.342   1.950  15.012  0.8732  0.4490  0.0641
18383TIP3    H176564   3.411   2.015  14.998 -0.4430  1.8352 -0.2434
18383TIP3    H276565   3.283   1.991  15.074  0.2876 -0.7081  0.3041
18384TIP3   OH276566   5.768   0.860  12.230  0.1459  0.2044 -0.3256
18384TIP3    H176567   5.713   0.923  12.277 -1.3302 -1.0127 -0.3530
18384TIP3    H276568   5.735   0.774  12.257  2.1601 -0.5976 -0.2169
18385TIP3   OH276569   1.959   6.262   5.824  0.0110  0.2221 -0.1495
18385TIP3    H176570   2.000   6.229   5.903  2.4021  2.2823 -0.4038
18385TIP3    H276571   1.934   6.352   5.846 -0.6084  0.3559 -1.3088
18386TIP3   OH276572   0.896   5.935   2.783  0.1909 -0.2010  0.1530
18386TIP3    H176573   0.842   5.955   2.706  2.1714  0.6203 -1.1052
18386TIP3    H276574   0.862   5.993   2.851 -2.3712 -1.7686  0.3381
18387TIP3   OH276575   6.567   1.777  16.966 -0.2369 -0.2676  0.2681
18387TIP3    H176576   6.525   1.838  17.026  0.3268  0.3942 -0.0046
18387TIP3    H276577   6.640   1.740  17.016  0.8829  1.0689 -0.3241
18388TIP3   OH276578   0.865   4.822   1.164 -0.0685 -0.0347 -0.3355
18388TIP3    H176579   0.826   4.818   1.251 -0.0681  0.0503 -0.3319
18388TIP3    H276580   0.955   4.791   1.176  0.1114  0.5207 -0.2041
18389TIP3   OH276581   5.043   2.961   4.016 -0.3486 -0.1711  0.2055
18389TIP3    H176582   4.959   3.004   4.033 -0.5536 -0.8725  1.0782
18389TIP3    H276583   5.107   3.015   4.063 -0.2031  0.7171 -0.9712
18390TIP3   OH276584   4.488   3.354   1.757  0.4185 -0.3063 -0.2337
18390TIP3    H176585   4.546   3.412   1.807  0.6368  0.7617 -1.6592
18390TIP3    H276586   4.539   3.274   1.746  0.2205 -0.7189  1.5242
18391TIP3   OH276587   4.513   3.788  14.909 -0.0621  0.4862  0.1398
18391TIP3    H176588   4.446   3.833  14.960  0.2100  0.7457  0.2677
18391TIP3    H276589   4.596   3.821  14.943  0.1162  1.3058 -1.0243
18392TIP3   OH276590   3.289   4.302  13.840 -0.7833 -0.2957  0.0090
18392TIP3    H176591   3.267   4.333  13.752  1.8803  1.7714 -0.0566
18392TIP3    H276592   3.221   4.238  13.860 -2.5655  0.5269 -2.7732
18393TIP3   OH276593   3.012   4.655   4.500 -0.2345 -0.3384  0.0250
18393TIP3    H176594   3.049   4.735   4.536 -0.6279 -0.1113 -0.0753
18393TIP3    H276595   3.085   4.593   4.500  0.0038 -0.0605  0.3446
18394TIP3   OH276596   3.612   4.979  13.108  0.7080 -0.4051  0.5531
18394TIP3    H176597   3.689   5.032  13.086 -0.7003  2.4515  1.9476
18394TIP3    H276598   3.539   5.024  13.065 -0.2628 -3.0649 -0.7777
18395TIP3   OH276599   6.303   4.046   5.406  0.2641 -0.3365  0.3811
18395TIP3    H176600   6.237   4.087   5.351  0.0411 -2.4284 -0.9801
18395TIP3    H276601   6.379   4.105   5.400 -1.8636  3.2838  3.6223
18396TIP3   OH276602   6.667   5.478  13.261  0.0067  0.0975  0.6257
18396TIP3    H176603   6.577   5.473  13.290 -0.6426  2.2735 -0.7271
18396TIP3    H276604   6.668   5.550  13.198  2.6165 -0.0891  0.3178
18397TIP3   OH276605   1.806   5.322   0.038  0.2187  0.7046 -1.3791
18397TIP3    H176606   1.777   5.232   0.053 -0.8256  1.0274 -1.4071
18397TIP3    H276607   1.812   5.360   0.126 -2.1172  1.4374 -1.4880
18398TIP3   OH276608   2.167   4.030   3.693 -0.1924 -0.6779 -0.1686
18398TIP3    H176609   2.164   4.066   3.604  1.7856 -1.0695 -0.4393
18398TIP3    H276610   2.250   4.061   3.728 -1.0653 -0.3103  1.6728
18399TIP3   OH276611   3.227   3.516  14.783  0.2875  0.6414  0.0176
18399TIP3    H176612   3.250   3.490  14.872 -1.1198  1.4522  0.6565
18399TIP3    H276613   3.131   3.511  14.781  0.3445 -1.6311 -2.1751
18400TIP3   OH276614   5.103   3.914   0.806 -0.1836  0.3133 -0.0605
18400TIP3    H176615   5.017   3.934   0.767  0.5545 -0.4588 -2.2344
18400TIP3    H276616   5.134   3.998   0.840 -0.7421  1.1396 -1.4970
18401TIP3   OH276617   0.924   3.236  10.766  0.1859 -0.2671 -0.3244
18401TIP3    H176618   0.888   3.148  10.759  0.5703 -0.5120  0.7029
18401TIP3    H276619   0.847   3.293  10.770 -0.1636 -0.8007  2.0447
18402TIP3   OH276620   1.641   0.680   2.279 -0.8045 -0.0209 -0.1475
18402TIP3    H176621   1.627   0.760   2.229  0.2247  0.8344  0.8756
18402TIP3    H276622   1.692   0.708   2.355 -1.6527 -1.4192  0.9708
18403TIP3   OH276623   5.580   4.462  17.141 -0.7881 -0.4434 -0.5478
18403TIP3    H176624   5.531   4.519  17.082  1.4617  1.7530 -0.4208
18403TIP3    H276625   5.605   4.519  17.214 -0.9675 -2.3604  1.1042
18404TIP3   OH276626   1.353   2.723  15.981  0.1647  0.0674  0.3012
18404TIP3    H176627   1.435   2.741  16.027  1.8994  1.5534 -3.0454
18404TIP3    H276628   1.290   2.784  16.018  0.9987  0.0630  1.7838
18405TIP3   OH276629   3.343   3.123   3.049 -0.1018  0.2297  0.0924
18405TIP3    H176630   3.313   3.177   3.122 -0.7830 -0.6164  0.4525
18405TIP3    H276631   3.295   3.156   2.973  0.6451  1.1437 -0.0022
18406TIP3   OH276632   0.351   5.074  10.681  0.6316 -0.1800 -0.2036
18406TIP3    H176633   0.319   5.005  10.738  0.8691  0.0865  0.2591
18406TIP3    H276634   0.308   5.059  10.597 -0.8765  0.3093  0.4572
18407TIP3   OH276635   2.652   4.059  13.208 -0.9110  0.0341  0.4966
18407TIP3    H176636   2.693   4.081  13.291 -0.9270  0.7969  0.3080
18407TIP3    H276637   2.627   4.143  13.170  0.5935 -0.1577 -1.0417
18408TIP3   OH276638   2.684   0.316  11.077 -0.4159  0.2947 -0.1788
18408TIP3    H176639   2.754   0.369  11.039  0.1934 -1.0723 -1.0755
18408TIP3    H276640   2.730   0.244  11.120 -1.2327  0.1830  0.5187
18409TIP3   OH276641   3.563   1.876   4.581  0.2432 -0.0939 -0.4849
18409TIP3    H176642   3.536   1.966   4.561  1.6853  0.0374 -2.0448
18409TIP3    H276643   3.642   1.886   4.633  0.3006 -0.4691 -0.4981
18410TIP3   OH276644   6.573   6.136   2.607 -0.5167  0.1329  0.0324
18410TIP3    H176645   6.650   6.186   2.635 -0.7591 -0.3365  1.6881
18410TIP3    H276646   6.605   6.046   2.598 -0.6154  0.1467 -0.4483
18411TIP3   OH276647   4.266   3.707   4.642  0.6917  0.1322 -0.2081
18411TIP3    H176648   4.263   3.680   4.551 -1.0161  1.4112 -0.5859
18411TIP3    H276649   4.308   3.633   4.688 -0.8186 -1.7008 -1.6196
18412TIP3   OH276650   5.296   2.658   0.682  0.1280  0.6887 -0.1480
18412TIP3    H176651   5.372   2.608   0.652  0.7955  1.4685  0.1790
18412TIP3    H276652   5.327   2.703   0.761 -0.8630  0.5504  0.3316
18413TIP3   OH276653   4.571   5.095  15.029  0.3673 -0.5722 -0.0214
18413TIP3    H176654   4.661   5.090  14.996  0.5140  0.5249  0.1768
18413TIP3    H276655   4.517   5.110  14.951  0.7627  2.5262  0.1751
18414TIP3   OH276656   1.119   1.914   0.708 -0.0204  0.1064  0.2713
18414TIP3    H176657   1.166   1.987   0.747 -0.9255  0.5855  0.5020
18414TIP3    H276658   1.108   1.852   0.781  3.8544 -1.9773 -0.6816
18415TIP3   OH276659   4.380   6.189  14.792  0.7413 -0.1181 -0.0029
18415TIP3    H176660   4.355   6.236  14.871 -0.7478  1.4107 -1.2846
18415TIP3    H276661   4.315   6.119  14.784  0.5653  0.0542 -0.1160
18416TIP3   OH276662   0.810   6.517  14.730  0.0703  0.5101 -0.5101
18416TIP3    H176663   0.816   6.613  14.730 -0.1244  0.5257 -0.8081
18416TIP3    H276664   0.815   6.494  14.637  1.1577  0.1615 -0.3795
18417TIP3   OH276665   3.670   0.027  16.275  0.4121 -0.5785  0.4564
18417TIP3    H176666   3.665   0.118  16.306 -0.5052 -0.0156 -1.2426
18417TIP3    H276667   3.746  -0.009  16.322 -0.3575  0.4448  2.6484
18418TIP3   OH276668   6.429   2.169  13.355 -0.1123  0.0972 -0.6887
18418TIP3    H176669   6.506   2.158  13.299 -0.6461  2.5888 -2.0100
18418TIP3    H276670   6.360   2.118  13.313 -0.2298  1.1013 -1.7213
18419TIP3   OH276671   4.227   0.107  10.892  0.1386  0.0495 -0.6169
18419TIP3    H176672   4.176   0.026  10.888 -0.5350  0.5135 -1.9591
18419TIP3    H276673   4.296   0.089  10.956  0.3601 -1.7687 -1.3198
18420TIP3   OH276674   4.449   2.146   1.785  0.2052 -0.1032  0.1491
18420TIP3    H176675   4.382   2.083   1.813  0.1794 -0.7923 -1.3992
18420TIP3    H276676   4.441   2.218   1.848 -0.1338 -1.3767  1.6240
18421TIP3   OH276677   0.170   1.221  11.934  0.9649 -0.2358  0.3396
18421TIP3    H176678   0.168   1.149  11.871  3.3844  0.7032 -0.9698
18421TIP3    H276679   0.156   1.300  11.881 -0.6761  0.3733  1.5900
18422TIP3   OH276680   6.379   1.668   3.572 -0.6427 -0.1292  0.2522
18422TIP3    H176681   6.403   1.759   3.557 -0.3700  0.2679  2.7037
18422TIP3    H276682   6.283   1.668   3.573 -0.6706 -0.1180 -0.8759
18423TIP3   OH276683   3.431   0.998   4.908  0.2498 -0.2710 -0.3270
18423TIP3    H176684   3.405   1.091   4.904  0.2610 -0.3020 -1.2930
18423TIP3    H276685   3.422   0.975   5.000 -0.7571  0.4139 -0.2360
18424TIP3   OH276686   6.358   4.276   4.813  0.1925 -0.1558 -0.0686
18424TIP3    H176687   6.383   4.284   4.722 -0.9677  2.5655 -0.2391
18424TIP3    H276688   6.271   4.236   4.810 -0.2374  0.7687 -0.2469
18425TIP3   OH276689   5.299   0.648   0.077 -0.1915  0.5916 -0.7981
18425TIP3    H176690   5.285   0.722   0.135  0.9578 -1.0505  1.7380
18425TIP3    H276691   5.385   0.663   0.038  0.1490  0.5267 -0.0949
18426TIP3   OH276692   3.127   1.710  16.403 -0.0569 -0.3395 -0.0255
18426TIP3    H176693   3.109   1.802  16.384 -0.5557 -0.6909 -1.4187
18426TIP3    H276694   3.043   1.675  16.434  0.3321 -0.1639  1.2902
18427TIP3   OH276695   5.796   5.989  16.121  0.5549 -0.6423 -0.1757
18427TIP3    H176696   5.886   6.022  16.129  0.9775 -1.6637 -0.5186
18427TIP3    H276697   5.761   5.991  16.210  1.1589 -0.8718  0.0706
18428TIP3   OH276698   0.086   3.061   6.138 -0.3895 -0.1074  0.5862
18428TIP3    H176699   0.069   3.013   6.057 -0.5486  0.6461  0.1571
18428TIP3    H276700   0.007   3.048   6.191 -0.0482 -1.0745  0.8660
18429TIP3   OH276701   1.259   2.027  16.207  0.0555  0.4706 -0.6666
18429TIP3    H176702   1.279   2.047  16.116  0.6819 -0.8644 -0.8398
18429TIP3    H276703   1.194   1.957  16.203 -1.1270  1.5035 -0.0746
18430TIP3   OH276704   1.387   3.363   5.229  0.6037 -0.4000  0.6858
18430TIP3    H176705   1.357   3.297   5.291  0.6873 -1.5465 -0.4324
18430TIP3    H276706   1.452   3.414   5.277  1.6349 -2.0949  1.1700
18431TIP3   OH276707   0.815   5.262   2.630  0.2308 -0.4536 -0.1384
18431TIP3    H176708   0.824   5.278   2.724  0.4834 -1.0152 -0.0621
18431TIP3    H276709   0.879   5.193   2.612  0.7904  0.2505 -0.8869
18432TIP3   OH276710   4.565   0.133   2.606  0.3404 -0.0507 -0.4353
18432TIP3    H176711   4.575   0.041   2.583  0.8470  0.5084 -2.7956
18432TIP3    H276712   4.483   0.160   2.565  0.0695  0.4903  0.4430
18433TIP3   OH276713   5.795   4.719   4.435  0.5061  1.1394 -0.4840
18433TIP3    H176714   5.861   4.650   4.424 -1.0880 -1.0329  2.1239
18433TIP3    H276715   5.814   4.757   4.520 -1.4950  0.4946  0.3078
18434TIP3   OH276716   1.023   2.535  12.128 -0.3152  0.2878 -0.1999
18434TIP3    H176717   1.020   2.475  12.054  0.2130  1.7418 -1.4522
18434TIP3    H276718   1.065   2.614  12.093  0.2304  0.9026  1.7396
18435TIP3   OH276719   3.794   6.603  15.827 -0.1360 -0.3238  0.0680
18435TIP3    H176720   3.780   6.648  15.744  0.2088 -1.2578 -0.5110
18435TIP3    H276721   3.739   6.651  15.889 -0.7365  0.1210 -0.7808
18436TIP3   OH276722   4.451   1.615  12.947 -0.1811 -0.4049 -0.2024
18436TIP3    H176723   4.438   1.546  12.882  0.0441 -1.4080  0.7846
18436TIP3    H276724   4.494   1.686  12.899  1.4562 -1.7471 -0.8061
18437TIP3   OH276725   1.732   6.616  15.188  0.5320  0.0027  0.0937
18437TIP3    H176726   1.659   6.669  15.156 -0.3929 -0.8834  0.6845
18437TIP3    H276727   1.703   6.583  15.273  1.7916 -0.0313  0.5382
18438TIP3   OH276728   1.428   0.141   0.648 -0.2206 -0.3388 -0.4872
18438TIP3    H176729   1.351   0.119   0.700 -0.3455  0.9814 -0.0653
18438TIP3    H276730   1.501   0.140   0.710 -0.4638  1.8410 -0.0916
18439TIP3   OH276731   5.795   5.770   3.337  0.4338  0.0778 -0.3742
18439TIP3    H176732   5.779   5.864   3.332 -1.4999 -0.0747  1.3713
18439TIP3    H276733   5.715   5.730   3.302  0.1570 -0.8541  1.1900
18440TIP3   OH276734   6.044   6.780  14.119 -0.3003  0.6246 -0.9958
18440TIP3    H176735   6.136   6.800  14.103 -0.4950  1.1084 -1.5582
18440TIP3    H276736   6.009   6.758  14.033 -0.4317 -0.7977 -0.6047
18441TIP3   OH276737   0.553   4.874   3.957  0.3052  0.7837  0.4596
18441TIP3    H176738   0.531   4.811   4.025 -0.3840  0.1711 -0.3189
18441TIP3    H276739   0.648   4.867   3.948  0.1943 -0.5199  0.0417
18442TIP3   OH276740   2.479   2.790  17.073 -0.2728  0.2491 -0.3276
18442TIP3    H176741   2.471   2.825  17.162 -0.7354  0.8452 -0.5926
18442TIP3    H276742   2.408   2.725  17.066 -0.0320 -0.0304 -0.1540
18443TIP3   OH276743   3.380   3.625   5.224  0.0101  0.4798  0.2247
18443TIP3    H176744   3.325   3.703   5.219 -0.8348 -0.0467  0.9003
18443TIP3    H276745   3.331   3.558   5.175 -0.3138 -0.1836  1.4116
18444TIP3   OH276746   0.142   3.969  16.906 -0.2962  0.0332 -0.2230
18444TIP3    H176747   0.133   3.874  16.916 -0.2673  0.0122 -0.3828
18444TIP3    H276748   0.182   3.979  16.819  2.3018  0.0621  0.8880
18445TIP3   OH276749   2.109   3.066  11.407  0.2322 -0.1639  0.0061
18445TIP3    H176750   2.192   3.020  11.393  0.2702  0.2264 -1.1728
18445TIP3    H276751   2.056   3.045  11.330  0.1015  1.4354 -0.3831
18446TIP3   OH276752   3.571   5.229   0.009  0.1285  0.3275 -0.4370
18446TIP3    H176753   3.594   5.317  -0.021 -0.7043  0.1272 -1.7625
18446TIP3    H276754   3.652   5.179   0.001  0.5914  0.9392  0.2646
18447TIP3   OH276755   3.905   5.640   5.237 -0.0501  0.0757 -0.1543
18447TIP3    H176756   3.810   5.643   5.224 -0.0445  1.1718  0.0200
18447TIP3    H276757   3.919   5.685   5.320  0.5300 -1.0838  0.3905
18448TIP3   OH276758   2.678   2.215  16.003  0.6921  0.2102 -0.1716
18448TIP3    H176759   2.622   2.140  15.979 -0.1196  0.4618  0.8495
18448TIP3    H276760   2.699   2.257  15.920 -2.0382  1.0683 -0.5230
18449TIP3   OH276761   2.252   4.418   2.703 -0.0142 -0.0173 -0.0563
18449TIP3    H176762   2.290   4.495   2.745  0.0452 -0.0373 -0.0733
18449TIP3    H276763   2.224   4.363   2.776 -1.0615  0.5067 -0.0325
18450TIP3   OH276764   1.679   6.059  10.984  0.4862  0.1091  0.1756
18450TIP3    H176765   1.738   6.016  11.047  0.7186 -0.1890 -0.2387
18450TIP3    H276766   1.599   6.006  10.988  1.5856 -1.9231 -2.1000
18451TIP3   OH276767   2.500   2.771   5.525 -0.0602  0.0109  0.3033
18451TIP3    H176768   2.452   2.846   5.560 -1.1305 -0.7270  0.4889
18451TIP3    H276769   2.574   2.759   5.583  2.4232  3.2400 -1.8273
18452TIP3   OH276770   3.986   1.664   2.584 -0.3497  0.1548 -0.1013
18452TIP3    H176771   4.002   1.570   2.576 -0.6684  0.1455 -0.7177
18452TIP3    H276772   4.054   1.695   2.643 -1.7818 -0.8615  2.2022
18453TIP3   OH276773   0.244   1.719   3.891  0.1619  0.2609 -0.1964
18453TIP3    H176774   0.208   1.730   3.979 -0.1027 -0.3256 -0.2228
18453TIP3    H276775   0.283   1.632   3.892  1.1875  0.7069 -0.3140
18454TIP3   OH276776   4.847   0.975   2.997 -0.1339  0.3643  0.2886
18454TIP3    H176777   4.940   0.989   3.015 -0.5260  1.3964  1.6845
18454TIP3    H276778   4.830   0.885   3.026  0.7825 -0.4926 -1.6599
18455TIP3   OH276779   4.593   6.535   3.968 -0.3564 -0.2390  0.2089
18455TIP3    H176780   4.531   6.583   3.913 -0.8432 -0.3447  0.6558
18455TIP3    H276781   4.623   6.463   3.913 -1.5058 -0.8599  0.3524
18456TIP3   OH276782   4.495   0.337   3.113 -0.2411 -0.1658 -0.0338
18456TIP3    H176783   4.537   0.290   3.041  0.4974  0.1003  0.2128
18456TIP3    H276784   4.437   0.400   3.069  1.1721  0.9019 -0.4607
18457TIP3   OH276785   5.923   3.369  11.696 -0.4747 -0.2116  0.9279
18457TIP3    H176786   5.900   3.326  11.613  1.9779 -0.6860  0.4012
18457TIP3    H276787   5.936   3.460  11.672  2.4976 -0.7334  0.1906
18458TIP3   OH276788   5.724   0.737   6.007  0.3952 -0.1141 -0.0877
18458TIP3    H176789   5.720   0.661   6.064  0.5386  0.3882  0.5998
18458TIP3    H276790   5.791   0.793   6.045 -0.4750  0.8660  0.0671
18459TIP3   OH276791   2.631   4.161   5.643  0.0805 -0.4042 -0.3446
18459TIP3    H176792   2.717   4.194   5.618 -0.2996  0.3203 -0.7418
18459TIP3    H276793   2.637   4.067   5.630  1.1421 -0.4913  0.6584
18460TIP3   OH276794   4.853   3.508   5.463  0.5818 -0.1028 -0.1989
18460TIP3    H176795   4.782   3.499   5.399 -0.3278  0.6765  0.6712
18460TIP3    H276796   4.917   3.565   5.419 -0.3159  0.9348 -0.2073
18461TIP3   OH276797   1.313   3.712  13.984  0.6655 -0.2602  0.0166
18461TIP3    H176798   1.305   3.756  13.899 -2.3265 -3.4179 -1.5460
18461TIP3    H276799   1.369   3.636  13.967 -1.7378 -2.1785  0.1527
18462TIP3   OH276800   1.151   2.394   2.470 -0.3594  0.6280  0.1484
18462TIP3    H176801   1.225   2.447   2.441 -0.6203  1.2665  0.6339
18462TIP3    H276802   1.178   2.304   2.451  1.1757  0.7211  1.6728
18463TIP3   OH276803   6.327   6.629  12.066  0.6142 -0.5648  0.1090
18463TIP3    H176804   6.258   6.568  12.090  0.1041 -0.4935 -1.0995
18463TIP3    H276805   6.281   6.702  12.023  1.3259  0.0596  0.3754
18464TIP3   OH276806   4.419   2.298  10.594 -0.7140 -0.5243  0.1798
18464TIP3    H176807   4.357   2.232  10.625 -0.1866 -1.1188  0.0115
18464TIP3    H276808   4.489   2.247  10.553  0.6161  0.0320  1.6646
18465TIP3   OH276809   0.985   5.331   2.401 -0.5605 -0.4656 -0.2341
18465TIP3    H176810   0.893   5.307   2.417 -0.5271  0.0290  0.7993
18465TIP3    H276811   1.003   5.399   2.466  0.1267  0.4456 -1.3369
18466TIP3   OH276812   1.049   2.465  12.926  0.9487  0.3037  0.2464
18466TIP3    H176813   1.016   2.554  12.935  3.7387  1.4755 -0.0595
18466TIP3    H276814   1.005   2.432  12.847  2.0584  2.5630 -1.4376
18467TIP3   OH276815   0.645   0.813   5.289  0.8411  0.4215 -0.1931
18467TIP3    H176816   0.718   0.871   5.309  0.6865  0.5779 -0.0856
18467TIP3    H276817   0.640   0.753   5.363  1.3026 -0.0346 -0.5241
18468TIP3   OH276818   6.339   1.881   0.543 -0.1653  0.0709  0.2059
18468TIP3    H176819   6.335   1.959   0.487  1.4254 -0.3744 -0.5959
18468TIP3    H276820   6.285   1.903   0.619 -2.0431  0.8652 -1.2741
18469TIP3   OH276821   1.432   3.794  12.993  0.1676 -0.2488  0.2236
18469TIP3    H176822   1.364   3.772  12.929  2.8267  1.2942 -3.4951
18469TIP3    H276823   1.418   3.887  13.012  1.2539  0.1259 -0.7075
18470TIP3   OH276824   5.640   0.052  14.755 -0.1477  0.4718 -0.8623
18470TIP3    H176825   5.604  -0.035  14.735  1.0111 -0.3039  0.2637
18470TIP3    H276826   5.579   0.088  14.820  0.1206 -0.1144 -0.2654
18471TIP3   OH276827   2.453   0.087   1.920  0.0283 -0.5371 -0.3634
18471TIP3    H176828   2.448   0.178   1.947  0.5266 -0.3346 -0.9128
18471TIP3    H276829   2.370   0.049   1.947 -0.5191  0.2804 -0.8430
18472TIP3   OH276830   3.948   6.311   1.725 -0.8863  0.5694  0.0152
18472TIP3    H176831   3.923   6.352   1.642 -1.1161 -1.7145 -1.1239
18472TIP3    H276832   4.037   6.342   1.741 -1.8432  3.3447  0.5116
18473TIP3   OH276833   0.234   2.565  14.860  0.0130  0.0427 -0.6361
18473TIP3    H176834   0.146   2.566  14.823 -1.8789  1.3347  3.3512
18473TIP3    H276835   0.269   2.652  14.842 -1.3294  1.0505  1.2657
18474TIP3   OH276836   0.472   1.351   5.874 -0.0817 -0.1539 -0.1649
18474TIP3    H176837   0.516   1.421   5.827 -0.0412 -0.1766 -0.1604
18474TIP3    H276838   0.431   1.298   5.805  1.9282 -1.5458 -0.3653
18475TIP3   OH276839   1.491   5.243  11.561 -0.7649 -0.2023 -0.1763
18475TIP3    H176840   1.543   5.166  11.537  1.7151  1.1239  0.5363
18475TIP3    H276841   1.436   5.259  11.484  1.2771 -0.6046 -1.8322
18476TIP3   OH276842   1.342   4.728  12.850 -0.8434 -0.4011 -0.6201
18476TIP3    H176843   1.398   4.785  12.903 -0.4717 -1.8078  0.5586
18476TIP3    H276844   1.317   4.782  12.775  1.1720  0.6105 -0.6122
18477TIP3   OH276845   5.607   1.589   3.828 -0.1110  0.3069  0.0941
18477TIP3    H176846   5.608   1.494   3.820 -0.3875  0.1951  1.2500
18477TIP3    H276847   5.602   1.621   3.738  2.1444 -0.7232 -0.4624
18478TIP3   OH276848   3.195   1.098  14.315 -0.1821 -0.0753  0.5971
18478TIP3    H176849   3.211   1.011  14.352  1.3355 -0.1152 -0.1035
18478TIP3    H276850   3.163   1.081  14.227  0.4988  0.0702  0.3170
18479TIP3   OH276851   0.535   0.743  14.350 -0.6592 -0.4558  0.7520
18479TIP3    H176852   0.558   0.652  14.369  1.0114  0.0560  1.3251
18479TIP3    H276853   0.540   0.749  14.255 -0.9089 -0.9771  0.6984
18480TIP3   OH276854   1.157   4.441  14.452 -0.4825  0.1358  0.0336
18480TIP3    H176855   1.176   4.371  14.389  0.3170 -1.1274  1.6378
18480TIP3    H276856   1.239   4.457  14.497 -1.0130  1.1103  0.6927
18481TIP3   OH276857   4.067   3.352  14.686 -0.0072  0.5811 -0.7478
18481TIP3    H176858   4.061   3.286  14.755  1.7223 -1.7212 -2.6111
18481TIP3    H276859   4.151   3.395  14.700 -0.5303  1.5099 -0.3302
18482TIP3   OH276860   2.648   2.999  11.342 -0.2488 -0.2982 -0.2276
18482TIP3    H176861   2.619   2.911  11.367 -2.5284  0.2670 -0.6942
18482TIP3    H276862   2.728   3.012  11.393 -0.0393 -2.4887  0.1258
18483TIP3   OH276863   1.741   3.486   5.112  0.3434 -0.4276  0.0385
18483TIP3    H176864   1.799   3.520   5.044 -2.9170  2.1181 -1.7626
18483TIP3    H276865   1.681   3.427   5.066 -1.0014  0.1745  0.9506
18484TIP3   OH276866   3.357   1.363  15.948 -0.3513 -0.2788 -0.1198
18484TIP3    H176867   3.327   1.413  16.023  0.5967 -2.2747  1.6952
18484TIP3    H276868   3.405   1.426  15.894 -3.5548  1.9024 -0.7306
18485TIP3   OH276869   0.382   3.393  15.643  0.8538 -0.4179 -0.3299
18485TIP3    H176870   0.346   3.419  15.558 -0.1934  1.4479  0.6273
18485TIP3    H276871   0.411   3.302  15.630  2.1533  0.2933 -3.0918
18486TIP3   OH276872   1.561   2.172   4.054  0.0455  0.3272  0.8103
18486TIP3    H176873   1.547   2.266   4.046  0.6408  0.3925  0.4948
18486TIP3    H276874   1.541   2.152   4.145 -2.1778  0.3857  0.3937
18487TIP3   OH276875   0.327   6.465   5.462  0.0586 -0.1231 -0.4759
18487TIP3    H176876   0.254   6.419   5.502  1.3803 -1.3614  0.6403
18487TIP3    H276877   0.354   6.530   5.526 -0.3450  0.6566 -1.0819
18488TIP3   OH276878   3.331   3.241  13.640  0.4130  0.5987  0.1270
18488TIP3    H176879   3.323   3.156  13.597  1.1221  1.7852 -2.5841
18488TIP3    H276880   3.269   3.237  13.712 -2.1106 -1.0558 -1.9355
18489TIP3   OH276881   1.564   3.752   3.274 -0.6409  0.0492 -0.0378
18489TIP3    H176882   1.655   3.776   3.254 -0.4739 -1.3747 -1.1361
18489TIP3    H276883   1.541   3.807   3.349  1.3586 -0.0391  0.7089
18490TIP3   OH276884   0.655   0.577  15.060  0.6134 -0.4924  0.3449
18490TIP3    H176885   0.637   0.535  15.144  0.7595  0.3608  0.8196
18490TIP3    H276886   0.592   0.650  15.056  1.6211  0.4093  0.4395
18491TIP3   OH276887   4.653   2.821   2.981  0.4490  0.4219  0.4444
18491TIP3    H176888   4.666   2.772   3.062  2.3547  1.1346  0.6214
18491TIP3    H276889   4.698   2.904   2.995  1.1057  0.4456 -1.4302
18492TIP3   OH276890   2.082   2.729  14.568 -0.1106 -0.5470 -0.1005
18492TIP3    H176891   2.171   2.744  14.535  0.0807  0.4128  0.7972
18492TIP3    H276892   2.072   2.634  14.570  1.2143 -0.6817  0.6191
18493TIP3   OH276893   0.910   3.583  11.936 -0.4571 -0.7712  0.5487
18493TIP3    H176894   0.874   3.672  11.935  1.9943  0.3387  1.8378
18493TIP3    H276895   0.837   3.528  11.967 -2.1225  0.6918 -0.5523
18494TIP3   OH276896   6.329   5.752  14.461 -0.3470  0.0075 -0.4077
18494TIP3    H176897   6.424   5.746  14.467 -0.3298  1.4146  3.3329
18494TIP3    H276898   6.312   5.846  14.450 -1.3313 -0.3479 -2.2664
18495TIP3   OH276899   6.606   1.802   2.242  1.0397  0.1845  0.1722
18495TIP3    H176900   6.581   1.786   2.151 -1.7711 -1.1537  1.0828
18495TIP3    H276901   6.585   1.720   2.288  0.7640  1.3809  2.3250
18496TIP3   OH276902   3.410   4.014   2.323 -0.1522 -0.1217 -0.2357
18496TIP3    H176903   3.442   3.983   2.408  1.3601  0.2171 -0.6508
18496TIP3    H276904   3.469   3.973   2.259 -0.7273  0.3241 -1.0692
18497TIP3   OH276905   3.476   5.862   4.280 -0.3858 -0.2448  0.1860
18497TIP3    H176906   3.381   5.870   4.293 -0.4826 -2.1222  0.9041
18497TIP3    H276907   3.503   5.950   4.253 -2.3509  0.2974 -0.2311
18498TIP3   OH276908   2.860   4.854  13.490 -0.0374 -0.1092  0.1821
18498TIP3    H176909   2.781   4.852  13.436 -0.1957 -0.3891  0.4174
18498TIP3    H276910   2.831   4.819  13.575  0.6581 -1.5926 -0.1572
18499TIP3   OH276911   2.351   3.483   0.020  0.1367  0.5400  0.5681
18499TIP3    H176912   2.331   3.467   0.112  1.9803  0.8303  1.0665
18499TIP3    H276913   2.340   3.578   0.009 -0.3258  0.4683  0.4333
18500TIP3   OH276914   4.873   4.711  12.917 -0.8909  0.0582  0.1337
18500TIP3    H176915   4.844   4.797  12.949 -1.7826 -0.6937  1.5155
18500TIP3    H276916   4.802   4.652  12.943 -0.4223 -1.0596 -1.0307
18501TIP3   OH276917   1.289   0.805  15.912  0.1808  0.3017 -0.3409
18501TIP3    H176918   1.376   0.768  15.930 -0.8475 -3.2027 -1.6470
18501TIP3    H276919   1.249   0.743  15.850 -2.9905  2.1689 -0.3910
18502TIP3   OH276920   3.091   4.583   2.866  0.0393 -0.9269  0.1645
18502TIP3    H176921   3.094   4.627   2.781 -0.2716  0.2063  0.7292
18502TIP3    H276922   3.007   4.537   2.866 -1.2853  1.3687  0.9519
18503TIP3   OH276923   2.250   6.749  13.820  0.3991 -0.2542  0.2024
18503TIP3    H176924   2.164   6.792  13.826  0.0954 -0.7076 -0.6112
18503TIP3    H276925   2.301   6.806  13.763  0.9179  0.4151  1.2951
18504TIP3   OH276926   0.222   1.448  13.684  0.1863 -0.4849 -0.0442
18504TIP3    H176927   0.316   1.436  13.699  0.0502 -0.1016  1.2243
18504TIP3    H276928   0.209   1.543  13.690 -0.5345 -0.6640  1.4895
18505TIP3   OH276929   5.300   3.879   5.634 -0.4173  0.2755 -0.6373
18505TIP3    H176930   5.227   3.908   5.689 -0.6813  0.9857 -1.3330
18505TIP3    H276931   5.367   3.850   5.695 -1.3630 -0.6062  0.0184
18506TIP3   OH276932   4.611   2.604  16.751 -0.2598 -0.3190 -0.2641
18506TIP3    H176933   4.613   2.605  16.656 -2.5658  0.9550 -0.3696
18506TIP3    H276934   4.647   2.689  16.777  1.1876 -1.0068  0.0774
18507TIP3   OH276935   6.462   2.364   0.632 -0.1390 -0.1864  0.6110
18507TIP3    H176936   6.418   2.446   0.608  0.5188 -0.2584 -0.9457
18507TIP3    H276937   6.535   2.357   0.571 -0.6656 -2.3626  0.1522
18508TIP3   OH276938   3.413   5.994   0.593  0.6394  0.5520 -0.0820
18508TIP3    H176939   3.334   5.961   0.634 -0.3511 -0.0851 -2.3351
18508TIP3    H276940   3.467   5.915   0.579  1.7491  0.9903  1.5176
18509TIP3   OH276941   4.369   1.432  12.065  0.1931 -0.9023 -0.2266
18509TIP3    H176942   4.312   1.411  12.139 -0.3589 -1.7106 -0.8498
18509TIP3    H276943   4.387   1.347  12.024 -0.4202 -0.3916 -1.6475
18510TIP3   OH276944   2.100   3.279  15.543 -0.0997 -0.0930  0.4888
18510TIP3    H176945   2.152   3.292  15.464 -0.5403 -1.1775  0.0055
18510TIP3    H276946   2.009   3.277  15.512 -0.6091  2.8688  1.4325
18511TIP3   OH276947   2.639   3.009   2.069 -0.0533  0.0619 -0.0231
18511TIP3    H176948   2.640   2.986   2.162  1.1450 -0.2434 -0.1013
18511TIP3    H276949   2.602   2.932   2.026 -0.3756  0.1055  0.1738
18512TIP3   OH276950   4.277   0.208   5.846  0.1627 -0.6481 -0.0168
18512TIP3    H176951   4.335   0.148   5.894  0.1912 -0.4918  0.1433
18512TIP3    H276952   4.205   0.152   5.817  1.4155 -1.3160 -2.0598
18513TIP3   OH276953   0.679   3.510   5.773 -0.0143  0.1950 -0.4882
18513TIP3    H176954   0.678   3.553   5.688  3.8446  2.2000  0.2484
18513TIP3    H276955   0.697   3.418   5.754  0.0677  0.4709 -1.8482
18514TIP3   OH276956   1.458   3.609  12.380  0.6499 -0.2890 -0.0930
18514TIP3    H176957   1.455   3.631  12.287  0.6513 -2.3763 -0.6477
18514TIP3    H276958   1.549   3.624  12.405  0.5261  0.8274 -0.2599
18515TIP3   OH276959   2.485   6.512   5.072 -0.1405 -0.6947  0.4413
18515TIP3    H176960   2.427   6.446   5.109  1.3869 -2.6339 -0.4233
18515TIP3    H276961   2.569   6.498   5.116  1.0307 -1.3996 -1.8498
18516TIP3   OH276962   3.103   0.971  12.890 -1.1163  0.3124  0.3406
18516TIP3    H176963   3.067   1.034  12.828 -0.9161  0.7808  0.6993
18516TIP3    H276964   3.191   1.002  12.909 -0.2666 -1.1517 -0.9752
18517TIP3   OH276965   2.774   6.270   3.670 -0.1626 -0.0927  0.2735
18517TIP3    H176966   2.771   6.352   3.719 -1.1124 -0.1755  0.3778
18517TIP3    H276967   2.852   6.277   3.616 -0.3877  1.0125  0.0584
18518TIP3   OH276968   4.934   6.733  14.958  0.3921 -0.3168  0.0215
18518TIP3    H176969   4.893   6.774  15.034  1.9206 -0.4348  0.9600
18518TIP3    H276970   4.882   6.655  14.942 -0.5473  0.2293  0.3109
18519TIP3   OH276971   4.612   4.619   1.595 -0.0178 -0.5034 -0.8744
18519TIP3    H176972   4.543   4.560   1.625 -0.0132 -0.4009 -0.6586
18519TIP3    H276973   4.625   4.679   1.669  1.0326 -1.1628 -0.5008
18520TIP3   OH276974   5.634   4.451   3.740  0.0337 -0.1823 -0.3109
18520TIP3    H176975   5.728   4.433   3.733  0.1434 -0.3232  1.2558
18520TIP3    H276976   5.628   4.524   3.802 -0.8911 -0.0850 -0.4948
18521TIP3   OH276977   0.295   6.056   5.311  0.0153 -0.3206  0.6679
18521TIP3    H176978   0.352   6.128   5.286 -1.0917  0.5820  0.6303
18521TIP3    H276979   0.354   5.983   5.330  1.0301 -0.5141 -2.6741
18522TIP3   OH276980   3.002   1.872   3.143  0.1857 -0.1014  0.1695
18522TIP3    H176981   3.022   1.778   3.144  1.1500  0.0885 -0.3424
18522TIP3    H276982   3.078   1.912   3.100  0.0194  0.9710  0.8567
18523TIP3   OH276983   1.558   6.002  16.471 -0.3724  0.3741 -0.3950
18523TIP3    H176984   1.488   5.989  16.534  0.8581 -0.9543  0.7901
18523TIP3    H276985   1.609   6.075  16.506 -0.2040  0.2271 -0.3301
18524TIP3   OH276986   5.044   2.956  16.487  0.0389  0.0178  0.0917
18524TIP3    H176987   4.981   3.026  16.474 -0.2158  0.1820  2.0076
18524TIP3    H276988   5.023   2.892  16.418 -2.1026  0.1491  0.5682
18525TIP3   OH276989   5.388   1.236   3.028 -0.1643 -0.4246  0.0302
18525TIP3    H176990   5.383   1.151   3.073 -1.0049 -0.7194 -0.5903
18525TIP3    H276991   5.333   1.294   3.080 -2.3318 -1.1265 -1.3195
18526TIP3   OH276992   6.022   0.230   1.994  0.3800 -0.1190  0.5433
18526TIP3    H176993   6.093   0.273   2.042 -0.7215  1.5438  0.7648
18526TIP3    H276994   6.042   0.247   1.902  0.4064  0.1616  0.5977
18527TIP3   OH276995   6.104   0.762  13.813 -0.1949  0.0453  0.3978
18527TIP3    H176996   6.152   0.820  13.753 -0.5008 -0.6645 -0.5508
18527TIP3    H276997   6.015   0.763  13.779 -0.8928  1.3384  2.1387
18528TIP3   OH276998   0.344   3.779   5.188 -0.6961 -0.1941 -0.3926
18528TIP3    H176999   0.308   3.700   5.148  1.9361 -1.9888  0.5038
18528TIP3    H277000   0.430   3.789   5.149  0.4684  0.1150  2.0352
18529TIP3   OH277001   6.451   4.712  12.437 -0.3416  0.2044  0.3666
18529TIP3    H177002   6.481   4.686  12.350 -2.7528 -0.4209 -0.3448
18529TIP3    H277003   6.421   4.631  12.478 -0.1614  0.6414  1.3920
18530TIP3   OH277004   1.334   3.817  17.193  0.0532 -0.1644 -0.0128
18530TIP3    H177005   1.280   3.797  17.117  0.0361 -1.2460  0.2696
18530TIP3    H277006   1.281   3.792  17.268 -0.6737  2.5949  0.4971
18531TIP3   OH277007   0.570   4.216  12.459  0.3363 -0.0555  0.0675
18531TIP3    H177008   0.604   4.128  12.469  1.7301  0.5142  0.5765
18531TIP3    H277009   0.494   4.219  12.518 -1.2584 -1.6291 -1.7946
18532TIP3   OH277010   4.850   1.227   3.186 -0.0295  0.0287 -0.2839
18532TIP3    H177011   4.782   1.167   3.217 -0.4576  1.0748  0.9053
18532TIP3    H277012   4.825   1.312   3.222  1.2984  0.6569 -0.7806
18533TIP3   OH277013   5.768   3.563   3.139  0.3002  0.7545 -0.0927
18533TIP3    H177014   5.820   3.635   3.175 -1.2089  2.2537 -0.8018
18533TIP3    H277015   5.679   3.597   3.134 -0.8461 -1.7736  1.1855
18534TIP3   OH277016   3.226   5.157  11.118  0.3006 -0.4946  0.1052
18534TIP3    H177017   3.178   5.187  11.041  1.6138 -0.6443 -0.7948
18534TIP3    H277018   3.163   5.164  11.190 -1.6274 -2.2785 -1.2912
18535TIP3   OH277019   2.516   1.821   3.242  0.3047  0.5894  0.0182
18535TIP3    H177020   2.607   1.806   3.268  0.2157 -0.4825 -0.2629
18535TIP3    H277021   2.522   1.865   3.158  0.5771 -0.7506 -0.6923
18536TIP3   OH277022   4.746   2.460   5.464 -0.1745  0.1191  0.3103
18536TIP3    H177023   4.781   2.546   5.439 -1.1924 -0.1221 -2.2571
18536TIP3    H277024   4.652   2.467   5.449 -0.3611 -1.2449  0.7212
18537TIP3   OH277025   0.650   4.994  14.879 -0.6201 -0.2621  0.3548
18537TIP3    H177026   0.568   5.020  14.836 -1.1091 -0.1032  1.3569
18537TIP3    H277027   0.708   5.070  14.867 -1.4795  0.6700  1.8047
18538TIP3   OH277028   3.754   3.402   1.279 -0.0035  0.1601  0.2721
18538TIP3    H177029   3.835   3.450   1.262  1.0869 -1.2986  1.0438
18538TIP3    H277030   3.701   3.461   1.332 -0.2716  1.8528 -1.7826
18539TIP3   OH277031   3.410   6.385   4.624 -0.2096 -0.5595 -0.3058
18539TIP3    H177032   3.393   6.355   4.714 -1.7284 -0.7838 -0.6360
18539TIP3    H277033   3.340   6.344   4.572 -1.1184  1.8503 -1.1214
18540TIP3   OH277034   5.409   2.373   1.334  0.3485 -0.0141 -0.0311
18540TIP3    H177035   5.326   2.419   1.320  1.6879  2.8407  0.5706
18540TIP3    H277036   5.388   2.304   1.397 -1.9827 -0.9748 -1.6922
18541TIP3   OH277037   0.068   2.377   0.224  0.1300 -0.0193  0.0514
18541TIP3    H177038   0.096   2.285   0.229 -1.2668 -0.4803 -0.0073
18541TIP3    H277039  -0.019   2.377   0.265  0.4143  1.4263  0.6922
18542TIP3   OH277040   4.530   3.254  15.856 -0.2948  0.0203 -0.0131
18542TIP3    H177041   4.613   3.299  15.837  1.5394 -2.4997  1.4307
18542TIP3    H277042   4.498   3.295  15.936  0.9011 -0.6436  0.8218
18543TIP3   OH277043   2.244   3.134   4.910 -0.6488 -0.2866 -0.6544
18543TIP3    H177044   2.308   3.161   4.975  0.5457 -0.7979 -1.5700
18543TIP3    H277045   2.161   3.172   4.940  0.0510  0.2954  0.6196
18544TIP3   OH277046   0.663   4.143   6.536  0.2766  0.4822  0.6142
18544TIP3    H177047   0.594   4.178   6.593  0.8476  2.0336  0.4199
18544TIP3    H277048   0.721   4.218   6.521  2.4451 -0.9491  1.3989
18545TIP3   OH277049   6.253   3.624   3.354 -0.4415 -0.5586 -0.0478
18545TIP3    H177050   6.340   3.664   3.356 -0.8409  0.5635 -2.0108
18545TIP3    H277051   6.192   3.698   3.364 -1.1887 -1.2509  0.6896
18546TIP3   OH277052   1.637   4.421   2.910  0.0312  0.4959 -0.4631
18546TIP3    H177053   1.543   4.404   2.910 -0.2903  2.0834 -1.8175
18546TIP3    H277054   1.675   4.343   2.868 -0.5992 -0.3610  0.4978
18547TIP3   OH277055   6.711   6.222   4.850  0.1519 -0.0789  0.2703
18547TIP3    H177056   6.790   6.175   4.823  0.1640 -0.2102  0.5308
18547TIP3    H277057   6.687   6.274   4.774 -1.5702 -2.7630 -1.2090
18548TIP3   OH277058   5.062   1.977   3.374 -0.4687 -0.2407 -0.1951
18548TIP3    H177059   5.020   1.972   3.288 -1.3425 -1.9155  0.2850
18548TIP3    H277060   5.119   2.054   3.368 -0.8971 -0.0093 -2.0889
18549TIP3   OH277061   2.831   0.643  15.674 -0.0488  0.0533 -0.1192
18549TIP3    H177062   2.767   0.698  15.631 -0.6356  0.2534  0.9647
18549TIP3    H277063   2.916   0.674  15.641 -0.3236  1.9841  0.8348
18550TIP3   OH277064   4.144   5.981   3.577  0.0852 -0.5115  0.1498
18550TIP3    H177065   4.117   5.969   3.486  0.1724  2.3935 -0.3513
18550TIP3    H277066   4.069   6.024   3.618 -0.3821 -2.7649  1.8054
18551TIP3   OH277067   6.089   3.217   5.158 -0.4981  0.4122  0.1340
18551TIP3    H177068   6.119   3.131   5.185 -1.2697 -0.0024 -0.2882
18551TIP3    H277069   6.127   3.229   5.071  0.7951  1.1274  0.7738
18552TIP3   OH277070   5.390   1.777   3.072  0.1078 -0.2912 -0.1490
18552TIP3    H177071   5.357   1.689   3.090  0.4194 -0.9520 -2.5671
18552TIP3    H277072   5.431   1.804   3.155 -1.5812 -1.6333  1.2074
18553TIP3   OH277073   1.443   2.217  11.696 -0.9297 -0.7052 -0.0056
18553TIP3    H177074   1.374   2.151  11.693 -2.2594  0.6283 -0.2701
18553TIP3    H277075   1.486   2.203  11.781 -0.7890 -2.2579 -0.3111
18554TIP3   OH277076   2.083   4.248  16.994  0.0799  0.2036  0.3471
18554TIP3    H177077   2.054   4.162  16.964  1.9728  0.6165 -3.2350
18554TIP3    H277078   2.142   4.230  17.067 -1.6373 -1.2500  1.4506
18555TIP3   OH277079   6.321   1.330   3.507 -0.2350 -0.0201  0.4151
18555TIP3    H177080   6.403   1.343   3.554  0.5041  0.2166 -0.8961
18555TIP3    H277081   6.269   1.274   3.565  0.1031  1.3314  2.1001
18556TIP3   OH277082   2.904   4.550   0.120 -0.1713  0.1483  0.3871
18556TIP3    H177083   2.833   4.524   0.179 -1.6873  0.6630 -1.1480
18556TIP3    H277084   2.867   4.544   0.032  2.3111 -1.5282 -0.6649
18557TIP3   OH277085   0.526   3.832  11.601  0.0594 -0.0166 -0.7341
18557TIP3    H177086   0.464   3.773  11.643 -1.8679  2.4314  0.0705
18557TIP3    H277087   0.604   3.828  11.657 -0.4099 -0.9852 -0.1210
18558TIP3   OH277088   2.366   4.197  11.402 -0.3551 -0.3281  0.0800
18558TIP3    H177089   2.351   4.197  11.496  1.6877  0.5470  0.4550
18558TIP3    H277090   2.297   4.254  11.367  0.8839  2.1632  1.4744
18559TIP3   OH277091   3.787   2.708  16.472  0.2186  0.2609  0.2688
18559TIP3    H177092   3.738   2.639  16.427 -2.4556  1.4302  1.1625
18559TIP3    H277093   3.814   2.667  16.555 -0.4326 -0.0213  0.3469
18560TIP3   OH277094   0.958   6.186   1.276  0.2452  0.0085  0.2001
18560TIP3    H177095   0.888   6.213   1.335  0.4536 -1.6721  1.3023
18560TIP3    H277096   0.932   6.097   1.248  0.9601  0.1470 -0.9627
18561TIP3   OH277097   5.563   6.418   2.337 -0.0791  0.0746 -0.2968
18561TIP3    H177098   5.619   6.372   2.276  0.7153 -0.0904  0.5357
18561TIP3    H277099   5.512   6.349   2.380  0.4022  0.0445  0.2436
18562TIP3   OH277100   0.666   1.229  11.483 -0.3873 -0.0041 -0.1620
18562TIP3    H177101   0.620   1.313  11.491 -0.1731  0.0986  0.0028
18562TIP3    H277102   0.710   1.235  11.398 -1.8694 -0.7014 -1.0152
18563TIP3   OH277103   4.374   0.452  14.298  0.0059 -0.5663 -0.4261
18563TIP3    H177104   4.408   0.384  14.240 -0.3700 -1.8739  0.8123
18563TIP3    H277105   4.451   0.490  14.339  0.1603 -1.9429  0.6610
18564TIP3   OH277106   4.714   3.947   4.547  0.2792  0.0364 -0.4473
18564TIP3    H177107   4.702   3.854   4.525  0.0890  0.0946 -0.5942
18564TIP3    H277108   4.668   3.958   4.630  1.3961 -0.2911  0.2409
18565TIP3   OH277109   1.392   1.389  12.019 -0.1850 -0.4102  0.1805
18565TIP3    H177110   1.395   1.326  11.948  0.5636 -0.5031  0.2832
18565TIP3    H277111   1.326   1.354  12.080  1.3166 -1.9681  1.0163
18566TIP3   OH277112   5.280   3.575   4.162 -0.1811 -0.8580 -0.0815
18566TIP3    H177113   5.374   3.559   4.153 -0.1970 -0.9909 -0.0215
18566TIP3    H277114   5.259   3.544   4.250  0.2498  1.7963  1.0445
18567TIP3   OH277115   6.358   3.712  16.604  0.3742  0.2911  0.4551
18567TIP3    H177116   6.316   3.630  16.629  1.3429 -0.5012 -0.4252
18567TIP3    H277117   6.411   3.736  16.680  0.5105 -0.1998  0.5218
18568TIP3   OH277118   4.991   0.726  14.749 -0.5675  0.1976  0.0053
18568TIP3    H177119   5.079   0.689  14.738  0.0283  1.8141 -1.1380
18568TIP3    H277120   4.932   0.657  14.720  0.2890 -1.0185  1.0546
18569TIP3   OH277121   4.387   1.606   5.604  0.2172  0.2726 -0.1293
18569TIP3    H177122   4.357   1.689   5.643  1.1296  1.1546 -1.2320
18569TIP3    H277123   4.444   1.568   5.671  2.7540  2.3650 -0.9169
18570TIP3   OH277124   6.082   6.207  15.502  0.8094 -0.2692 -0.1515
18570TIP3    H177125   6.127   6.291  15.512 -0.1275  0.0841  1.3734
18570TIP3    H277126   6.152   6.144  15.483  1.6412  0.6733 -0.2768
18571TIP3   OH277127   0.619   4.778  16.238 -0.2448  0.0482  0.3831
18571TIP3    H177128   0.689   4.786  16.303 -0.5238 -0.8865  0.8136
18571TIP3    H277129   0.629   4.690  16.203  1.5141  1.3285 -2.7366
18572TIP3   OH277130   1.421   1.303   2.772  0.1801  1.0831  0.0787
18572TIP3    H177131   1.378   1.224   2.740 -0.0549  0.7419  1.1759
18572TIP3    H277132   1.379   1.320   2.857  2.3458  0.6147  1.3112
18573TIP3   OH277133   1.208   5.469  13.576  0.0634  0.3562 -0.1775
18573TIP3    H177134   1.206   5.432  13.664  0.6454  2.2695  0.6736
18573TIP3    H277135   1.117   5.493  13.558  0.1582  1.3113  0.5289
18574TIP3   OH277136   6.168   3.630  12.223 -0.4270 -0.7080 -0.8393
18574TIP3    H177137   6.229   3.592  12.286  0.5282  0.4074 -1.0680
18574TIP3    H277138   6.085   3.584  12.239  0.3128 -1.8330 -0.1298
18575TIP3   OH277139   4.618   1.964  14.639 -0.3902  0.2399 -0.1541
18575TIP3    H177140   4.583   1.911  14.567 -1.6976  1.2357 -0.2856
18575TIP3    H277141   4.597   2.054  14.616  1.9549  0.8977 -0.0216
18576TIP3   OH277142   0.824   1.505   2.021  0.3356  0.1605  0.3686
18576TIP3    H177143   0.860   1.485   1.935 -3.1163 -0.9235 -1.0076
18576TIP3    H277144   0.836   1.600   2.030  1.6288  0.1408 -0.8403
18577TIP3   OH277145   1.321   2.997   2.148  0.3447 -0.1166 -0.2557
18577TIP3    H177146   1.254   3.065   2.142 -0.8653 -1.0037  2.0698
18577TIP3    H277147   1.293   2.930   2.086 -0.4885 -0.1173  0.1161
18578TIP3   OH277148   0.638   2.262   3.686 -0.2051 -0.1132 -0.4568
18578TIP3    H177149   0.604   2.247   3.774  2.6125 -2.7496  0.3828
18578TIP3    H277150   0.704   2.330   3.696  0.2063 -0.5037 -0.5091
18579TIP3   OH277151   2.663   5.324   3.986 -0.0662 -1.3386  0.2373
18579TIP3    H177152   2.667   5.412   3.949  0.0152 -0.4500  2.2448
18579TIP3    H277153   2.583   5.286   3.948  0.8637 -1.1298 -2.0668
18580TIP3   OH277154   5.912   6.347  15.303  0.3697  0.2949 -0.1713
18580TIP3    H177155   5.950   6.303  15.379  1.3088  0.9611 -0.2393
18580TIP3    H277156   5.910   6.440  15.327  1.3396  0.6109 -1.2045
18581TIP3   OH277157   0.588   6.358   5.612  0.3808  0.4349 -0.6937
18581TIP3    H177158   0.538   6.389   5.688 -0.1206 -1.4426 -0.2065
18581TIP3    H277159   0.642   6.433   5.587 -0.5630  1.5874  0.5649
18582TIP3   OH277160   0.849   3.181  17.203  0.2200 -0.3437  0.8629
18582TIP3    H177161   0.793   3.130  17.262 -0.2546 -0.1912  0.5570
18582TIP3    H277162   0.881   3.117  17.139 -0.5313 -0.2402  0.3633
18583TIP3   OH277163   2.852   2.721   3.408 -0.2828 -0.4858 -0.5517
18583TIP3    H177164   2.826   2.695   3.319  2.3779 -3.0451 -0.7703
18583TIP3    H277165   2.939   2.761   3.396 -0.4301  0.2683  0.7875
18584TIP3   OH277166   6.714   0.307   3.164  0.8642  0.7262  0.0562
18584TIP3    H177167   6.755   0.371   3.222  2.0610  0.1212 -0.0970
18584TIP3    H277168   6.634   0.281   3.210  1.4166  0.8087  1.0979
18585TIP3   OH277169   5.625   6.637   3.000  0.0658  0.0657 -0.6684
18585TIP3    H177170   5.663   6.724   2.998  0.6796 -0.1924 -0.3688
18585TIP3    H277171   5.690   6.581   2.959  1.2624 -0.8299  2.1786
18586TIP3   OH277172   3.391   3.566  11.494 -0.0047  0.0583 -0.3124
18586TIP3    H177173   3.313   3.525  11.531  0.7479  0.0876  1.4237
18586TIP3    H277174   3.440   3.494  11.454 -1.1321  0.1191 -1.9069
18587TIP3   OH277175   4.755   6.291   4.259  0.2536  0.6351 -0.8832
18587TIP3    H177176   4.708   6.246   4.330  1.9378 -0.0589 -0.1506
18587TIP3    H277177   4.757   6.383   4.286  0.5366  0.4377 -0.2096
18588TIP3   OH277178   6.180   1.379  14.951 -0.3101 -0.1241 -0.0048
18588TIP3    H177179   6.085   1.382  14.938 -0.0237  0.1378 -2.5852
18588TIP3    H277180   6.207   1.471  14.949 -0.2017  0.0677  3.5735
18589TIP3   OH277181   5.341   6.562   0.401  0.0574  0.6050  0.4787
18589TIP3    H177182   5.260   6.567   0.351  1.0385  2.1113 -1.0849
18589TIP3    H277183   5.320   6.603   0.485 -1.1498 -0.3517  0.6782
18590TIP3   OH277184   0.933   6.634  13.631 -0.2415  0.1852 -0.0211
18590TIP3    H177185   1.014   6.585  13.644 -0.7828 -0.5218  0.7820
18590TIP3    H277186   0.936   6.703  13.697  0.9663  1.9238 -1.7430
18591TIP3   OH277187   4.050   0.515   4.079 -0.8005  0.5330  0.5893
18591TIP3    H177188   3.964   0.488   4.047  0.1305 -2.3790  0.2736
18591TIP3    H277189   4.109   0.501   4.005  0.4437 -0.7691  1.7561
18592TIP3   OH277190   5.303   0.285   3.333 -0.2137 -0.3429  0.0106
18592TIP3    H177191   5.257   0.318   3.410  0.3098 -1.3182  0.7647
18592TIP3    H277192   5.288   0.190   3.335  0.2817 -0.4463 -0.7752
18593TIP3   OH277193   0.901   4.797  16.063 -0.0453 -0.3309 -0.0196
18593TIP3    H177194   0.989   4.761  16.052  0.6307  1.2449 -0.0326
18593TIP3    H277195   0.902   4.835  16.151 -0.2944  0.7767 -0.4843
18594TIP3   OH277196   3.295   0.251  14.168  0.7608  0.0706 -0.6111
18594TIP3    H177197   3.292   0.311  14.094 -1.7724  0.1908 -0.5011
18594TIP3    H277198   3.260   0.302  14.242 -0.4252 -1.1612 -0.2734
18595TIP3   OH277199   3.446   2.422  16.097  0.3272 -0.5064  0.2234
18595TIP3    H177200   3.538   2.400  16.086 -0.0538 -1.9697 -0.1733
18595TIP3    H277201   3.431   2.416  16.191  0.2180 -2.1222  0.1265
18596TIP3   OH277202   0.411   5.956   2.959  0.6408 -0.2795 -0.1772
18596TIP3    H177203   0.415   5.983   3.051  0.4503 -1.1786  0.1073
18596TIP3    H277204   0.494   5.909   2.944  0.3448 -0.7954 -0.2371
18597TIP3   OH277205   1.457   4.284  11.573 -0.1138 -0.8073  0.4822
18597TIP3    H177206   1.441   4.360  11.629 -1.5532 -1.5335  1.0939
18597TIP3    H277207   1.536   4.244  11.609  0.7576  0.4414  0.0679
18598TIP3   OH277208   2.010   4.486  12.804 -0.2368 -0.0250 -0.1211
18598TIP3    H177209   2.104   4.484  12.785  0.3584  2.6948  1.8840
18598TIP3    H277210   2.005   4.481  12.900 -2.0219  1.3572 -0.0867
18599TIP3   OH277211   3.052   4.648  15.211 -0.0034 -0.4787  0.2534
18599TIP3    H177212   3.125   4.652  15.149  0.2525 -2.0355  0.4252
18599TIP3    H277213   2.974   4.666  15.158  0.4712  1.1922  0.0715
18600TIP3   OH277214   5.681   4.374   0.914  0.4170 -0.3180 -0.2166
18600TIP3    H177215   5.599   4.324   0.920  0.4177 -0.2096  0.9165
18600TIP3    H277216   5.683   4.405   0.823 -0.3244 -1.1216 -0.5226
18601TIP3   OH277217   2.872   4.537   3.426 -0.0712  0.0517 -0.4638
18601TIP3    H177218   2.916   4.623   3.429 -0.3696  0.2252 -1.0679
18601TIP3    H277219   2.937   4.478   3.388 -0.0287  0.1075 -0.4784
18602TIP3   OH277220   2.062   6.596   1.844  0.0311  0.5129  0.1416
18602TIP3    H177221   2.055   6.592   1.939  0.8159 -2.0214  0.1552
18602TIP3    H277222   2.132   6.659   1.828  1.4831 -0.7248  1.3674
18603TIP3   OH277223   5.903   2.357   4.504  0.1736 -0.4195 -0.2838
18603TIP3    H177224   5.822   2.405   4.485  0.6278 -0.1525 -1.6136
18603TIP3    H277225   5.906   2.288   4.438  0.8064 -0.7184  0.0471
18604TIP3   OH277226   3.010   6.307   2.145  0.1719 -0.1604 -0.4365
18604TIP3    H177227   3.101   6.314   2.172 -0.2999  1.4998  0.8445
18604TIP3    H277228   2.968   6.253   2.213 -0.1186  0.3979 -0.1673
18605TIP3   OH277229   2.727   5.011  11.761  0.4740  0.2685  0.5883
18605TIP3    H177230   2.801   5.029  11.819  1.5761  0.2385 -0.7389
18605TIP3    H277231   2.752   4.931  11.714 -0.0375  0.7019 -0.4574
18606TIP3   OH277232   1.094   4.864  14.595  0.3731  0.2612  1.3105
18606TIP3    H177233   1.047   4.944  14.617  2.1107  1.3703  1.1822
18606TIP3    H277234   1.115   4.825  14.680  0.1265  0.2917  1.3877
18607TIP3   OH277235   3.058   3.053  11.705 -0.1465  0.1123 -0.1219
18607TIP3    H177236   2.987   2.997  11.737  0.4928 -0.4103  0.4459
18607TIP3    H277237   3.059   3.127  11.766 -0.6458  0.4800 -0.5509
18608TIP3   OH277238   5.051   0.964  14.653  0.1217  0.0074  0.3312
18608TIP3    H177239   4.993   1.005  14.588 -0.8304 -1.3170  0.2932
18608TIP3    H277240   5.010   0.879  14.671  0.1928  0.4371  2.8794
18609TIP3   OH277241   1.204   4.255   3.888 -0.2868  0.1757  0.1165
18609TIP3    H177242   1.198   4.276   3.981 -1.0434 -0.0044  0.1202
18609TIP3    H277243   1.215   4.339   3.845 -3.2932  0.7038  0.1303
18610TIP3   OH277244   0.559   2.682  11.891 -0.2201 -0.6253  0.3291
18610TIP3    H177245   0.493   2.742  11.925 -0.3398 -0.1030 -0.7690
18610TIP3    H277246   0.631   2.688  11.953 -0.8662 -0.5577  1.0856
18611TIP3   OH277247   6.243   2.852  13.442  0.4457  0.0756 -0.1663
18611TIP3    H177248   6.250   2.817  13.531 -0.0551  0.4563  0.0279
18611TIP3    H277249   6.150   2.843  13.420  0.7177 -0.8223 -0.9881
18612TIP3   OH277250   0.613   5.786   2.899  0.2114 -0.9402  0.4529
18612TIP3    H177251   0.662   5.715   2.941 -0.1935 -2.0017 -0.7912
18612TIP3    H277252   0.562   5.743   2.830 -0.8063  0.4374  0.2957
18613TIP3   OH277253   1.562   3.800  13.861  0.3020  0.5609 -0.5989
18613TIP3    H177254   1.516   3.717  13.876 -0.8911  1.7013  3.4819
18613TIP3    H277255   1.552   3.816  13.767 -3.2045 -1.8033 -0.8469
18614TIP3   OH277256   4.433   0.537   4.499 -0.1969 -0.0216 -0.1715
18614TIP3    H177257   4.354   0.562   4.451 -0.7458 -0.7175  0.3545
18614TIP3    H277258   4.407   0.539   4.591  0.6306  0.5500  0.0647
18615TIP3   OH277259   3.775   5.557   2.557  1.1161 -0.0733  0.8756
18615TIP3    H177260   3.829   5.531   2.482  0.1967 -2.8654  1.0480
18615TIP3    H277261   3.823   5.628   2.598  1.9857  1.1168 -1.9442
18616TIP3   OH277262   5.256   1.624   4.907  0.2431 -0.1742  0.9699
18616TIP3    H177263   5.331   1.656   4.957 -0.2750  1.4481  0.7805
18616TIP3    H277264   5.294   1.568   4.839  1.2088 -0.0506  1.3927
18617TIP3   OH277265   2.821   0.220   0.260 -0.1694  0.2877 -0.1419
18617TIP3    H177266   2.822   0.174   0.175 -1.6524  0.9650 -0.5474
18617TIP3    H277267   2.884   0.291   0.249  0.1902 -0.0577 -0.4025
18618TIP3   OH277268   5.688   1.393  17.223 -0.2735  0.9311  0.3482
18618TIP3    H177269   5.735   1.362  17.145  0.7773  0.4567  1.1413
18618TIP3    H277270   5.662   1.314  17.269  1.0418  1.1643  1.5800
18619TIP3   OH277271   6.583   1.427  13.187 -0.1682  0.3211  0.3435
18619TIP3    H177272   6.576   1.508  13.237  1.9027  0.7995 -0.0645
18619TIP3    H277273   6.627   1.451  13.106  0.2252 -1.1600  0.0745
18620TIP3   OH277274   0.893   2.277  13.910  0.1269  0.0442 -0.3484
18620TIP3    H177275   0.954   2.346  13.886  0.5878  0.0759  0.8342
18620TIP3    H277276   0.909   2.262  14.003 -2.1025  0.4916  0.1758
18621TIP3   OH277277   1.287   3.511   0.571 -0.0868  0.3543  0.8692
18621TIP3    H177278   1.268   3.421   0.596 -0.7193 -0.9294 -3.4284
18621TIP3    H277279   1.376   3.507   0.534 -0.4985  1.2389 -0.2687
18622TIP3   OH277280   2.672   4.833  14.931  0.1958  0.0263 -0.2920
18622TIP3    H177281   2.688   4.867  14.843 -0.0806 -1.2070 -0.8453
18622TIP3    H277282   2.579   4.811  14.931  0.5590 -1.6326 -0.3198
18623TIP3   OH277283   3.610   2.103   0.079 -0.1913  0.4114 -0.3905
18623TIP3    H177284   3.698   2.139   0.074  0.6546 -1.1102  2.1202
18623TIP3    H277285   3.613   2.024   0.025 -0.1244  0.5175 -0.5435
18624TIP3   OH277286   1.034   1.886   3.752  0.6777  0.2272 -0.9616
18624TIP3    H177287   1.111   1.893   3.695  1.7554 -0.6396  0.3351
18624TIP3    H277288   1.014   1.792   3.753 -0.3191  0.4310 -1.1715
18625TIP3   OH277289   4.358   1.545   1.334  0.5263  0.0857  0.4026
18625TIP3    H177290   4.394   1.588   1.257  1.4987 -0.5709  0.4680
18625TIP3    H277291   4.271   1.583   1.345  0.0125 -0.4128 -1.5258
18626TIP3   OH277292   6.449   6.521   1.613 -0.1833  0.4544 -0.2539
18626TIP3    H177293   6.414   6.583   1.678  2.3810  1.0841  0.6292
18626TIP3    H277294   6.436   6.435   1.652 -0.8092  0.6503 -0.0098
18627TIP3   OH277295   5.478   6.475   4.346  0.1072  0.3610  0.2657
18627TIP3    H177296   5.389   6.446   4.326  0.3807 -0.2784 -0.0450
18627TIP3    H277297   5.499   6.432   4.429 -0.1695  1.1681  0.7669
18628TIP3   OH277298   3.634   0.893   2.198 -0.1760 -0.0316  0.1703
18628TIP3    H177299   3.636   0.979   2.240  1.4894 -0.7025  1.5829
18628TIP3    H277300   3.583   0.907   2.118  0.1465  2.2857  0.2922
18629TIP3   OH277301   3.968   0.922  13.572  0.3250  0.2227  0.7655
18629TIP3    H177302   3.873   0.918  13.565  0.2938 -1.6543  1.8454
18629TIP3    H277303   3.997   0.832  13.565  2.0468  0.7706  0.3890
18630TIP3   OH277304   3.665   0.743  11.673 -0.2066  0.3667 -0.2112
18630TIP3    H177305   3.700   0.804  11.738 -1.6355  1.4402 -0.3779
18630TIP3    H277306   3.596   0.794  11.628 -2.6474 -1.8469  0.7722
18631TIP3   OH277307   1.978   5.399   4.762 -0.9160  0.1971  0.2218
18631TIP3    H177308   1.988   5.388   4.668  0.4435 -0.2632  0.3977
18631TIP3    H277309   2.023   5.481   4.782  0.7461 -0.7843  0.7327
18632TIP3   OH277310   4.205   0.108   0.323  0.7950  0.1693  0.4006
18632TIP3    H177311   4.290   0.132   0.359 -1.1450  2.6739  3.9295
18632TIP3    H277312   4.158   0.068   0.396 -2.2623  2.3495 -0.1586
18633TIP3   OH277313   0.475   4.679   3.579 -0.1555  0.6947 -0.1196
18633TIP3    H177314   0.535   4.754   3.586  2.4420 -1.3264  1.3625
18633TIP3    H277315   0.487   4.631   3.661 -0.4917 -2.1620 -1.6009
18634TIP3   OH277316   2.422   0.766  17.079 -0.1687  0.3035 -0.1604
18634TIP3    H177317   2.485   0.696  17.097 -0.6720  0.1203  0.9631
18634TIP3    H277318   2.380   0.740  16.997 -0.3415 -0.7026  0.2332
18635TIP3   OH277319   6.015   0.049  11.636 -0.4182 -0.9044 -0.3367
18635TIP3    H177320   5.948   0.116  11.649  1.2851  1.4206 -2.4740
18635TIP3    H277321   6.018   0.036  11.541  1.3705 -1.7696 -0.2112
18636TIP3   OH277322   5.916   2.477  13.399 -0.3115 -0.2264  0.3876
18636TIP3    H177323   5.898   2.387  13.371  1.5107 -0.8099  1.0042
18636TIP3    H277324   5.996   2.471  13.451  0.2222  1.8575 -0.1143
18637TIP3   OH277325   1.028   5.822  15.798  0.4144  0.1835 -0.3241
18637TIP3    H177326   1.067   5.858  15.878  1.5205  1.2230 -1.2829
18637TIP3    H277327   1.102   5.805  15.741 -0.2783 -1.6084 -0.7367
18638TIP3   OH277328   0.861   3.523  12.659  0.3075  0.8737 -0.7667
18638TIP3    H177329   0.874   3.585  12.730 -0.1591 -0.6586  0.7123
18638TIP3    H277330   0.934   3.462  12.666  1.1572  1.6064 -2.6494
18639TIP3   OH277331   0.019   5.199  10.454  0.0190  0.6445  0.1547
18639TIP3    H177332  -0.010   5.120  10.500  0.6092  0.2180 -0.1904
18639TIP3    H277333  -0.062   5.242  10.426 -0.3690  1.0259  1.7627
18640TIP3   OH277334   2.952   5.682   0.012 -0.3246 -0.5390  0.0201
18640TIP3    H177335   2.988   5.596  -0.006 -0.4626 -0.2108 -2.0913
18640TIP3    H277336   3.025   5.732   0.047  0.0214 -1.2141  0.2737
18641TIP3   OH277337   4.639   5.922  12.446 -0.6453 -0.5018 -0.2822
18641TIP3    H177338   4.574   5.883  12.505  0.1926  0.0825  1.0852
18641TIP3    H277339   4.723   5.887  12.476 -0.2100 -0.3212 -1.2513
18642TIP3   OH277340   5.883   0.010   3.859 -0.3361  0.1971  0.6499
18642TIP3    H177341   5.977   0.003   3.877 -0.3515 -0.3182  0.5395
18642TIP3    H277342   5.842  -0.025   3.938 -0.4260 -0.1771  0.4382
18643TIP3   OH277343   0.381   4.598  16.023  0.6646  0.4852  0.0117
18643TIP3    H177344   0.402   4.592  16.116  1.1829  0.4282 -0.1046
18643TIP3    H277345   0.466   4.608  15.980  0.6546 -1.7681 -0.6428
18644TIP3   OH277346   0.273   4.720   0.151  0.6048 -0.0230 -0.0650
18644TIP3    H177347   0.260   4.649   0.088  1.0543 -0.8356  0.7399
18644TIP3    H277348   0.211   4.788   0.124 -1.2821 -1.5149  0.3093
18645TIP3   OH277349   5.392   5.450  12.259  0.4641 -0.1047 -0.2302
18645TIP3    H177350   5.435   5.442  12.345  0.5661 -0.0080 -0.2716
18645TIP3    H277351   5.443   5.517  12.214 -0.0788  0.4280 -0.0624
18646TIP3   OH277352   3.857   0.862   2.788  0.0855 -0.5304 -0.5287
18646TIP3    H177353   3.775   0.813   2.797  0.3282 -0.7040  0.8730
18646TIP3    H277354   3.897   0.827   2.708 -0.3035 -1.7949 -0.1903
18647TIP3   OH277355   4.042   2.446  15.428 -0.4513 -0.1728 -0.2666
18647TIP3    H177356   4.066   2.536  15.452  0.6705 -0.4202 -0.4337
18647TIP3    H277357   3.980   2.457  15.356  1.7094  0.4744 -2.1342
18648TIP3   OH277358   2.215   0.326   5.383 -0.2660 -0.4342  0.3087
18648TIP3    H177359   2.225   0.417   5.409 -0.9327  0.4994 -2.4152
18648TIP3    H277360   2.121   0.309   5.389 -0.7869  0.4677 -3.0516
18649TIP3   OH277361   5.013   1.729   4.911  0.2599  0.2771 -0.2207
18649TIP3    H177362   4.971   1.715   4.995  0.9910 -0.0832  0.0939
18649TIP3    H277363   5.095   1.680   4.916  0.3991  0.3984 -1.0726
18650TIP3   OH277364   5.364   2.127   4.524  0.0839 -0.1775 -0.2435
18650TIP3    H177365   5.442   2.077   4.547  1.4882  1.2496 -1.6864
18650TIP3    H277366   5.375   2.212   4.567 -0.0419  0.4735 -1.4430
18651TIP3   OH277367   4.320   6.132  10.632  0.5479 -0.1523  0.1570
18651TIP3    H177368   4.349   6.190  10.561 -0.1713 -0.7007 -0.6097
18651TIP3    H277369   4.225   6.131  10.625  0.5083 -0.8163  0.6528
18652TIP3   OH277370   0.924   5.285  13.311 -0.1388 -0.0531 -0.3361
18652TIP3    H177371   0.930   5.379  13.294 -1.7042  0.4050  1.2823
18652TIP3    H277372   1.010   5.251  13.287  0.2136  1.6446 -1.7029
18653TIP3   OH277373   4.355   5.008  15.410 -0.1383  0.2961  0.3757
18653TIP3    H177374   4.335   5.082  15.466  0.1454 -0.8249  2.0110
18653TIP3    H277375   4.284   4.945  15.427 -0.4006  0.1696 -1.0086
18654TIP3   OH277376   0.580   1.371  16.726 -0.6358 -0.1137  0.0737
18654TIP3    H177377   0.600   1.464  16.734 -1.5094  0.2331 -1.4669
18654TIP3    H277378   0.665   1.328  16.736 -0.4886  0.6076  3.1733
18655TIP3   OH277379   3.820   1.770  15.512  0.1053 -0.0658 -0.1421
18655TIP3    H177380   3.793   1.679  15.517 -1.0932  0.3016  0.6531
18655TIP3    H277381   3.824   1.799  15.604 -2.6891  1.5270 -0.4119
18656TIP3   OH277382   6.680   6.151  11.985  0.2049  0.0033 -0.1064
18656TIP3    H177383   6.749   6.216  12.000 -0.4641  0.4604  1.1707
18656TIP3    H277384   6.716   6.092  11.919  0.3311  2.4084 -2.3435
18657TIP3   OH277385   1.173   5.858   1.254 -0.8719 -0.3871 -0.0450
18657TIP3    H177386   1.220   5.788   1.300 -0.7476 -1.8810 -2.3074
18657TIP3    H277387   1.165   5.928   1.319  2.2339 -1.0364  1.2179
18658TIP3   OH277388   1.838   5.902  16.474  0.5352 -0.5797 -0.1829
18658TIP3    H177389   1.874   5.928  16.559 -0.7551  2.1401 -0.3361
18658TIP3    H277390   1.751   5.942  16.471  1.1176  0.8391 -3.3609
18659TIP3   OH277391   3.909   0.989  13.030 -0.3788  0.2223 -0.0308
18659TIP3    H177392   3.909   0.901  12.992  0.2243  0.6768 -1.1543
18659TIP3    H277393   3.849   1.039  12.974  0.5817  0.9299 -0.4720
18660TIP3   OH277394   5.539   3.543   4.077 -0.0018 -0.5897  0.1899
18660TIP3    H177395   5.629   3.566   4.054 -0.6500  0.2902 -1.7077
18660TIP3    H277396   5.534   3.449   4.060 -0.0008 -0.2544 -1.8921
18661TIP3   OH277397   3.124   5.604   1.758  0.1205  0.1323  0.1967
18661TIP3    H177398   3.121   5.650   1.674 -3.4760 -0.1069  0.0147
18661TIP3    H277399   3.033   5.604   1.789  1.3951  1.3771  4.7930
18662TIP3   OH277400   4.189   5.592   5.741  0.4527 -0.3903 -0.6683
18662TIP3    H177401   4.223   5.650   5.672  1.9612 -0.3663  0.0553
18662TIP3    H277402   4.204   5.504   5.707  1.0447 -0.3768 -0.4538
18663TIP3   OH277403   5.704   6.648   6.188 -0.1204 -0.1488 -0.0123
18663TIP3    H177404   5.757   6.628   6.265  0.1845  1.0104  0.1075
18663TIP3    H277405   5.626   6.594   6.197 -0.6410  0.8125  1.7378
18664TIP3   OH277406   5.498   3.068  13.779  0.0473  0.4174 -0.1139
18664TIP3    H177407   5.410   3.089  13.748 -0.1933 -2.0600 -1.3615
18664TIP3    H277408   5.556   3.129  13.731 -0.8291  0.8088 -0.7018
18665TIP3   OH277409   1.600   3.473  13.328 -0.0709 -0.2087  0.4936
18665TIP3    H177410   1.562   3.516  13.405  1.8954  1.1418  0.7932
18665TIP3    H277411   1.605   3.543  13.262 -1.4968 -1.2855 -0.8245
18666TIP3   OH277412   6.658   5.846   4.645  0.1322  0.0926  0.2833
18666TIP3    H177413   6.707   5.797   4.711  1.8803  1.1135 -0.2102
18666TIP3    H277414   6.605   5.908   4.695 -2.4347 -2.3811  0.9591
18667TIP3   OH277415   2.491   4.116  17.070  0.0596 -0.3663 -0.3179
18667TIP3    H177416   2.537   4.038  17.038  0.7200  0.5138 -1.5916
18667TIP3    H277417   2.519   4.186  17.012  0.5499  1.1355  1.6273
18668TIP3   OH277418   4.095   2.847  13.376 -0.1956  0.0321  0.2959
18668TIP3    H177419   4.084   2.889  13.291  0.0306 -0.3702  0.0613
18668TIP3    H277420   4.176   2.796  13.366 -0.6964 -0.8070  0.4222
18669TIP3   OH277421   3.379   3.420   5.456  0.2276  0.0858 -0.4169
18669TIP3    H177422   3.392   3.471   5.376  0.0299  0.0023 -0.5041
18669TIP3    H277423   3.291   3.443   5.485  0.1399 -0.1997 -0.4534
18670TIP3   OH277424   1.713   4.680   6.075 -0.4095 -0.0931 -0.3238
18670TIP3    H177425   1.629   4.665   6.118  0.1394  4.7722  3.3807
18670TIP3    H277426   1.776   4.683   6.147  2.0544  1.1565 -2.3557
18671TIP3   OH277427   4.860   0.098  13.700  0.4782 -0.1282  0.5578
18671TIP3    H177428   4.899   0.162  13.641  0.2517 -2.2683 -2.1012
18671TIP3    H277429   4.916   0.100  13.777  0.0846  3.6663  0.9581
18672TIP3   OH277430   2.726   5.158  16.851  0.2692 -0.0093 -0.1441
18672TIP3    H177431   2.769   5.159  16.766  1.2716 -0.5726  0.3445
18672TIP3    H277432   2.707   5.065  16.867 -1.6447  0.2664 -0.5879
18673TIP3   OH277433   1.821   6.032   0.816 -0.1511 -0.1589  0.8691
18673TIP3    H177434   1.876   6.107   0.839  0.9877 -0.3853 -0.8985
18673TIP3    H277435   1.883   5.963   0.793 -1.1373 -0.6012 -0.6454
18674TIP3   OH277436   0.133   3.037   4.708  0.4799  0.3377 -0.2159
18674TIP3    H177437   0.221   3.038   4.745 -0.0776 -2.5837  1.4707
18674TIP3    H277438   0.147   3.027   4.613  1.9715 -0.2653  0.0488
18675TIP3   OH277439   4.772   1.916  16.657 -0.2310 -0.0029 -0.3154
18675TIP3    H177440   4.718   1.839  16.679 -0.3129  0.0197 -0.4327
18675TIP3    H277441   4.746   1.982  16.720 -1.2982  0.4358 -1.1704
18676TIP3   OH277442   4.489   4.129   0.102  0.1833 -0.0357 -0.3927
18676TIP3    H177443   4.437   4.188   0.047  0.0550 -0.2049 -0.4519
18676TIP3    H277444   4.576   4.168   0.103  0.0270  0.3232 -0.1900
18677TIP3   OH277445   5.871   3.863  11.661  0.2140 -0.4111  0.0397
18677TIP3    H177446   5.840   3.863  11.752 -2.1983 -0.4200 -0.7142
18677TIP3    H277447   5.873   3.770  11.636  1.0153 -0.4196  0.0897
18678TIP3   OH277448   2.213   2.312   4.857  0.0365 -0.0868  0.3245
18678TIP3    H177449   2.162   2.393   4.856 -0.2150 -0.2343  1.1709
18678TIP3    H277450   2.147   2.242   4.861  0.2941 -0.2819  1.2958
18679TIP3   OH277451   6.427   2.067   1.744  0.0597  0.6578 -0.3753
18679TIP3    H177452   6.443   2.009   1.670  0.0680 -1.7814  1.4299
18679TIP3    H277453   6.481   2.144   1.726  1.7697 -0.7843 -1.8404
18680TIP3   OH277454   0.503   3.107   5.383 -0.3772  0.4138  0.0552
18680TIP3    H177455   0.446   3.084   5.309  0.1487 -1.8469  0.2522
18680TIP3    H277456   0.448   3.094   5.460 -0.1631  0.0970  0.1583
18681TIP3   OH277457   6.483   0.450   5.353  0.3266 -0.0598  0.2895
18681TIP3    H177458   6.567   0.484   5.383  1.3539 -0.7180 -1.6772
18681TIP3    H277459   6.441   0.525   5.309 -0.6438  0.5680  2.1910
18682TIP3   OH277460   1.442   0.570  16.084  0.1818  0.2485 -0.1944
18682TIP3    H177461   1.525   0.605  16.050  0.2581  1.2530  1.0033
18682TIP3    H277462   1.468   0.496  16.138  0.1888 -0.1982 -0.7908
18683TIP3   OH277463   0.496   1.844  13.236  0.0675  0.7107 -0.1728
18683TIP3    H177464   0.589   1.833  13.220 -0.0703 -1.7112  0.1924
18683TIP3    H277465   0.459   1.868  13.151  0.7466 -0.7699 -0.9179
18684TIP3   OH277466   5.421   4.250  15.156  0.0291  0.0277  0.3858
18684TIP3    H177467   5.397   4.231  15.065 -1.5309  2.2616  0.2447
18684TIP3    H277468   5.516   4.264  15.154 -0.0018  0.1628 -0.9361
18685TIP3   OH277469   0.105   4.765   3.199 -0.0572 -0.3032 -0.4170
18685TIP3    H177470   0.044   4.716   3.253 -0.9226  0.3511 -0.7750
18685TIP3    H277471   0.188   4.717   3.206 -0.4877 -0.9426  0.4401
18686TIP3   OH277472   2.952   0.475   0.229 -0.0730  0.8427 -0.5168
18686TIP3    H177473   2.914   0.550   0.275 -0.5489  0.0876  0.3501
18686TIP3    H277474   2.914   0.479   0.142 -1.5426  0.5759  0.0771
18687TIP3   OH277475   5.672   4.056   5.455 -0.5278 -0.3411  0.3090
18687TIP3    H177476   5.630   3.971   5.439  0.3562 -0.6463 -0.5263
18687TIP3    H277477   5.669   4.066   5.550  0.1952 -1.7872  0.5234
18688TIP3   OH277478   3.609   3.848   0.804  0.2519 -0.3397  0.1769
18688TIP3    H177479   3.674   3.780   0.820  1.0837  0.2666 -0.4554
18688TIP3    H277480   3.644   3.897   0.729  0.0787  1.2517  1.0766
18689TIP3   OH277481   3.179   2.926  13.318  0.2962  0.0134 -0.7000
18689TIP3    H177482   3.217   2.944  13.233  1.6743  0.4207 -0.0168
18689TIP3    H277483   3.187   2.832  13.329 -0.8022 -0.1797 -1.4280
18690TIP3   OH277484   4.952   5.867  11.848  0.2376 -0.1875  0.5936
18690TIP3    H177485   5.040   5.878  11.884  0.8775  0.2114 -1.0319
18690TIP3    H277486   4.923   5.956  11.830 -0.2770 -0.3586  0.5776
18691TIP3   OH277487   1.788   0.486   2.496  0.5522  0.1589  0.1121
18691TIP3    H177488   1.882   0.480   2.510  0.3956 -1.0093  0.8162
18691TIP3    H277489   1.767   0.578   2.514  1.8651  1.0175 -2.3040
18692TIP3   OH277490   5.380   0.555   5.141  0.2295  0.3481 -0.1454
18692TIP3    H177491   5.315   0.568   5.210 -1.1046  0.2965 -1.3454
18692TIP3    H277492   5.361   0.625   5.078  1.3560  0.3390 -0.5067
18693TIP3   OH277493   1.291   5.097  13.574 -0.4858  0.1487  0.3863
18693TIP3    H177494   1.311   5.004  13.557  0.1866  0.3740 -0.1301
18693TIP3    H277495   1.323   5.142  13.495 -0.3487  0.8708  0.8500
18694TIP3   OH277496   6.363   0.761   0.983 -0.2736  0.3565 -0.8238
18694TIP3    H177497   6.274   0.795   0.974  0.0690  1.1813 -1.1928
18694TIP3    H277498   6.352   0.668   1.005 -1.2195  0.4858 -0.7410
18695TIP3   OH277499   0.359   5.393  11.580  0.3494 -0.0717 -0.2156
18695TIP3    H177500   0.397   5.376  11.666  2.2300  0.7039 -0.8505
18695TIP3    H277501   0.399   5.475  11.552 -0.3995 -0.2010 -1.7456
18696TIP3   OH277502   1.395   4.861   6.111 -0.4736  0.0169  0.2842
18696TIP3    H177503   1.342   4.789   6.144  0.6363 -1.3574 -0.8141
18696TIP3    H277504   1.424   4.832   6.024  0.1151  1.7321 -0.1307
18697TIP3   OH277505   3.255   6.128   1.863 -0.1660 -0.6486 -0.1542
18697TIP3    H177506   3.180   6.085   1.904 -1.4161  2.2107  0.7892
18697TIP3    H277507   3.224   6.150   1.775  0.0721 -0.6319 -0.2340
18698TIP3   OH277508   1.051   1.442   1.567  0.1127 -0.1574  0.1197
18698TIP3    H177509   0.966   1.400   1.552  0.2918 -0.9186  1.0930
18698TIP3    H277510   1.105   1.416   1.492  0.5179 -2.5227  1.1299
18699TIP3   OH277511   1.715   5.909   5.608 -0.2081 -0.4282 -0.4352
18699TIP3    H177512   1.805   5.925   5.582 -0.8076 -0.0176 -2.3825
18699TIP3    H277513   1.699   5.971   5.679  1.0074 -0.4906 -0.0840
18700TIP3   OH277514   3.910   0.220  12.661 -0.7608 -0.0299  0.0270
18700TIP3    H177515   3.917   0.183  12.573 -2.4765 -1.2280  0.3504
18700TIP3    H277516   3.825   0.264  12.662 -0.3133  0.8417  0.7899
18701TIP3   OH277517   6.518   2.866  12.692  0.7010 -0.0073  0.1932
18701TIP3    H177518   6.473   2.803  12.748  1.2806  1.9406  3.0642
18701TIP3    H277519   6.582   2.813  12.644  0.6729 -1.7345  1.9289
18702TIP3   OH277520   2.515   3.415   3.923  0.3330 -0.8274 -0.4810
18702TIP3    H177521   2.509   3.373   3.837  2.5299 -0.7550 -0.7363
18702TIP3    H277522   2.586   3.479   3.913  0.6320 -0.8171  1.3691
18703TIP3   OH277523   0.180   2.036  10.687 -0.1972 -0.2548  0.4851
18703TIP3    H177524   0.275   2.047  10.691  0.0775 -2.1590  0.3420
18703TIP3    H277525   0.154   2.024  10.778 -0.3197  0.3523  0.5324
18704TIP3   OH277526   3.051   5.380   1.470 -0.4357 -0.5788  0.3683
18704TIP3    H177527   3.117   5.433   1.426  0.0149  0.8744  2.6638
18704TIP3    H277528   2.967   5.416   1.440 -0.1418  1.4692  1.8032
18705TIP3   OH277529   5.453   1.993   2.163  0.3985 -0.2289  0.6962
18705TIP3    H177530   5.536   1.973   2.120  2.7575  2.1052  3.6943
18705TIP3    H277531   5.478   2.021   2.251 -3.6174  0.5145  1.7816
18706TIP3   OH277532   3.250   4.626   3.183 -0.6291  0.3869  0.0901
18706TIP3    H177533   3.155   4.618   3.188 -0.6171  0.9751  2.3409
18706TIP3    H277534   3.267   4.648   3.092 -2.7885  1.8224 -0.0425
18707TIP3   OH277535   3.904   6.375  11.015 -0.0775  0.3807 -0.0495
18707TIP3    H177536   3.996   6.399  11.007  0.5483 -2.1625 -1.6364
18707TIP3    H277537   3.865   6.401  10.932  0.1873 -1.9591 -1.0043
18708TIP3   OH277538   2.900   0.097  14.503 -0.3642  0.1307 -0.4434
18708TIP3    H177539   2.990   0.106  14.471  0.0380 -0.6860  0.4146
18708TIP3    H277540   2.906   0.119  14.596 -1.2382  1.0062 -0.5823
18709TIP3   OH277541   2.131   0.410   0.047  0.3409 -0.1220  0.4564
18709TIP3    H177542   2.126   0.481   0.111 -0.1232 -0.1976  0.5122
18709TIP3    H277543   2.090   0.335   0.091 -0.5389 -0.0073 -0.1365
18710TIP3   OH277544   4.380   2.496   3.450  0.0482  0.2948  0.0627
18710TIP3    H177545   4.385   2.581   3.493  1.2260  0.3477 -0.1366
18710TIP3    H277546   4.290   2.490   3.419  0.4579  2.3787 -1.7445
18711TIP3   OH277547   1.226   5.953   2.525  0.2586  0.8347  0.3991
18711TIP3    H177548   1.140   5.979   2.491  0.0074 -0.6499 -0.1958
18711TIP3    H277549   1.235   6.000   2.608 -2.7224 -1.5991  2.3319
18712TIP3   OH277550   0.884   5.824   3.739  0.1079  0.3206 -0.1207
18712TIP3    H177551   0.912   5.742   3.780 -1.2908 -0.3570 -0.4592
18712TIP3    H277552   0.896   5.890   3.807 -0.4753 -0.4840  0.7839
18713TIP3   OH277553   5.848   4.179  11.150 -0.5775 -0.0134  0.2642
18713TIP3    H177554   5.842   4.248  11.216  0.6000 -0.1546  0.5277
18713TIP3    H277555   5.769   4.191  11.096 -0.7822  1.0382  0.7750
18714TIP3   OH277556   6.120   5.819   5.829 -0.4268 -0.3085 -0.0581
18714TIP3    H177557   6.043   5.763   5.844  0.5819 -1.3824  1.4304
18714TIP3    H277558   6.111   5.849   5.739 -2.1921 -1.0332 -0.1585
18715TIP3   OH277559   4.940   5.265   1.039  0.5135 -0.1479  0.0116
18715TIP3    H177560   5.027   5.287   1.007 -0.1838  1.8668 -0.6671
18715TIP3    H277561   4.889   5.345   1.028 -1.1843 -0.9756  1.2977
18716TIP3   OH277562   5.791   1.642   4.401 -0.4251  0.0391  0.1074
18716TIP3    H177563   5.847   1.698   4.454  0.0509 -0.4262  0.1050
18716TIP3    H277564   5.702   1.667   4.424 -0.2258  1.5536 -0.6907
18717TIP3   OH277565   1.936   6.236  16.694 -0.5242  0.1457  0.0611
18717TIP3    H177566   2.031   6.248  16.692 -0.5150  0.3069  1.0739
18717TIP3    H277567   1.923   6.142  16.685 -0.3150  0.2022 -0.9592
18718TIP3   OH277568   6.425   3.705  15.946  0.2837  0.0528 -0.4789
18718TIP3    H177569   6.424   3.698  15.850 -1.5019  1.0976 -0.5854
18718TIP3    H277570   6.476   3.784  15.964 -0.2088  0.4148 -0.6405
18719TIP3   OH277571   5.483   4.506  13.540  0.1991 -0.3577 -0.1657
18719TIP3    H177572   5.492   4.538  13.451 -0.3245 -1.7464 -0.7433
18719TIP3    H277573   5.389   4.491  13.552  0.3855 -1.3120  0.1947
18720TIP3   OH277574   5.686   4.840  11.763  0.1367 -0.6148  0.3202
18720TIP3    H177575   5.603   4.831  11.717  0.2831 -1.1485  0.1635
18720TIP3    H277576   5.744   4.882  11.699 -0.7246  2.2704  1.2544
18721TIP3   OH277577   3.279   6.660   0.172  0.0757  0.0608 -0.0408
18721TIP3    H177578   3.315   6.741   0.209 -2.9895  1.1469  0.8801
18721TIP3    H277579   3.238   6.688   0.090  1.4427 -1.1685 -1.1874
18722TIP3   OH277580   2.146   1.810   0.049  0.8369  0.2687 -0.2267
18722TIP3    H177581   2.065   1.860   0.044  1.2962  1.4560  2.4998
18722TIP3    H277582   2.119   1.722   0.076  0.3900  0.3068 -0.5315
18723TIP3   OH277583   3.424   4.969   3.425  0.3490  0.5445 -0.0415
18723TIP3    H177584   3.383   5.055   3.417 -2.2033 -0.6723 -0.8715
18723TIP3    H277585   3.405   4.925   3.343 -0.4309 -1.6313  1.2362
18724TIP3   OH277586   2.783   3.425   2.236  0.2144 -0.7002 -0.7178
18724TIP3    H177587   2.798   3.330   2.230  1.8541 -0.3986 -2.1281
18724TIP3    H277588   2.697   3.438   2.197  0.0271 -1.5863 -0.6228
18725TIP3   OH277589   5.296   3.059  14.987 -0.4375  0.4525 -0.0243
18725TIP3    H177590   5.308   3.077  14.894  0.8963 -1.4026 -0.2606
18725TIP3    H277591   5.377   3.088  15.028  0.2456 -1.4642  0.0819
18726TIP3   OH277592   0.825   1.236  11.225  0.4414  0.4855  0.5632
18726TIP3    H177593   0.784   1.299  11.166  1.0544 -0.3186 -0.7770
18726TIP3    H277594   0.902   1.281  11.260  1.0807  0.3962 -0.6687
18727TIP3   OH277595   3.914   6.140   3.594 -0.1690 -0.1993  0.0045
18727TIP3    H177596   3.923   6.208   3.660 -0.8081 -0.3043  0.2003
18727TIP3    H277597   3.821   6.116   3.595  0.4549 -3.2106  2.1171
18728TIP3   OH277598   6.466   4.691   0.043  0.2873  0.1373 -0.0839
18728TIP3    H177599   6.499   4.706  -0.045 -0.3357  1.6278 -0.0964
18728TIP3    H277600   6.442   4.778   0.075  0.1975 -0.4068  1.4419
18729TIP3   OH277601   5.368   4.549   1.224 -0.0616 -0.0334  0.1517
18729TIP3    H177602   5.442   4.608   1.242  0.6195 -0.2822 -1.6233
18729TIP3    H277603   5.406   4.462   1.232 -0.8327 -0.2572  1.7884
18730TIP3   OH277604   6.159   3.803  15.071  0.0239 -0.1507 -0.1918
18730TIP3    H177605   6.164   3.889  15.112 -2.4899  0.0722 -0.2020
18730TIP3    H277606   6.186   3.742  15.140 -2.3969  0.3624  1.3378
18731TIP3   OH277607   0.186   5.990  12.225 -0.6973  0.2328 -0.2557
18731TIP3    H177608   0.258   5.979  12.286 -2.1887 -3.9522  1.1481
18731TIP3    H277609   0.128   6.053  12.267  0.0574  0.2466  0.8130
18732TIP3   OH277610   1.055   6.292   2.889  0.5290  0.1987 -0.3732
18732TIP3    H177611   0.983   6.246   2.847  0.9676 -0.5308 -0.3365
18732TIP3    H277612   1.063   6.374   2.841 -0.0625  0.1039 -0.6322
18733TIP3   OH277613   2.099   3.794  11.751 -0.2168  0.2949 -0.0718
18733TIP3    H177614   2.051   3.850  11.689  0.7086  1.1393 -0.0507
18733TIP3    H277615   2.134   3.724  11.697  1.4813  1.5962 -0.7521
18734TIP3   OH277616   2.501   3.211   0.809 -0.5084  0.7269  0.4494
18734TIP3    H177617   2.462   3.220   0.896  0.1649  0.1030  0.8352
18734TIP3    H277618   2.430   3.182   0.753 -0.7022  0.0249  1.0481
18735TIP3   OH277619   5.027   0.250   2.348 -0.4856 -0.1727  0.3437
18735TIP3    H177620   5.058   0.340   2.344 -2.8989  0.7578  1.2739
18735TIP3    H277621   5.043   0.222   2.438  0.3969 -0.7594  0.0198
18736TIP3   OH277622   0.813   3.561  13.009 -0.6892 -0.5842  0.0215
18736TIP3    H177623   0.833   3.616  12.933 -1.7620  1.4601  1.1217
18736TIP3    H277624   0.897   3.520  13.032 -0.4127 -1.5330 -2.4120
18737TIP3   OH277625   5.065   0.975  13.460  0.1371 -0.1841 -0.1301
18737TIP3    H177626   5.092   0.888  13.489  0.3070 -0.0516  0.1106
18737TIP3    H277627   5.141   1.009  13.414 -0.6225 -0.9844 -2.0763
18738TIP3   OH277628   5.610   3.957   3.755  0.0730 -0.0102 -0.1179
18738TIP3    H177629   5.604   4.050   3.778  0.9140 -0.1950  0.8745
18738TIP3    H277630   5.694   3.948   3.711  0.1803 -0.3775  0.1577
18739TIP3   OH277631   1.510   3.529  13.925 -0.5275 -0.3677 -0.7415
18739TIP3    H177632   1.480   3.439  13.915 -1.6081 -0.1272  0.1119
18739TIP3    H277633   1.583   3.523  13.987 -1.8032 -0.4917  0.8333
18740TIP3   OH277634   3.420   3.118   0.905  0.9724  0.2489 -0.6412
18740TIP3    H177635   3.395   3.145   0.993 -1.2239  1.3470 -1.5196
18740TIP3    H277636   3.392   3.027   0.899  1.9556 -0.1085  0.0666
18741TIP3   OH277637   4.339   3.518   3.717 -0.2988  0.2238  0.2458
18741TIP3    H177638   4.278   3.553   3.781 -0.2698  0.3464  0.2081
18741TIP3    H277639   4.359   3.593   3.660 -0.6220  0.0209 -0.1380
18742TIP3   OH277640   1.307   5.039  15.092 -0.4079  0.3997  0.4206
18742TIP3    H177641   1.279   5.123  15.127 -0.3458  0.3652  0.5536
18742TIP3    H277642   1.243   4.976  15.125  0.7251  0.0583  2.0912
18743TIP3   OH277643   2.562   1.179   6.402 -0.0566 -0.0799 -0.2065
18743TIP3    H177644   2.481   1.184   6.452 -0.4622 -2.2384 -0.5854
18743TIP3    H277645   2.574   1.268   6.367 -2.0421  0.3569  0.1440
18744TIP3   OH277646   5.975   6.428  13.858 -0.2003 -0.3938 -0.8254
18744TIP3    H177647   5.904   6.448  13.796 -0.7699  1.1421  0.2676
18744TIP3    H277648   5.945   6.463  13.941  0.8418 -1.8439  0.2070
18745TIP3   OH277649   6.193   4.069  15.168 -0.1129 -0.1519 -0.1789
18745TIP3    H177650   6.169   4.086  15.077 -1.8828  2.2133  0.6282
18745TIP3    H277651   6.288   4.059  15.166 -0.2356 -1.9310 -2.4668
18746TIP3   OH277652   4.307   3.526  15.680 -0.1939  0.5012  0.0245
18746TIP3    H177653   4.378   3.589  15.664 -1.3871  1.8836 -0.0833
18746TIP3    H277654   4.302   3.474  15.600  0.1814  0.9264 -0.2840
18747TIP3   OH277655   6.367   1.004   1.863 -0.6218  0.4151 -0.6302
18747TIP3    H177656   6.452   0.958   1.866 -1.2270 -0.7702 -1.0783
18747TIP3    H277657   6.385   1.089   1.902  0.4613 -0.3383  0.6022
18748TIP3   OH277658   6.363   2.450  15.845 -0.1429 -0.3465  0.1569
18748TIP3    H177659   6.375   2.544  15.829  1.2783 -0.8288 -2.1155
18748TIP3    H277660   6.324   2.417  15.764 -0.6342 -1.7356  0.9315
18749TIP3   OH277661   2.767   0.159  14.281 -0.6819 -0.6938  0.4815
18749TIP3    H177662   2.837   0.127  14.337  1.1648  3.4979  0.9165
18749TIP3    H277663   2.699   0.187  14.341  1.0091  3.1432  0.8889
18750TIP3   OH277664   5.726   6.457   1.095  0.0939 -0.3131 -0.4877
18750TIP3    H177665   5.735   6.379   1.039  0.2165 -0.5628 -0.1246
18750TIP3    H277666   5.653   6.436   1.153  1.2179 -0.8764  0.7699
18751TIP3   OH277667   2.335   2.771  14.503 -0.5409 -0.3943 -0.0455
18751TIP3    H177668   2.400   2.779  14.572 -1.3804 -2.3628  1.0667
18751TIP3    H277669   2.377   2.716  14.437 -0.2386  0.3331 -0.4694
18752TIP3   OH277670   5.374   2.279   5.306  0.0073  0.4631 -0.3407
18752TIP3    H177671   5.439   2.298   5.374 -0.5301  0.5428  0.1589
18752TIP3    H277672   5.356   2.364   5.266  0.1995  0.4427 -0.4715
18753TIP3   OH277673   6.562   6.616  13.496  0.0431  0.4190 -0.1171
18753TIP3    H177674   6.477   6.657  13.481  0.6942  1.9738  0.2768
18753TIP3    H277675   6.584   6.577  13.411 -0.2809  1.5285 -0.7391
18754TIP3   OH277676   0.061   5.514  13.864  0.1896  0.4997  0.2593
18754TIP3    H177677   0.101   5.556  13.788  0.3215 -0.6275 -0.3151
18754TIP3    H277678   0.012   5.584  13.907  1.0581  1.4178 -0.2069
18755TIP3   OH277679   4.322   2.080   3.931  0.0337 -0.3931 -0.1774
18755TIP3    H177680   4.295   2.159   3.884 -1.0591 -1.0093 -0.6227
18755TIP3    H277681   4.403   2.052   3.887  0.3989  0.4300 -0.0509
18756TIP3   OH277682   3.371   5.257   1.243 -0.1434 -0.7434 -0.6424
18756TIP3    H177683   3.448   5.236   1.296  0.3463  2.6616  0.2371
18756TIP3    H277684   3.297   5.223   1.294  0.3795  1.6476  1.9715
18757TIP3   OH277685   4.915   3.574  15.883  0.3796 -0.0697 -0.0708
18757TIP3    H177686   5.002   3.533  15.880  1.1446  1.4846 -0.1040
18757TIP3    H277687   4.920   3.636  15.956 -1.1491 -0.8609  0.7577
18758TIP3   OH277688   3.080   4.133   1.676 -0.7272  0.5398 -0.2549
18758TIP3    H177689   3.086   4.048   1.720 -1.1200 -0.0604 -1.3220
18758TIP3    H277690   3.011   4.179   1.723 -0.3873  0.3375  0.4474
18759TIP3   OH277691   5.463   0.859  13.387 -0.0551 -0.0130  0.1779
18759TIP3    H177692   5.426   0.947  13.384 -1.7446 -0.6975 -2.4551
18759TIP3    H277693   5.540   0.863  13.331  0.0015 -0.1269  0.2471
18760TIP3   OH277694   4.625   6.613   4.398 -0.1417 -0.0051  0.3279
18760TIP3    H177695   4.592   6.523   4.399  2.7781 -1.2129  1.3833
18760TIP3    H277696   4.620   6.642   4.489 -0.6427  0.7507  0.0688
18761TIP3   OH277697   4.772   2.288  16.342 -0.3395  0.4105 -0.2897
18761TIP3    H177698   4.683   2.323  16.339 -0.2340  0.7881  0.6600
18761TIP3    H277699   4.827   2.361  16.315 -0.2278  0.5537  0.3168
18762TIP3   OH277700   3.556   4.904   1.593 -0.5863 -0.5063  0.1259
18762TIP3    H177701   3.605   4.884   1.673 -0.9209 -1.5523  0.0811
18762TIP3    H277702   3.471   4.861   1.606 -1.1653  0.5122 -0.1890
18763TIP3   OH277703   6.187   5.826   2.317 -0.1984 -1.1457 -0.3599
18763TIP3    H177704   6.153   5.881   2.247 -1.0404  1.9617  2.2711
18763TIP3    H277705   6.126   5.753   2.322 -1.0452 -0.5695 -1.7564
18764TIP3   OH277706   4.656   1.807  12.085  0.2255  0.0999 -0.6311
18764TIP3    H177707   4.674   1.873  12.017  0.6182 -0.1688 -0.7981
18764TIP3    H277708   4.735   1.808  12.139  0.3737 -0.4597 -0.8297
18765TIP3   OH277709   4.221   3.408   0.347 -0.0390  0.1974  0.6928
18765TIP3    H177710   4.311   3.433   0.368 -0.2358  0.1360  1.6644
18765TIP3    H277711   4.225   3.378   0.256  0.8166  0.6991  0.5534
18766TIP3   OH277712   6.494   5.418  12.106 -0.5510  0.0952  1.4958
18766TIP3    H177713   6.416   5.373  12.138 -0.4282 -0.5169  0.9793
18766TIP3    H277714   6.509   5.380  12.019 -0.6912  1.4602  0.8461
18767TIP3   OH277715   2.039   0.039   6.088  0.1848  0.1862 -0.6820
18767TIP3    H177716   2.029   0.051   6.182  0.4458  2.3576 -0.8814
18767TIP3    H277717   2.030  -0.056   6.075 -0.4768 -0.0963  1.4264
18768TIP3   OH277718   2.772   5.579  15.482  0.2459  0.1812  0.4281
18768TIP3    H177719   2.736   5.567  15.395  1.0092  1.3541 -0.0769
18768TIP3    H277720   2.705   5.630  15.529  0.6921  1.3244 -0.1355
18769TIP3   OH277721   5.507   1.855   2.808  0.9311 -0.1796  0.1179
18769TIP3    H177722   5.510   1.947   2.782  1.0499 -0.4868 -0.9989
18769TIP3    H277723   5.477   1.857   2.899  0.1353  0.9128 -0.1539
18770TIP3   OH277724   6.062   5.302  15.609 -0.3612 -0.3829 -1.1443
18770TIP3    H177725   5.993   5.358  15.645 -0.4450 -0.7558 -0.7249
18770TIP3    H277726   6.033   5.213  15.626 -0.2513 -0.5594 -1.8624
18771TIP3   OH277727   5.531   4.262   4.253 -0.5385 -0.1154 -0.5378
18771TIP3    H177728   5.452   4.277   4.202  0.4703  1.4584 -1.7436
18771TIP3    H277729   5.570   4.348   4.262  0.1325 -0.5904  1.6100
18772TIP3   OH277730   4.366   4.393   5.299 -0.6901 -0.2526  0.2076
18772TIP3    H177731   4.364   4.299   5.283  0.0459 -0.9035  3.2523
18772TIP3    H277732   4.405   4.402   5.386  0.8922  2.9864 -0.6583
18773TIP3   OH277733   1.741   1.268  11.672  0.3288  0.0094 -0.5373
18773TIP3    H177734   1.712   1.209  11.742  0.7263  1.3823  0.8542
18773TIP3    H277735   1.685   1.344  11.680  0.2064  0.0837 -1.9316
18774TIP3   OH277736   3.018   3.267   2.199  0.0652 -0.3456 -0.4988
18774TIP3    H177737   3.098   3.269   2.251 -0.6027 -1.1746  0.6071
18774TIP3    H277738   2.989   3.358   2.197  0.3818 -0.2235  0.1555
18775TIP3   OH277739   2.659   3.912   5.562 -0.0114 -0.1689  0.4330
18775TIP3    H177740   2.604   3.839   5.589 -0.2677  0.0029  0.3838
18775TIP3    H277741   2.654   3.912   5.466  1.1295 -0.9569  0.3533
18776TIP3   OH277742   1.793   5.839  12.043 -0.4042  0.2248 -0.5052
18776TIP3    H177743   1.879   5.803  12.063  0.1008  1.7370  0.2355
18776TIP3    H277744   1.738   5.815  12.117 -0.4184 -0.1077 -0.6234
18777TIP3   OH277745   2.555   0.817   0.060 -0.0650 -0.3777 -0.3683
18777TIP3    H177746   2.548   0.731   0.017 -0.8947 -0.0248 -0.9632
18777TIP3    H277747   2.605   0.870  -0.002  0.9529 -0.5830  0.2576
18778TIP3   OH277748   0.755   5.729   1.341 -0.2946 -0.4382  0.0579
18778TIP3    H177749   0.801   5.648   1.362 -1.8764 -0.8988  2.0282
18778TIP3    H277750   0.734   5.722   1.248  1.3060 -1.3572 -0.2692
18779TIP3   OH277751   2.879   2.853  11.737  0.0047 -0.2988 -0.3805
18779TIP3    H177752   2.926   2.770  11.739  1.7701  0.6766  0.2822
18779TIP3    H277753   2.788   2.829  11.755  0.4629 -2.0853 -0.2587
18780TIP3   OH277754   2.315   5.329  14.418  0.2892 -0.5913  0.1642
18780TIP3    H177755   2.334   5.257  14.358  2.6846 -0.6867  0.9524
18780TIP3    H277756   2.389   5.330  14.478  1.7702  4.2185 -1.3581
18781TIP3   OH277757   6.403   2.306  17.184  0.0479 -0.2371  0.0840
18781TIP3    H177758   6.325   2.264  17.147  1.3370 -3.2943  0.5615
18781TIP3    H277759   6.382   2.317  17.277 -0.1874 -0.1304  0.0196
18782TIP3   OH277760   5.564   2.951   2.418  0.1468  0.3372  0.0930
18782TIP3    H177761   5.547   2.882   2.483 -1.2235 -2.0588 -2.6105
18782TIP3    H277762   5.482   3.001   2.415  0.5712  1.1220  0.8568
18783TIP3   OH277763   3.728   0.672  13.966  0.4754  0.1267 -0.3559
18783TIP3    H177764   3.755   0.727  14.039 -0.4868  0.5656 -0.3142
18783TIP3    H277765   3.645   0.709  13.937 -0.3598 -1.4729 -0.1386
18784TIP3   OH277766   0.420   6.474  15.136  0.0387 -0.2921 -0.2087
18784TIP3    H177767   0.410   6.545  15.200  0.4486  0.3528 -0.8346
18784TIP3    H277768   0.443   6.519  15.055  0.9990 -1.1926 -0.4594
18785TIP3   OH277769   6.234   2.180  16.221  0.8303  0.1903 -0.4987
18785TIP3    H177770   6.266   2.090  16.227  2.1546  0.5482 -1.7197
18785TIP3    H277771   6.283   2.219  16.148 -1.1636  1.3076 -1.3379
18786TIP3   OH277772   5.346   5.616   5.335  0.3803  0.2832  0.2340
18786TIP3    H177773   5.426   5.667   5.322  0.6629  0.4143  2.1719
18786TIP3    H277774   5.324   5.582   5.249  2.4459  0.3599 -0.3553
18787TIP3   OH277775   4.356   3.278  12.331 -0.2258 -0.4303  0.5205
18787TIP3    H177776   4.293   3.346  12.309  0.3925  0.2228  0.7233
18787TIP3    H277777   4.382   3.242  12.246 -2.5790 -2.3438  0.5071
18788TIP3   OH277778   5.152   3.720  15.178 -0.1632  0.7309 -0.4290
18788TIP3    H177779   5.234   3.715  15.129 -0.0907  0.3118 -0.2730
18788TIP3    H277780   5.099   3.649  15.143  0.4810 -0.5839  1.1478
18789TIP3   OH277781   6.058   4.637  11.608  0.0239  0.2400  0.4148
18789TIP3    H177782   6.044   4.577  11.535  0.3547  0.8329 -0.1478
18789TIP3    H277783   6.035   4.586  11.686 -0.7856 -0.2531 -0.1308
18790TIP3   OH277784   5.475   2.816  16.408  0.2222  0.0374 -0.1269
18790TIP3    H177785   5.402   2.761  16.378  0.5860  0.7198 -2.4696
18790TIP3    H277786   5.493   2.874  16.334  1.5637  1.5413  1.3056
18791TIP3   OH277787   2.849   6.024   4.696 -0.0948  0.7429 -0.0334
18791TIP3    H177788   2.758   5.996   4.704 -0.0637  0.2307 -1.2083
18791TIP3    H277789   2.892   5.987   4.773 -0.7766  0.5274  0.2506
18792TIP3   OH277790   2.930   6.526   6.342  0.5172 -0.2251  0.2715
18792TIP3    H177791   3.020   6.494   6.345  0.0793 -1.7038 -1.1072
18792TIP3    H277792   2.939   6.616   6.309  1.5145 -0.1544  0.6881
18793TIP3   OH277793   4.537   3.732  17.142  0.4374 -0.4520  0.5490
18793TIP3    H177794   4.443   3.722  17.161  0.2464 -1.4354 -0.7471
18793TIP3    H277795   4.567   3.797  17.205 -1.4155  0.9076  0.1312
18794TIP3   OH277796   6.695   5.262   0.937  0.5555  1.0217 -0.2148
18794TIP3    H177797   6.616   5.233   0.982 -0.1061  0.9975 -1.3413
18794TIP3    H277798   6.767   5.224   0.987 -0.0703  2.0087  1.5288
18795TIP3   OH277799   4.028   5.636  12.727 -0.2242 -0.1817 -0.0533
18795TIP3    H177800   4.081   5.556  12.734 -0.2424 -0.2738 -0.8939
18795TIP3    H277801   3.966   5.617  12.657  2.5825  2.1015 -3.4879
18796TIP3   OH277802   5.471   5.966   3.594 -0.0387 -0.6419  0.5417
18796TIP3    H177803   5.455   6.061   3.600  3.0194  0.2385 -2.1102
18796TIP3    H277804   5.547   5.952   3.650 -0.5616 -1.5765  1.0266
18797TIP3   OH277805   5.881   2.222   3.765 -0.3453  0.4375 -0.0630
18797TIP3    H177806   5.963   2.196   3.808  0.0322  2.4496  0.5398
18797TIP3    H277807   5.817   2.158   3.796  1.0393 -1.3645 -0.7958
18798TIP3   OH277808   5.713   6.275  12.035  0.1610 -0.4814  0.0424
18798TIP3    H177809   5.766   6.330  11.978  0.7692 -0.4238  0.6566
18798TIP3    H277810   5.623   6.290  12.006  0.2808  1.1120  0.4576
18799TIP3   OH277811   0.783   4.016   1.720  0.1063  0.1457  0.4254
18799TIP3    H177812   0.739   4.090   1.677 -1.9458 -0.6630  1.0126
18799TIP3    H277813   0.715   3.975   1.773  1.2317 -2.0419  0.3079
18800TIP3   OH277814   4.223   3.952  16.260 -0.6339  0.0932 -0.1183
18800TIP3    H177815   4.178   3.868  16.260 -0.9802  0.2740  0.3706
18800TIP3    H277816   4.270   3.955  16.177 -1.3626 -0.1857 -0.5417
18801TIP3   OH277817   6.073   4.949   6.269  0.4432 -0.6741  0.3337
18801TIP3    H177818   6.082   4.860   6.235 -0.0310 -0.1483 -1.2503
18801TIP3    H277819   6.123   4.948   6.351 -1.6407 -3.0885  1.7403
18802TIP3   OH277820   3.349   0.057  14.589 -0.1648  0.3439 -0.3089
18802TIP3    H177821   3.426   0.001  14.576 -0.7535 -0.1610 -1.8556
18802TIP3    H277822   3.384   0.146  14.593  0.4909  0.1366 -1.2193
18803TIP3   OH277823   6.356   6.281   5.580  0.2896 -0.3656 -0.0774
18803TIP3    H177824   6.439   6.237   5.596  0.5310  0.9602  3.2541
18803TIP3    H277825   6.376   6.349   5.516  2.5591  1.5652  2.4613
18804TIP3   OH277826   1.948   2.368  11.271  0.3153 -0.1714 -0.0237
18804TIP3    H177827   1.972   2.451  11.311  0.2907 -0.6205  0.9681
18804TIP3    H277828   1.885   2.391  11.203  1.4629  0.7593 -0.8136
18805TIP3   OH277829   0.969   6.726   5.454 -0.0290 -0.7519  0.7158
18805TIP3    H177830   0.930   6.671   5.386 -0.6344  1.1041 -0.5175
18805TIP3    H277831   0.908   6.721   5.527 -0.0380 -1.7447  0.6543
18806TIP3   OH277832   6.042   1.374  13.923 -0.0466 -0.1240  0.2572
18806TIP3    H177833   5.956   1.336  13.903  0.1217 -0.9731  1.0420
18806TIP3    H277834   6.040   1.388  14.018  0.6916 -0.2004  0.2929
18807TIP3   OH277835   3.013   2.849  16.211  0.3479 -0.3703  0.2937
18807TIP3    H177836   3.014   2.768  16.262  2.4176 -0.6208 -0.0787
18807TIP3    H277837   3.024   2.821  16.120 -3.6524  0.0360 -0.5166
18808TIP3   OH277838   5.025   4.210  15.207 -0.2299 -1.0901 -0.1294
18808TIP3    H177839   5.081   4.143  15.166 -1.1552 -2.4096  0.6662
18808TIP3    H277840   5.058   4.216  15.297  0.4103  0.2074 -0.4283
18809TIP3   OH277841   0.765   6.121   0.885  0.3575 -0.2595  0.0927
18809TIP3    H177842   0.695   6.184   0.899  0.0916 -0.5565  0.1095
18809TIP3    H277843   0.736   6.042   0.931 -0.5918 -1.3001 -2.1454
18810TIP3   OH277844   1.612   3.635   4.193  0.1719  0.0579  0.6226
18810TIP3    H177845   1.690   3.597   4.234  1.3213  1.9078  0.3236
18810TIP3    H277846   1.565   3.561   4.155  1.6442 -1.1490  1.0620
18811TIP3   OH277847   2.505   1.660  16.529 -0.7183 -0.1639  0.0408
18811TIP3    H177848   2.452   1.734  16.557 -0.7080 -0.1059 -0.0935
18811TIP3    H277849   2.495   1.595  16.599  0.8145  0.7084  1.1144
18812TIP3   OH277850   2.145   3.687  13.585 -0.4549 -1.0440 -0.3403
18812TIP3    H177851   2.226   3.738  13.587  0.3403 -2.2786  1.5598
18812TIP3    H277852   2.089   3.734  13.523  0.8076  1.1966  0.1094
18813TIP3   OH277853   1.156   0.703   6.462  0.3474  0.4947  0.2462
18813TIP3    H177854   1.216   0.647   6.512  0.5902  1.3984  1.0093
18813TIP3    H277855   1.153   0.664   6.375  0.2192 -0.9051  0.8532
18814TIP3   OH277856   2.004   0.666  16.876 -0.1342  0.0341  0.0479
18814TIP3    H177857   2.000   0.757  16.905 -1.2165  0.2653 -0.7856
18814TIP3    H277858   2.063   0.624  16.939 -1.0460  0.8921  1.5498
18815TIP3   OH277859   6.041   1.104   1.185  0.1129 -0.1936  1.3323
18815TIP3    H177860   6.077   1.129   1.270  1.3099  1.2115  0.4483
18815TIP3    H277861   6.058   1.179   1.128 -1.6323 -0.6648  0.1086
18816TIP3   OH277862   6.761   1.967   1.079  0.5882 -0.0821  0.3372
18816TIP3    H177863   6.808   2.029   1.135  0.3737  0.8908 -0.5396
18816TIP3    H277864   6.823   1.895   1.067  1.0793  0.2392  0.8703
18817TIP3   OH277865   0.719   0.949   3.091  0.1659  0.3837  0.0557
18817TIP3    H177866   0.763   1.028   3.059 -0.7575  0.0461 -2.1899
18817TIP3    H277867   0.723   0.887   3.018 -0.9966 -0.8832  1.0130
18818TIP3   OH277868   0.866   0.148   5.028  0.4054 -0.0953 -0.2107
18818TIP3    H177869   0.808   0.115   5.096 -0.7039 -1.4283 -1.6974
18818TIP3    H277870   0.953   0.120   5.055  0.2216  0.8636  1.4607
18819TIP3   OH277871   0.983   2.028   1.389 -0.2339  0.3191  0.1092
18819TIP3    H177872   0.913   2.052   1.450  1.2582  2.9526  0.9105
18819TIP3    H277873   1.020   1.948   1.426 -1.3149  0.1802  0.9381
18820TIP3   OH277874   3.913   6.215  11.254 -0.0079 -0.0832 -0.0282
18820TIP3    H177875   3.960   6.132  11.247 -2.8178 -2.0539  2.0713
18820TIP3    H277876   3.894   6.239  11.164  0.4213 -2.0465 -0.7038
18821TIP3   OH277877   6.181   5.901   4.673 -0.1561  0.6090 -0.3691
18821TIP3    H177878   6.147   5.989   4.687  0.1281  0.7734 -0.7016
18821TIP3    H277879   6.218   5.903   4.585  0.7816  0.4707  0.0033
18822TIP3   OH277880   4.103   2.631  11.681 -0.5408  0.0883  0.3474
18822TIP3    H177881   4.023   2.579  11.674 -0.9040  0.6474  0.2716
18822TIP3    H277882   4.072   2.718  11.709 -0.0218  0.4820 -0.2967
18823TIP3   OH277883   6.615   3.993  12.066  0.2662 -0.1039 -0.2110
18823TIP3    H177884   6.522   3.979  12.085  0.2973  0.7005  0.5886
18823TIP3    H277885   6.622   4.086  12.047  0.9128 -0.1484 -0.2195
18824TIP3   OH277886   6.368   5.536   5.251  0.5654  0.1916  0.1440
18824TIP3    H177887   6.402   5.574   5.332  0.8274  2.1061 -0.8120
18824TIP3    H277888   6.440   5.546   5.188 -1.0437  2.7549 -1.4635
18825TIP3   OH277889   0.813   6.137   2.985  0.3824 -0.0701  0.1703
18825TIP3    H177890   0.769   6.211   3.027  1.3158  2.0929 -2.3674
18825TIP3    H277891   0.882   6.112   3.046  0.3276  1.4726  0.8978
18826TIP3   OH277892   4.274   0.087  17.152  0.2855 -0.3226  0.3234
18826TIP3    H177893   4.302   0.044  17.233 -0.9850 -1.0596  0.3861
18826TIP3    H277894   4.236   0.017  17.100 -0.9264  0.5479  0.0124
18827TIP3   OH277895   4.884   3.463  11.852  0.0496 -0.2572 -0.6870
18827TIP3    H177896   4.969   3.420  11.841  0.0898 -0.0432 -1.2267
18827TIP3    H277897   4.820   3.398  11.824 -0.0336 -0.7171  0.4797
18828TIP3   OH277898   6.022   2.345   1.720 -0.0241  0.3454 -0.5260
18828TIP3    H177899   6.004   2.433   1.755  0.2650  1.8632 -3.8159
18828TIP3    H277900   6.110   2.325   1.752 -0.1471  1.1926  0.3852
18829TIP3   OH277901   0.869   0.276  13.694  0.4666  0.2960 -0.1692
18829TIP3    H177902   0.930   0.309  13.628 -1.0256  1.4394 -1.0473
18829TIP3    H277903   0.789   0.255  13.644 -0.3109  0.1189  1.1150
18830TIP3   OH277904   0.759   6.114   0.443  0.0370 -0.3529 -0.6093
18830TIP3    H177905   0.664   6.115   0.455  0.1261  0.8104  0.2146
18830TIP3    H277906   0.779   6.198   0.401  0.5053 -1.4882 -2.7888
18831TIP3   OH277907   6.402   0.229  12.660 -0.3831  0.5093 -0.3192
18831TIP3    H177908   6.421   0.176  12.582 -0.8154 -1.4194  0.8024
18831TIP3    H277909   6.473   0.208  12.721 -0.7788  0.9247  0.2978
18832TIP3   OH277910   5.957   1.743   4.642 -0.4558 -0.0979  0.7419
18832TIP3    H177911   5.919   1.804   4.706 -1.2944 -0.2852  0.4275
18832TIP3    H277912   5.976   1.665   4.694 -0.4891 -0.0006  0.9046
18833TIP3   OH277913   3.152   6.742  15.161  0.3015 -0.7728 -0.2089
18833TIP3    H177914   3.126   6.659  15.201  0.7084 -1.0098 -0.4246
18833TIP3    H277915   3.220   6.718  15.098  1.8711 -0.0798  1.1223
18834TIP3   OH277916   3.922   4.134  12.988  0.4829 -0.2348 -0.2997
18834TIP3    H177917   3.951   4.198  13.054  1.2279 -0.3206 -0.5368
18834TIP3    H277918   3.982   4.060  12.998  1.2862  0.1800 -1.7662
18835TIP3   OH277919   1.915   3.435  14.781 -1.0625 -0.0504  0.2316
18835TIP3    H177920   1.843   3.473  14.831  0.6049  1.2061  1.8078
18835TIP3    H277921   1.992   3.444  14.838  1.2819  2.6155 -2.9525
18836TIP3   OH277922   1.322   5.295  15.647 -0.2227  0.3758 -0.4471
18836TIP3    H177923   1.334   5.239  15.570 -1.0641 -0.1253 -0.2278
18836TIP3    H277924   1.285   5.237  15.713 -0.9654  1.1488 -0.1613
18837TIP3   OH277925   1.630   1.619   2.886  0.4187 -0.0455 -0.1225
18837TIP3    H177926   1.553   1.649   2.934 -0.3559 -1.4701 -0.4289
18837TIP3    H277927   1.704   1.638   2.944 -0.1132  1.5215  0.0893
18838TIP3   OH277928   3.987   4.602   4.399 -0.1080 -0.5562  0.0512
18838TIP3    H177929   3.965   4.580   4.309 -1.7363 -1.3229  0.6163
18838TIP3    H277930   4.041   4.529   4.429  0.2051 -0.4304 -0.1878
18839TIP3   OH277931   1.077   1.975  13.972  0.6985  0.2682 -0.0943
18839TIP3    H177932   1.013   2.029  14.019 -0.3248 -0.6160 -0.4343
18839TIP3    H277933   1.115   2.035  13.907 -1.6390  0.2342 -1.6064
18840TIP3   OH277934   6.514   0.593   3.921  0.0905 -0.2384 -0.2018
18840TIP3    H177935   6.462   0.615   3.844 -0.2682 -0.8016 -0.1237
18840TIP3    H277936   6.565   0.672   3.939 -1.0993  0.4964  0.0238
18841TIP3   OH277937   4.421   2.041  15.472  0.1490  0.3293 -0.6488
18841TIP3    H177938   4.407   1.975  15.541  0.3236 -0.6280 -1.5065
18841TIP3    H277939   4.334   2.071  15.450  0.0580  0.3164 -0.3208
18842TIP3   OH277940   0.520   0.140  15.236  0.4103  0.1679  0.4357
18842TIP3    H177941   0.455   0.156  15.168 -0.6253  1.1056  1.5853
18842TIP3    H277942   0.604   0.156  15.194 -0.1144 -0.6827 -0.9798
18843TIP3   OH277943   2.531   2.042   0.775 -0.3413 -0.0724  0.0101
18843TIP3    H177944   2.624   2.025   0.786 -0.5896 -1.8721 -0.4815
18843TIP3    H277945   2.524   2.084   0.689  0.1986  2.1807  0.9728
18844TIP3   OH277946   1.626   4.853   4.132  0.5210 -0.0971 -0.3905
18844TIP3    H177947   1.582   4.828   4.051 -0.0328 -0.1795 -0.0698
18844TIP3    H277948   1.680   4.928   4.109 -0.0260  0.1946 -0.7186
18845TIP3   OH277949   2.181   6.363  16.662  0.0676  0.0312 -0.1399
18845TIP3    H177950   2.130   6.401  16.734 -0.0783 -0.8270  0.2217
18845TIP3    H277951   2.266   6.406  16.668 -0.6275  1.5664 -0.8256
18846TIP3   OH277952   2.342   2.539  10.341  0.7112 -0.1003 -0.4428
18846TIP3    H177953   2.313   2.626  10.313 -1.2361 -0.2664  0.7858
18846TIP3    H277954   2.304   2.479  10.277  0.1518 -0.1730 -0.0518
18847TIP3   OH277955   4.477   2.144   5.898 -0.2463  0.1151  0.0817
18847TIP3    H177956   4.432   2.168   5.979 -0.7113  1.9804 -0.6712
18847TIP3    H277957   4.477   2.048   5.898 -1.9588  0.0670  1.3255
18848TIP3   OH277958   0.364   1.987  11.291 -0.1039 -0.3383 -0.7994
18848TIP3    H177959   0.404   2.069  11.266 -3.0374  1.2962 -0.6255
18848TIP3    H277960   0.338   1.946  11.209 -0.7445  0.0995 -0.8231
18849TIP3   OH277961   6.699   2.328  11.838  0.3600 -0.0281 -0.2586
18849TIP3    H177962   6.675   2.331  11.745 -2.0678 -0.3725  0.3005
18849TIP3    H277963   6.795   2.333  11.838  0.3715  2.7644 -2.6680
18850TIP3   OH277964   2.808   2.420   0.207  0.1401  0.1569 -1.0948
18850TIP3    H177965   2.788   2.327   0.196 -0.2263  0.1973 -0.8077
18850TIP3    H277966   2.888   2.434   0.158  1.0072 -0.6201  0.0561
18851TIP3   OH277967   5.313   2.393  12.877  0.1748 -0.0520  0.0837
18851TIP3    H177968   5.283   2.351  12.797 -1.3100 -0.7536  0.9713
18851TIP3    H277969   5.238   2.443  12.908  0.7596  0.2989  0.9785
18852TIP3   OH277970   0.354   2.736  11.699  0.3660 -0.5703  0.3133
18852TIP3    H177971   0.434   2.689  11.724 -0.2590 -1.5043  0.5941
18852TIP3    H277972   0.327   2.782  11.778 -0.5151 -1.9366  0.8372
18853TIP3   OH277973   2.566   4.545   5.077  0.4930 -0.0004  0.1752
18853TIP3    H177974   2.557   4.455   5.108  1.8037  0.5061  2.2482
18853TIP3    H277975   2.499   4.594   5.124  0.9652  0.3811  0.4700
18854TIP3   OH277976   0.770   0.106   5.305 -0.5058 -0.1083  0.4487
18854TIP3    H177977   0.718   0.185   5.321  0.5726  0.2845  2.3114
18854TIP3    H277978   0.829   0.100   5.380  0.4792 -1.8776 -0.3907
18855TIP3   OH277979   2.389   2.295  12.284 -0.6259  0.4952  0.1462
18855TIP3    H177980   2.306   2.318  12.326 -0.2291  1.9523  0.1939
18855TIP3    H277981   2.392   2.349  12.205 -0.7488 -1.2302 -1.0973
18856TIP3   OH277982   3.563   2.913   0.505 -0.4039  0.5525 -0.0406
18856TIP3    H177983   3.609   2.896   0.587 -0.6779 -0.8244 -0.1540
18856TIP3    H277984   3.470   2.912   0.528 -0.4829  0.1403 -0.3685
18857TIP3   OH277985   5.376   1.628  13.511  0.1910 -0.3717 -1.0306
18857TIP3    H177986   5.410   1.690  13.576 -0.2930 -0.6735 -0.4771
18857TIP3    H277987   5.450   1.610  13.453 -0.1094  2.1495 -2.3567
18858TIP3   OH277988   6.272   0.393   0.565 -0.0889 -0.1137  0.1199
18858TIP3    H177989   6.244   0.352   0.648 -0.0212 -0.1926  0.1048
18858TIP3    H277990   6.268   0.487   0.582  1.2559 -0.1335  0.6739
18859TIP3   OH277991   2.529   3.503   2.087  0.3467 -0.2676 -0.2033
18859TIP3    H177992   2.555   3.436   2.024 -0.6011  0.0118 -0.9189
18859TIP3    H277993   2.451   3.468   2.130  0.2501  0.0788 -0.0883
18860TIP3   OH277994   2.948   2.734   5.391  0.1260 -0.3955 -0.0305
18860TIP3    H177995   3.027   2.700   5.348 -0.6363 -0.7623 -1.1938
18860TIP3    H277996   2.884   2.664   5.381 -0.7587  0.4396 -0.3308
18861TIP3   OH277997   2.833   3.888  11.750  0.0156 -0.3282 -0.2558
18861TIP3    H177998   2.892   3.818  11.721  1.6898  0.4103  1.1918
18861TIP3    H277999   2.849   3.895  11.844 -1.7139  0.5584  0.0004
18862TIP3   OH278000   5.873   0.202   3.285  0.6269  0.1870 -0.3060
18862TIP3    H178001   5.865   0.228   3.376  0.0581  2.3829 -0.9128
18862TIP3    H278002   5.834   0.115   3.280  1.3062 -0.2745  1.6369
18863TIP3   OH278003   0.809   1.121   4.521 -0.9653  0.2353 -0.6029
18863TIP3    H178004   0.871   1.050   4.535 -1.3919  0.2022  1.3647
18863TIP3    H278005   0.862   1.193   4.489 -0.1703 -0.2920 -0.4918
18864TIP3   OH278006   0.375   3.461   1.625  0.0103  0.0867 -0.2931
18864TIP3    H178007   0.424   3.428   1.700  1.0357  0.6963 -0.6712
18864TIP3    H278008   0.362   3.554   1.645  0.6254  0.3398 -1.0378
18865TIP3   OH278009   5.801   3.869  12.109 -0.1617 -0.2248 -0.3772
18865TIP3    H178010   5.760   3.932  12.049 -1.5583 -1.0351 -0.3247
18865TIP3    H278011   5.892   3.896  12.113 -0.2003  0.3516 -2.2280
18866TIP3   OH278012   5.026   0.724  17.059 -0.6994 -0.0835 -0.3516
18866TIP3    H178013   5.045   0.802  17.111 -1.1538 -0.7465  0.8475
18866TIP3    H278014   4.975   0.668  17.118  0.3337 -1.6524 -0.8980
18867TIP3   OH278015   0.363   2.458   1.800  0.5818  0.0925 -0.7691
18867TIP3    H178016   0.432   2.491   1.858 -1.0323  0.0029  1.3071
18867TIP3    H278017   0.396   2.373   1.770  0.6755 -0.7915  1.6258
18868TIP3   OH278018   0.792   0.349   0.483 -0.1591  0.0314 -0.3867
18868TIP3    H178019   0.857   0.350   0.553 -0.0136 -2.6258 -0.4107
18868TIP3    H278020   0.793   0.439   0.449  2.0896  0.5606  0.8762
18869TIP3   OH278021   3.637   1.109   1.810  0.1627 -0.2296 -0.4452
18869TIP3    H178022   3.733   1.106   1.810  0.1407 -2.4993 -0.2131
18869TIP3    H278023   3.613   1.133   1.720  0.9518 -2.7562 -1.3898
18870TIP3   OH278024   3.786   3.545   0.071  0.5388 -0.3245 -0.6324
18870TIP3    H178025   3.796   3.542   0.166  0.8332  0.1085 -0.6510
18870TIP3    H278026   3.720   3.478   0.052 -0.8802  0.8291  0.0611
18871TIP3   OH278027   4.985   4.541   4.284  0.0168 -0.1225  0.6833
18871TIP3    H178028   5.013   4.629   4.256  1.2731 -0.0454  2.0395
18871TIP3    H278029   5.025   4.530   4.371  0.5051 -2.3388  0.2313
18872TIP3   OH278030   2.429   5.947  15.715  0.2880 -0.1622 -0.5624
18872TIP3    H178031   2.342   5.980  15.739  0.2114 -0.5492 -0.2932
18872TIP3    H278032   2.480   6.026  15.694  0.0719  0.1187 -0.0470
18873TIP3   OH278033   3.362   0.815   2.598 -0.8016  0.3040  0.5763
18873TIP3    H178034   3.418   0.807   2.676 -1.2936  1.5938  1.0850
18873TIP3    H278035   3.407   0.765   2.531 -0.1813 -0.5470  1.5914
18874TIP3   OH278036   2.337   4.063   4.462  0.8372 -0.1786 -0.0604
18874TIP3    H178037   2.415   4.118   4.453  0.6336 -0.0425 -1.0905
18874TIP3    H278038   2.268   4.124   4.488  0.8219 -0.1014 -0.2777
18875TIP3   OH278039   3.295   2.501  14.189  0.2761 -0.0548  0.0078
18875TIP3    H178040   3.280   2.468  14.278  2.4004 -2.5767 -0.4424
18875TIP3    H278041   3.221   2.559  14.173 -0.6791 -0.2146  3.0636
18876TIP3   OH278042   3.007   0.714  12.757 -0.4878 -0.3228  0.0076
18876TIP3    H178043   3.090   0.760  12.767 -1.0374  0.5791  0.6606
18876TIP3    H278044   2.943   0.784  12.743 -1.3688 -0.8768  1.1031
18877TIP3   OH278045   4.808   2.064   4.516  0.2619 -0.0577 -0.2973
18877TIP3    H178046   4.898   2.054   4.548 -0.0281 -1.2722  0.2042
18877TIP3    H278047   4.812   2.136   4.453  1.4997  0.1672  0.0158
18878TIP3   OH278048   5.678   0.462  14.771 -0.2253  0.2712  0.0998
18878TIP3    H178049   5.601   0.501  14.812 -0.2342 -0.5984  0.9770
18878TIP3    H278050   5.740   0.450  14.844 -0.1687 -1.1617 -0.1493
18879TIP3   OH278051   2.003   6.475   4.163 -0.2336 -0.7245 -0.0691
18879TIP3    H178052   1.943   6.428   4.221  0.2362  0.4842  1.4702
18879TIP3    H278053   2.087   6.431   4.173  0.1721  0.3082  1.2609
18880TIP3   OH278054   0.184   4.987  11.480  0.0771  0.4777 -0.2013
18880TIP3    H178055   0.253   4.961  11.542 -0.5450  0.4594  0.4920
18880TIP3    H278056   0.215   5.069  11.442 -0.0051  1.0277  0.8967
18881TIP3   OH278057   5.715   4.145   0.513  0.0140  0.2488  0.3731
18881TIP3    H178058   5.627   4.110   0.507 -0.4569  1.6363 -1.6289
18881TIP3    H278059   5.767   4.093   0.451  0.3454  0.2112  0.6747
18882TIP3   OH278060   3.935   0.634  11.008  0.2967  0.3046 -0.2029
18882TIP3    H178061   3.937   0.726  11.034 -2.1409  0.6650 -1.0593
18882TIP3    H278062   3.938   0.586  11.090  1.7605  1.0964  0.2486
18883TIP3   OH278063   1.834   2.024   5.138 -0.0918  1.1337 -0.9351
18883TIP3    H178064   1.769   2.080   5.182 -0.6882 -0.1188 -0.1570
18883TIP3    H278065   1.911   2.029   5.195 -0.5192  0.3110 -0.2719
18884TIP3   OH278066   6.390   6.309   5.224  0.5188 -0.4134  0.2928
18884TIP3    H178067   6.472   6.290   5.179 -0.1262  0.2343 -1.2371
18884TIP3    H278068   6.412   6.378   5.287  1.6061 -1.9078  1.6293
18885TIP3   OH278069   2.846   1.556   2.287 -0.8182  0.2229 -0.1155
18885TIP3    H178070   2.885   1.639   2.261 -0.9413  0.2864 -0.0994
18885TIP3    H278071   2.845   1.559   2.383 -0.5194  0.0610 -0.1054
18886TIP3   OH278072   6.609   0.784  16.533 -0.1148 -0.5214 -0.1166
18886TIP3    H178073   6.621   0.836  16.612 -0.6149  1.0842 -1.0530
18886TIP3    H278074   6.697   0.759  16.506  0.2359  0.8913 -0.3184
18887TIP3   OH278075   4.790   5.907  15.685 -0.0259 -0.3679  0.2308
18887TIP3    H178076   4.725   5.948  15.628 -0.0506  1.8892  1.7567
18887TIP3    H278077   4.874   5.933  15.650 -0.0376  0.5955  0.8738
18888TIP3   OH278078   6.331   2.284  11.763 -0.1946  0.1238  0.4159
18888TIP3    H178079   6.287   2.202  11.787  0.3362 -0.5808 -0.9065
18888TIP3    H278080   6.409   2.286  11.818 -0.7366  0.2874  1.2052
18889TIP3   OH278081   1.065   5.876  15.185  0.7164  0.2928 -0.3742
18889TIP3    H178082   1.131   5.818  15.223 -0.9057 -0.0644  2.0867
18889TIP3    H278083   1.058   5.948  15.247 -1.4848  0.1042 -0.3283
18890TIP3   OH278084   1.051   3.350  13.392  0.2032 -0.1005  0.7480
18890TIP3    H178085   1.102   3.402  13.330  1.4157 -0.6254  1.2697
18890TIP3    H278086   1.009   3.283  13.338  2.5449 -1.5741  0.5819
18891TIP3   OH278087   4.947   5.639   3.813 -0.3135 -0.1857 -0.0966
18891TIP3    H178088   4.881   5.702   3.784  0.3442  0.5538 -0.0389
18891TIP3    H278089   4.909   5.553   3.795 -2.5896  0.0990  2.6959
18892TIP3   OH278090   0.503   2.242  11.208 -0.0462  0.2101  0.6427
18892TIP3    H178091   0.485   2.335  11.191 -3.1384 -0.0543  1.9300
18892TIP3    H278092   0.512   2.203  11.121  0.9914  1.5936  0.0739
18893TIP3   OH278093   2.986   3.626   5.835  0.1022 -0.6699 -0.2001
18893TIP3    H178094   2.958   3.551   5.783 -0.1206 -1.2733  0.7648
18893TIP3    H278095   3.081   3.616   5.844  0.4306  0.4422 -2.0193
18894TIP3   OH278096   1.154   4.892  10.689 -0.6073 -0.4812  0.4779
18894TIP3    H178097   1.183   4.982  10.702  1.1785 -1.0199  0.3780
18894TIP3    H278098   1.070   4.888  10.735 -0.2004  0.9396  1.4123
18895TIP3   OH278099   5.263   5.777  15.679 -0.2130  0.4049 -0.0530
18895TIP3    H178100   5.222   5.754  15.596 -1.2316  1.2909  0.1848
18895TIP3    H278101   5.356   5.788  15.658  0.1981 -2.7800 -0.3799
18896TIP3   OH278102   1.942   2.297  13.497  0.1399 -0.2632 -0.1540
18896TIP3    H178103   1.924   2.329  13.585 -0.3221 -0.0862 -0.3090
18896TIP3    H278104   1.905   2.209  13.494 -1.5819  0.4477 -0.7620
18897TIP3   OH278105   6.087   1.043  12.890 -0.1803 -0.0437 -0.0656
18897TIP3    H178106   6.169   1.076  12.924 -0.1090  1.9610 -1.9879
18897TIP3    H278107   6.039   1.013  12.967  1.8270 -0.1255  1.2102
18898TIP3   OH278108   6.141   0.271  13.812 -0.0374 -1.1532 -1.0395
18898TIP3    H178109   6.096   0.243  13.732 -1.1332 -1.1465 -0.4440
18898TIP3    H278110   6.084   0.338  13.849  0.6684 -0.8557 -0.4632
18899TIP3   OH278111   2.958   6.512   3.200 -0.2920  0.9328 -0.4911
18899TIP3    H178112   2.893   6.578   3.175 -0.9551 -0.1628 -1.8147
18899TIP3    H278113   3.015   6.506   3.123  0.0344  0.3094 -0.2021
18900TIP3   OH278114   4.196   4.727   6.804 -0.9275  0.1478 -1.0150
18900TIP3    H178115   4.282   4.689   6.824 -0.8412  0.7787 -0.1232
18900TIP3    H278116   4.133   4.661   6.833 -0.7583  0.1345 -0.6694
18901TIP3   OH278117   6.720   3.088  15.610  0.0559 -0.3857 -0.1817
18901TIP3    H178118   6.688   3.150  15.676  0.8989 -0.6809  0.5312
18901TIP3    H278119   6.815   3.092  15.619  0.1520 -0.9529 -0.9099
18902TIP3   OH278120   2.420   5.309   1.724 -0.1141  0.1276  0.1046
18902TIP3    H178121   2.515   5.300   1.722 -0.1642 -0.3020 -0.5092
18902TIP3    H278122   2.388   5.223   1.752 -0.3236  0.2600  0.2735
18903TIP3   OH278123   3.711   3.826  15.993 -0.1070  0.4871  0.1294
18903TIP3    H178124   3.797   3.833  15.952 -0.5380 -0.6006 -1.0100
18903TIP3    H278125   3.649   3.826  15.920 -0.8796 -1.9898  0.6869
18904TIP3   OH278126   1.032   6.178  15.313 -0.4906 -0.0153 -0.0494
18904TIP3    H178127   0.978   6.249  15.279 -1.4750  0.1768  1.7934
18904TIP3    H278128   0.994   6.157  15.398  1.0469 -1.3580  0.3639
18905TIP3   OH278129   5.809   0.647   0.774 -0.6669  0.2530 -0.0746
18905TIP3    H178130   5.878   0.638   0.708 -0.3379 -0.3754  0.3494
18905TIP3    H278131   5.728   0.650   0.723 -0.3910  0.1266 -0.5309
18906TIP3   OH278132   2.240   3.446   2.532 -0.3078  0.1499 -0.7152
18906TIP3    H178133   2.273   3.415   2.617  0.1319  0.4407 -0.7730
18906TIP3    H278134   2.277   3.384   2.469  0.4693  0.6966 -0.8184
18907TIP3   OH278135   0.879   4.357  13.665  0.3109  0.3988 -0.9488
18907TIP3    H178136   0.818   4.379  13.736  1.1641  0.1627 -0.1238
18907TIP3    H278137   0.928   4.282  13.698  1.4957  0.9798 -1.3217
18908TIP3   OH278138   5.804   6.205   6.173 -0.2293 -0.7941 -0.3050
18908TIP3    H178139   5.835   6.246   6.254  0.5535  0.9327 -1.4416
18908TIP3    H278140   5.709   6.201   6.183 -0.3240  1.1338 -0.0489
18909TIP3   OH278141   1.124   5.237  13.154 -0.1035  0.0688  0.4682
18909TIP3    H178142   1.097   5.319  13.112  1.9189  1.3070  1.4088
18909TIP3    H278143   1.101   5.169  13.092 -1.1342  1.4137 -0.6990
18910TIP3   OH278144   3.025   6.559  11.753  0.1592 -0.2144 -0.2555
18910TIP3    H178145   2.968   6.529  11.823  0.0712 -0.3162 -0.3715
18910TIP3    H278146   3.063   6.641  11.786  2.7521 -1.9272  1.3492
18911TIP3   OH278147   2.092   4.188  13.109 -0.2695  0.0129 -0.0330
18911TIP3    H178148   2.147   4.144  13.043 -0.4035  1.9589 -1.5300
18911TIP3    H278149   2.006   4.148  13.098 -0.3464  0.4665 -1.2185
18912TIP3   OH278150   2.248   0.939  17.187 -0.5138 -0.0834 -0.7480
18912TIP3    H178151   2.330   0.890  17.184  0.8770  2.1057 -0.4556
18912TIP3    H278152   2.242   0.981  17.101 -0.8907  0.4410 -0.4691
18913TIP3   OH278153   5.752   0.948  13.310 -0.3184  0.1344  0.2341
18913TIP3    H178154   5.836   0.947  13.265  0.1915 -1.0853  1.1355
18913TIP3    H278155   5.741   1.039  13.338 -0.1490  0.6820 -1.3829
18914TIP3   OH278156   4.641   1.018   5.427  0.0818 -0.2011  0.1146
18914TIP3    H178157   4.623   0.942   5.483  0.4062 -0.2298  0.1875
18914TIP3    H278158   4.661   0.980   5.341  1.3467 -0.2896  0.4185
18915TIP3   OH278159   4.698   1.306   5.436  0.8920 -0.0056  0.2860
18915TIP3    H178160   4.694   1.224   5.485  0.0553 -0.5223 -0.5964
18915TIP3    H278161   4.665   1.372   5.496  1.3123 -0.3553  0.9146
18916TIP3   OH278162   6.346   4.688  13.129 -0.7115  0.2681 -0.2325
18916TIP3    H178163   6.301   4.675  13.212  1.2203  1.6695  1.0959
18916TIP3    H278164   6.354   4.783  13.121  0.2287  0.1152 -1.4093
18917TIP3   OH278165   3.829   1.466  11.892 -0.3999 -0.3119  0.7415
18917TIP3    H178166   3.870   1.492  11.810 -1.1424  0.2429  0.5344
18917TIP3    H278167   3.735   1.477  11.876 -0.5868 -0.7792  1.4671
18918TIP3   OH278168   4.395   5.134  14.793 -0.2781  0.6784 -0.3476
18918TIP3    H178169   4.348   5.217  14.800 -0.5604  0.5345 -0.5240
18918TIP3    H278170   4.380   5.106  14.703 -0.5469  0.2226 -0.1627
18919TIP3   OH278171   6.250   0.388   4.989  0.0503  0.1523  0.0738
18919TIP3    H178172   6.300   0.469   5.001 -1.2363  0.8155  1.2457
18919TIP3    H278173   6.212   0.370   5.075  0.7957 -2.0706  0.0122
18920TIP3   OH278174   0.425   5.261  11.248  0.0130  0.2516  0.4782
18920TIP3    H178175   0.338   5.282  11.282 -0.5182 -2.1763  0.7899
18920TIP3    H278176   0.447   5.177  11.288  1.5163 -0.3115 -1.3776
18921TIP3   OH278177   6.202   5.913  11.010 -0.2002  0.4643  0.4905
18921TIP3    H178178   6.153   5.838  10.976 -2.2437  1.3046  1.4136
18921TIP3    H278179   6.224   5.965  10.932 -0.8921  0.1175  0.0565
18922TIP3   OH278180   6.328   5.114  12.348  0.6744 -0.4209  0.5394
18922TIP3    H178181   6.347   5.108  12.442  0.4749  0.0569  0.6123
18922TIP3    H278182   6.374   5.039  12.310  0.3901 -0.8750  1.0739
18923TIP3   OH278183   2.378   0.888   3.134 -0.0110  0.2230  0.2271
18923TIP3    H178184   2.323   0.966   3.129 -1.4555 -0.8210 -1.5038
18923TIP3    H278185   2.384   0.869   3.228 -2.8059  0.3095  0.5227
18924TIP3   OH278186   0.951   6.476   4.466  0.2544 -0.4510  0.0212
18924TIP3    H178187   0.907   6.542   4.519 -0.2966 -0.5560 -0.2952
18924TIP3    H278188   0.886   6.451   4.400  1.4862  0.9798 -1.8353
18925TIP3   OH278189   2.294   1.651  12.504  0.0609  0.3694  0.5030
18925TIP3    H178190   2.267   1.626  12.416  2.0830 -0.4997  0.0612
18925TIP3    H278191   2.329   1.740  12.493 -0.0757  0.4242  0.5126
18926TIP3   OH278192   3.998   3.511  14.490  0.4628  0.0189  0.8432
18926TIP3    H178193   3.902   3.507  14.493  0.4220  0.3328  0.2672
18926TIP3    H278194   4.027   3.454  14.561 -0.1520 -0.0733  1.0289
18927TIP3   OH278195   0.916   1.850  12.046 -0.0064 -0.1236 -0.3082
18927TIP3    H178196   1.009   1.857  12.068 -0.2017  1.2041  0.2020
18927TIP3    H278197   0.915   1.853  11.950  0.3869  1.8018 -0.2936
18928TIP3   OH278198   6.256   6.419   5.875 -0.1545 -0.2504  0.5852
18928TIP3    H178199   6.276   6.336   5.831 -0.4661 -0.8597  1.5559
18928TIP3    H278200   6.164   6.435   5.856  0.2902  0.7228 -0.9301
18929TIP3   OH278201   2.395   4.865  13.752  0.7756 -0.0300 -0.0042
18929TIP3    H178202   2.311   4.896  13.719 -0.3624 -2.3681  0.4796
18929TIP3    H278203   2.409   4.781  13.708  2.4997 -0.0440  0.4863
18930TIP3   OH278204   0.257   2.634  15.145  0.3041  0.0460  0.0821
18930TIP3    H178205   0.238   2.657  15.055 -0.7343  0.8442  0.4846
18930TIP3    H278206   0.329   2.571  15.139 -0.6212 -0.9326 -1.3689
18931TIP3   OH278207   2.317   4.173   0.352  0.0572 -0.0269 -0.1889
18931TIP3    H178208   2.255   4.149   0.420 -0.6565 -0.8279 -1.1067
18931TIP3    H278209   2.373   4.095   0.342  0.5973  0.3342 -0.0580
18932TIP3   OH278210   5.718   3.087   6.720 -0.2658  0.3263 -0.7419
18932TIP3    H178211   5.726   2.992   6.734  0.6100  0.4614 -0.2333
18932TIP3    H278212   5.805   3.121   6.738 -0.5872  1.2419 -0.8663
18933TIP3   OH278213   3.595   1.793   5.002  0.4725 -0.0501 -0.0210
18933TIP3    H178214   3.660   1.723   5.007  0.8421  0.1414 -1.6391
18933TIP3    H278215   3.642   1.866   4.961 -0.2764  0.6883  0.4209
18934TIP3   OH278216   3.738   5.374   5.709 -0.0021  0.2711  0.0902
18934TIP3    H178217   3.656   5.421   5.694 -0.1506 -0.3453 -1.1154
18934TIP3    H278218   3.719   5.314   5.781 -0.9116 -0.5372 -0.7957
18935TIP3   OH278219   5.031   0.249   3.647 -0.1848 -0.0862  0.4419
18935TIP3    H178220   5.001   0.167   3.608 -2.3773  1.5458 -1.6065
18935TIP3    H278221   5.045   0.308   3.572 -1.4174  2.2477  1.9262
18936TIP3   OH278222   2.942   0.787   2.694  0.3119  0.0686  0.3257
18936TIP3    H178223   2.934   0.880   2.715 -0.2262  0.7393 -2.4022
18936TIP3    H278224   2.980   0.786   2.606 -1.6622 -2.2154 -0.6052
18937TIP3   OH278225   2.669   3.859   5.283 -0.2304 -0.0788  0.0455
18937TIP3    H178226   2.604   3.908   5.232  0.5411  2.9968  1.8081
18937TIP3    H278227   2.749   3.863   5.230 -0.1135  0.7791  0.2824
18938TIP3   OH278228   0.609   3.505   0.817 -0.1201 -0.5528  0.3156
18938TIP3    H178229   0.539   3.464   0.868  1.3582 -2.2158  1.0827
18938TIP3    H278230   0.689   3.491   0.867  0.7148  2.2071 -0.0207
18939TIP3   OH278231   5.449   3.115   2.147  0.2552 -0.0843  0.5982
18939TIP3    H178232   5.415   3.075   2.068 -0.1220  0.8840  0.2580
18939TIP3    H278233   5.544   3.105   2.140  0.2807  0.7276 -0.3900
18940TIP3   OH278234   1.451   1.034   5.851 -0.4591 -0.1472  0.1457
18940TIP3    H178235   1.530   0.993   5.817 -0.1698 -0.2539  0.9282
18940TIP3    H278236   1.391   1.035   5.777 -0.0578 -0.9231 -0.2001
18941TIP3   OH278237   4.024   1.182  14.188 -0.2138 -0.1542  0.1024
18941TIP3    H178238   4.041   1.268  14.226  0.9286 -0.8879  1.3305
18941TIP3    H278239   4.034   1.121  14.261 -2.0376 -1.2552 -0.5158
18942TIP3   OH278240   4.865   5.704  15.847 -0.0488 -0.3673  0.1811
18942TIP3    H178241   4.891   5.617  15.817 -0.8020 -1.2108  1.8259
18942TIP3    H278242   4.829   5.747  15.769 -1.0776 -2.1004 -0.3504
18943TIP3   OH278243   0.360   1.078  13.791 -0.2783  0.4322  0.1402
18943TIP3    H178244   0.322   1.166  13.801 -1.4339 -0.1212  0.7747
18943TIP3    H278245   0.313   1.024  13.854 -0.4525 -0.9231 -1.1038
18944TIP3   OH278246   6.221   4.134  12.634 -0.2263  0.0512  0.2885
18944TIP3    H178247   6.139   4.180  12.619  0.2159  0.7472 -0.0108
18944TIP3    H278248   6.245   4.157  12.724 -1.0614 -1.2824  0.8911
18945TIP3   OH278249   4.119   3.209   3.963  0.0779  0.2556  0.3263
18945TIP3    H178250   4.059   3.137   3.942 -0.1442  1.2586 -2.9144
18945TIP3    H278251   4.203   3.165   3.980  0.1136 -0.8240 -2.2518
18946TIP3   OH278252   3.439   5.161   0.251  0.0303 -0.3957  0.3104
18946TIP3    H178253   3.378   5.088   0.254  0.0291 -0.5660 -2.1604
18946TIP3    H278254   3.452   5.179   0.158  2.4299  0.7459  0.7677
18947TIP3   OH278255   5.827   2.993   1.801 -0.1016 -0.0047 -0.4384
18947TIP3    H178256   5.796   2.981   1.891  1.0223 -1.5605 -0.2263
18947TIP3    H278257   5.774   2.933   1.749  0.9151 -0.9537 -0.4163
18948TIP3   OH278258   4.375   3.489  12.764 -0.0347 -0.6343 -0.0114
18948TIP3    H178259   4.323   3.420  12.806 -1.2123 -0.8111 -1.6612
18948TIP3    H278260   4.455   3.494  12.816  0.5392 -3.9090 -0.3375
18949TIP3   OH278261   2.371   2.618   0.946 -0.2801  0.5902  0.2460
18949TIP3    H178262   2.429   2.555   0.903 -0.4379  0.9672 -0.5526
18949TIP3    H278263   2.368   2.591   1.037  0.9522  0.4069  0.2474
18950TIP3   OH278264   4.426   0.618  17.183  0.4823  0.1992 -0.5397
18950TIP3    H178265   4.353   0.592  17.239  0.5576  1.2041  0.0461
18950TIP3    H278266   4.469   0.536  17.159  1.2093 -0.2026  1.9259
18951TIP3   OH278267   3.465   0.439   1.152  0.0120  0.4437 -0.4557
18951TIP3    H178268   3.407   0.366   1.133 -0.1252 -0.1507  2.0362
18951TIP3    H278269   3.507   0.458   1.068 -1.1259 -1.4278 -1.5078
18952TIP3   OH278270   4.674   4.433  11.193  0.3685 -0.2518  0.3857
18952TIP3    H178271   4.665   4.489  11.116  1.0854 -0.4517  0.1474
18952TIP3    H278272   4.685   4.494  11.266  0.5352 -0.0764  0.2132
18953TIP3   OH278273   2.426   2.418  15.452  0.1242 -0.0337 -0.8885
18953TIP3    H178274   2.374   2.466  15.516  0.0988 -2.1351  0.7735
18953TIP3    H278275   2.517   2.430  15.480  0.0618 -1.6956  0.1812
18954TIP3   OH278276   2.382   4.927   4.828  0.3905  0.0095 -0.4964
18954TIP3    H178277   2.408   5.001   4.774  1.0145 -0.3037 -0.6384
18954TIP3    H278278   2.363   4.857   4.766 -1.0615  0.2886 -0.4110
18955TIP3   OH278279   6.024   4.056  13.842 -0.3594  0.1101 -0.5036
18955TIP3    H178280   5.957   4.068  13.775 -1.3299 -0.2669  0.3604
18955TIP3    H278281   5.995   3.978  13.891 -0.2724  0.9876  1.0089
18956TIP3   OH278282   1.438   1.667  14.687 -0.7235 -0.1516  0.1344
18956TIP3    H178283   1.419   1.724  14.761  0.8435  1.2354 -0.4714
18956TIP3    H278284   1.475   1.588  14.725  1.6166  1.1974  0.8141
18957TIP3   OH278285   2.556   4.385  16.102  0.5684 -0.3090 -0.0963
18957TIP3    H178286   2.601   4.466  16.076 -0.7300  0.6035  0.3600
18957TIP3    H278287   2.487   4.374  16.037  0.1364 -0.5032  0.3845
18958TIP3   OH278288   0.085   5.404  10.634 -0.0601 -0.1605  0.0126
18958TIP3    H178289   0.101   5.329  10.576  3.3311  1.5425 -1.5109
18958TIP3    H278290   0.077   5.479  10.574  0.5680  1.2428  1.6118
18959TIP3   OH278291   1.254   2.444  16.673 -0.0680  0.2028  0.1732
18959TIP3    H178292   1.295   2.421  16.590  1.0554 -1.7101  1.1954
18959TIP3    H278293   1.186   2.377  16.685 -0.6574  0.8495  0.5009
18960TIP3   OH278294   3.668   4.718   1.380  0.0866  0.2851  0.7321
18960TIP3    H178295   3.626   4.753   1.459 -2.2312 -0.8102  0.0914
18960TIP3    H278296   3.698   4.631   1.406 -1.1756 -0.3036  0.3329
18961TIP3   OH278297   5.868   2.457   2.637  0.6637 -0.1538 -0.0007
18961TIP3    H178298   5.877   2.478   2.544  2.1455 -0.0223  0.1415
18961TIP3    H278299   5.910   2.372   2.647 -1.5944 -1.3307  0.1721
18962TIP3   OH278300   5.583   5.573  15.784  0.0987 -0.9071  0.0073
18962TIP3    H178301   5.557   5.635  15.716 -1.4107 -1.0002  0.4548
18962TIP3    H278302   5.588   5.625  15.864  0.4290 -1.0629  0.0886
18963TIP3   OH278303   0.321   4.681  15.312  0.5264  0.5477  0.0985
18963TIP3    H178304   0.416   4.683  15.313  0.5328  0.1411  0.2905
18963TIP3    H278305   0.294   4.754  15.367  0.7232  0.8558 -0.2083
18964TIP3   OH278306   2.414   0.232   5.162 -0.1939 -0.9408 -0.1852
18964TIP3    H178307   2.348   0.260   5.226 -0.2109 -0.9617 -0.1936
18964TIP3    H278308   2.482   0.189   5.215 -0.4316 -1.3751 -0.2245
18965TIP3   OH278309   1.272   5.121   4.269  0.0560 -0.3355  0.4393
18965TIP3    H178310   1.262   5.046   4.328  0.8697 -1.1804 -0.4713
18965TIP3    H278311   1.212   5.187   4.304 -1.2256 -1.6644  0.8342
18966TIP3   OH278312   1.865   0.973   2.722 -0.0377 -0.2123 -0.0091
18966TIP3    H178313   1.906   1.007   2.802 -0.7690 -2.7847  1.5584
18966TIP3    H278314   1.792   1.033   2.706  0.5623  0.7779  0.7811
18967TIP3   OH278315   0.089   6.338   2.156  0.0565  0.1031  0.0592
18967TIP3    H178316   0.006   6.320   2.201 -0.1263  0.6409 -0.0496
18967TIP3    H278317   0.092   6.274   2.085  0.0883 -0.3979  0.5042
18968TIP3   OH278318   3.334   5.389  14.900 -0.0947 -0.0395 -0.2968
18968TIP3    H178319   3.272   5.443  14.948  0.2865  0.2567 -0.1370
18968TIP3    H278320   3.286   5.308  14.881 -0.5069  0.1644 -0.1247
18969TIP3   OH278321   5.696   0.763   0.207  0.0609 -0.5928  0.0715
18969TIP3    H178322   5.617   0.762   0.262 -0.6436  0.0548 -0.9039
18969TIP3    H278323   5.664   0.752   0.118  1.0826 -0.3629 -0.3410
18970TIP3   OH278324   3.622   4.826   2.985 -0.3221 -0.3504 -0.4367
18970TIP3    H178325   3.710   4.818   2.950 -1.2407  1.1599 -3.4374
18970TIP3    H278326   3.577   4.747   2.957  0.2491 -1.6685  2.0556
18971TIP3   OH278327   6.740   5.878   2.221 -0.3182 -0.2405 -0.1241
18971TIP3    H178328   6.778   5.870   2.133  0.5963  0.7258  0.1681
18971TIP3    H278329   6.658   5.925   2.207 -0.4104 -0.5023 -0.5062
18972TIP3   OH278330   3.787   4.641   3.849 -0.2035 -0.1968 -0.4157
18972TIP3    H178331   3.751   4.567   3.799  0.0894  0.1686 -1.1896
18972TIP3    H278332   3.872   4.658   3.807 -0.0365  0.2362  0.0977
18973TIP3   OH278333   0.082   1.738  15.790  0.1357  0.3658  0.1428
18973TIP3    H178334   0.031   1.660  15.811 -0.3914  0.4595 -0.7822
18973TIP3    H278335   0.027   1.789  15.730  0.9760  0.8564 -0.2341
18974TIP3   OH278336   3.656   4.008  16.827  0.1217  0.0509  0.1826
18974TIP3    H178337   3.588   3.940  16.829  0.3686 -0.2155 -0.2263
18974TIP3    H278338   3.656   4.045  16.915 -0.4110 -0.0896  0.2443
18975TIP3   OH278339   3.104   3.781  14.431 -0.1593 -0.3396 -0.2039
18975TIP3    H178340   3.171   3.715  14.413  1.7629  0.7646  2.2225
18975TIP3    H278341   3.069   3.758  14.516 -0.7673  0.7605 -0.1308
18976TIP3   OH278342   3.590   0.591  14.706  0.0580  0.0265 -0.3188
18976TIP3    H178343   3.639   0.659  14.753 -0.8695  1.4195 -1.2803
18976TIP3    H278344   3.499   0.604  14.735 -0.1508 -0.6982 -0.6544
18977TIP3   OH278345   5.481   3.975   0.947  0.1041  0.5281 -0.4065
18977TIP3    H178346   5.546   3.998   0.880  1.9476 -2.7647  0.0321
18977TIP3    H278347   5.426   3.909   0.904 -0.1474  0.0916  0.5694
18978TIP3   OH278348   5.354   6.281  16.058 -0.5310  0.1516  0.7438
18978TIP3    H178349   5.362   6.352  15.993 -1.7458 -0.2488  0.1240
18978TIP3    H278350   5.279   6.305  16.111 -0.8653 -0.6001  0.6209
18979TIP3   OH278351   4.980   3.139   3.261  0.0306 -0.0854  0.0755
18979TIP3    H178352   5.042   3.157   3.331  0.5497 -0.6027 -0.2369
18979TIP3    H278353   5.033   3.139   3.181 -0.4004 -0.3679 -0.2171
18980TIP3   OH278354   2.455   2.906   1.874  0.6119  0.0589  0.7545
18980TIP3    H178355   2.461   2.810   1.875 -0.1427 -0.0066  0.0036
18980TIP3    H278356   2.386   2.926   1.938 -0.2552  0.0007 -0.1437
18981TIP3   OH278357   2.307   5.817  15.328  0.0438 -0.2017 -0.2079
18981TIP3    H178358   2.290   5.753  15.397 -0.6775  0.6672  0.4451
18981TIP3    H278359   2.270   5.778  15.249  2.2491 -1.9199 -0.5043
18982TIP3   OH278360   0.586   0.303   1.262 -0.3026  0.1527 -0.0617
18982TIP3    H178361   0.671   0.299   1.218  0.6683  2.6587  1.4154
18982TIP3    H278362   0.525   0.264   1.199  1.8934 -1.7648 -1.1419
18983TIP3   OH278363   5.792   4.112   2.858  0.3191 -0.0366  0.1425
18983TIP3    H178364   5.793   4.132   2.764 -0.0556 -0.6975 -0.0094
18983TIP3    H278365   5.751   4.188   2.898  0.6536  0.3346 -0.2076
18984TIP3   OH278366   1.494   1.613  11.892  0.5471 -0.3609 -0.1445
18984TIP3    H178367   1.521   1.684  11.951  0.4708  1.3110 -1.9891
18984TIP3    H278368   1.470   1.541  11.950  0.9755  0.9905  1.8208
18985TIP3   OH278369   1.446   0.135   3.578 -0.1403  0.3762 -0.4124
18985TIP3    H178370   1.400   0.072   3.523 -0.8345  0.0502  0.5328
18985TIP3    H278371   1.510   0.083   3.626  0.7890  0.7298 -1.2217
18986TIP3   OH278372   2.542   4.395   6.046  0.0274  0.2557  0.6591
18986TIP3    H178373   2.603   4.354   6.109 -0.7209 -1.0570  0.5756
18986TIP3    H278374   2.583   4.380   5.961 -0.4733 -0.8355  0.5815
18987TIP3   OH278375   1.150   0.745  13.974  0.1990 -0.3315 -0.8283
18987TIP3    H178376   1.185   0.827  14.010  0.2147 -0.3615 -0.7743
18987TIP3    H278377   1.172   0.748  13.881  3.2428 -1.7860 -0.2773
18988TIP3   OH278378   5.568   3.144   0.522 -0.1849  0.6441  0.1758
18988TIP3    H178379   5.563   3.124   0.615 -0.8707  0.8284  0.1802
18988TIP3    H278380   5.562   3.060   0.478  1.4021  0.4246  0.3263
18989TIP3   OH278381   5.559   3.253  13.274  0.3957  0.2827  0.3135
18989TIP3    H178382   5.631   3.301  13.315  0.2108 -1.2317  2.6348
18989TIP3    H278383   5.491   3.319  13.261  0.8382  1.0384  1.6300
18990TIP3   OH278384   1.592   2.618   3.322 -0.2410 -0.2622 -0.0733
18990TIP3    H178385   1.651   2.582   3.388 -0.7456 -0.1838  0.4267
18990TIP3    H278386   1.650   2.655   3.255  0.2729 -0.5191  0.2263
18991TIP3   OH278387   3.268   4.091   0.827 -0.0161 -0.2949 -0.1850
18991TIP3    H178388   3.361   4.111   0.836 -0.1570  0.0308  0.6099
18991TIP3    H278389   3.265   4.015   0.770  0.8946 -1.8993  1.7946
18992TIP3   OH278390   6.017   5.729  13.386  0.2130 -0.0051  0.3482
18992TIP3    H178391   6.054   5.657  13.336 -0.5193 -0.3267  0.2520
18992TIP3    H278392   6.088   5.793  13.394  0.6277 -0.3902 -0.2400
18993TIP3   OH278393   4.081   2.930  14.454  0.0689 -0.3910  0.0174
18993TIP3    H178394   4.128   3.014  14.454 -1.0706  0.2652  0.0235
18993TIP3    H278395   4.139   2.870  14.502  0.2290  0.7929  1.3904
18994TIP3   OH278396   6.602   2.283   1.713  0.0342  0.3590 -0.6866
18994TIP3    H178397   6.667   2.349   1.737 -0.7667  0.7776  0.3916
18994TIP3    H278398   6.579   2.304   1.622  0.1771  1.2357 -0.5229
18995TIP3   OH278399   4.820   3.711  14.060  0.0618 -0.0766 -0.1320
18995TIP3    H178400   4.771   3.758  14.127  0.9408  0.4184  0.1739
18995TIP3    H278401   4.907   3.700  14.097  0.4113 -0.2405 -0.9837
18996TIP3   OH278402   0.557   1.227   4.527 -0.6754  0.3528 -0.0174
18996TIP3    H178403   0.517   1.147   4.561  1.1491 -0.1794  1.0335
18996TIP3    H278404   0.649   1.204   4.514 -0.1376  2.2373  0.1623
18997TIP3   OH278405   5.438   4.033   3.112 -0.4339 -0.1285  0.0010
18997TIP3    H178406   5.492   4.084   3.173 -3.0960  2.6645  0.2631
18997TIP3    H278407   5.350   4.035   3.151 -1.3083 -2.3049 -1.6593
18998TIP3   OH278408   2.715   0.381  13.044  0.2399  0.8202  0.2708
18998TIP3    H178409   2.709   0.302  13.097 -2.1593 -0.3837 -1.6198
18998TIP3    H278410   2.647   0.439  13.078  0.2357  0.9861 -0.0127
18999TIP3   OH278411   1.052   6.392  17.057  0.3967 -0.3183  0.6043
18999TIP3    H178412   1.024   6.460  16.996  2.1175 -0.6036 -0.5609
18999TIP3    H278413   1.147   6.388  17.047  0.7905 -0.2536  3.4693
19000TIP3   OH278414   2.908   5.707  11.982  0.1953  0.0329 -0.0574
19000TIP3    H178415   2.838   5.663  12.029  0.6033 -0.1616  0.3788
19000TIP3    H278416   2.982   5.647  11.988  0.8904  0.9319  0.9102
19001TIP3   OH278417   1.048   2.305  12.347  0.4794 -0.0100 -0.0561
19001TIP3    H178418   1.023   2.389  12.307 -0.1998  1.0008  2.3270
19001TIP3    H278419   1.144   2.305  12.344  0.5025  1.0747  0.2937
19002TIP3   OH278420   2.991   1.245  14.501  0.8689  0.4535  0.1964
19002TIP3    H178421   2.990   1.185  14.576  0.2042 -0.7384 -0.7243
19002TIP3    H278422   3.079   1.236  14.463  0.2483 -1.3022 -0.9458
19003TIP3   OH278423   0.403   3.570   0.065 -0.8397  0.1619 -0.2330
19003TIP3    H178424   0.477   3.510   0.057  0.0929  1.3325 -0.7468
19003TIP3    H278425   0.341   3.525   0.122 -0.6579 -1.7451 -1.4603
19004TIP3   OH278426   6.665   1.568   2.373  0.0002  0.0631  0.1029
19004TIP3    H178427   6.691   1.486   2.416 -1.0218  0.3284  1.2666
19004TIP3    H278428   6.743   1.596   2.325  0.1471 -1.9627 -0.9341
19005TIP3   OH278429   2.343   1.287   2.913 -0.5530 -0.4266  0.9114
19005TIP3    H178430   2.337   1.197   2.880  1.0599  0.1040 -0.9834
19005TIP3    H278431   2.415   1.285   2.975 -0.9877 -0.5631  1.4253
19006TIP3   OH278432   0.574   3.518   3.624 -0.1146  0.1306  0.0888
19006TIP3    H178433   0.522   3.452   3.578 -0.7566 -0.8749  2.1518
19006TIP3    H278434   0.511   3.583   3.653 -0.0020 -0.2260  1.1570
19007TIP3   OH278435   5.190   1.854   1.059 -0.1567  0.3394 -0.4385
19007TIP3    H178436   5.110   1.841   1.009 -1.7101 -0.9268  2.1480
19007TIP3    H278437   5.164   1.909   1.133  1.3447 -0.0417  0.4201
19008TIP3   OH278438   2.812   3.509  17.144 -0.5727 -1.1093 -0.2055
19008TIP3    H178439   2.888   3.452  17.144 -0.3724 -0.8742  1.0394
19008TIP3    H278440   2.745   3.462  17.193 -1.1160 -1.1424 -0.9444
19009TIP3   OH278441   1.455   2.379   5.742 -0.4205  0.1462  0.3033
19009TIP3    H178442   1.400   2.313   5.699 -0.8146  1.4593 -1.3414
19009TIP3    H278443   1.393   2.434   5.790 -0.4763  1.0286 -0.7315
19010TIP3   OH278444   3.187   2.285   2.637 -0.3290 -0.1379  0.7092
19010TIP3    H178445   3.097   2.255   2.651 -0.8453  1.0308  0.0668
19010TIP3    H278446   3.198   2.286   2.542  1.9164 -4.5231  0.6541
19011TIP3   OH278447   0.074   1.835  11.766 -0.2436 -0.4974  0.3552
19011TIP3    H178448   0.146   1.893  11.742 -0.7286  0.6090  1.4374
19011TIP3    H278449   0.094   1.808  11.856 -0.8765 -0.6537  0.4535
19012TIP3   OH278450   5.001   5.420  12.435  0.5247 -0.5822  0.0510
19012TIP3    H178451   4.980   5.437  12.344  0.4657  0.7847  0.3095
19012TIP3    H278452   5.082   5.468  12.452  2.3019 -3.2737 -0.0679
19013TIP3   OH278453   5.125   1.201   3.202 -0.6019 -0.0928  0.5085
19013TIP3    H178454   5.185   1.131   3.175 -0.1961  0.6182 -0.5031
19013TIP3    H278455   5.042   1.157   3.218  0.0641 -1.0398  1.5229
19014TIP3   OH278456   3.366   1.729  10.947 -0.3480  0.4374 -0.8286
19014TIP3    H178457   3.279   1.761  10.925 -0.1349  1.6766  0.0734
19014TIP3    H278458   3.395   1.784  11.019  0.3300 -1.3522  0.3298
19015TIP3   OH278459   3.237   1.615   0.014  0.7162 -0.0891  0.1141
19015TIP3    H178460   3.243   1.551   0.085  0.4158 -1.3707 -0.9959
19015TIP3    H278461   3.158   1.591  -0.034  1.6454 -0.0711 -1.4699
19016TIP3   OH278462   2.604   3.411  11.692 -0.3455  0.4772  0.3764
19016TIP3    H178463   2.553   3.492  11.695  0.1892  0.8387 -0.2138
19016TIP3    H278464   2.656   3.418  11.613  0.3859 -0.0333  0.8013
19017TIP3   OH278465   4.349   3.010   4.306  0.0259 -0.1709  0.3486
19017TIP3    H178466   4.388   3.087   4.264 -1.0048  0.8958  1.2586
19017TIP3    H278467   4.421   2.969   4.353  0.8820 -0.5561 -1.2291
19018TIP3   OH278468   2.533   3.229  16.792  0.3452  0.1216 -0.2438
19018TIP3    H178469   2.463   3.191  16.845  1.2930  0.8028  1.5911
19018TIP3    H278470   2.593   3.156  16.777  0.6132  0.1610  0.5889
19019TIP3   OH278471   4.815   2.419   4.600 -0.0234 -0.3185  0.1499
19019TIP3    H178472   4.891   2.363   4.614  0.6074  0.5296  0.2214
19019TIP3    H278473   4.757   2.369   4.542  1.1385 -0.4953 -0.8873
19020TIP3   OH278474   1.583   2.895   3.691 -0.3469  0.5483 -0.4697
19020TIP3    H178475   1.549   2.864   3.607 -0.1971  0.6470 -0.5694
19020TIP3    H278476   1.538   2.843   3.757  0.5062 -0.4807 -0.6637
19021TIP3   OH278477   2.025   6.539   6.115  0.0130 -0.0517  0.0244
19021TIP3    H178478   1.952   6.483   6.090  1.8056 -2.6691  0.2713
19021TIP3    H278479   2.053   6.505   6.200  1.7722  0.6126 -0.2544
19022TIP3   OH278480   6.268   4.994   2.506  0.6630 -0.1148  0.1481
19022TIP3    H178481   6.324   4.919   2.485  0.1143 -0.5526  0.1982
19022TIP3    H278482   6.292   5.062   2.443 -0.5720 -1.1955 -1.5857
19023TIP3   OH278483   4.916   3.210  16.484  0.2611 -0.6872  0.1600
19023TIP3    H178484   4.992   3.254  16.522  0.3284  1.0592 -1.8294
19023TIP3    H278485   4.845   3.273  16.494 -0.1624 -0.9994 -0.7775
19024TIP3   OH278486   1.343   1.791   3.894  0.1057  0.0540  0.2198
19024TIP3    H178487   1.345   1.795   3.798 -0.4250 -0.7020  0.1694
19024TIP3    H278488   1.338   1.882   3.922  3.3262  0.5240 -0.3605
19025TIP3   OH278489   6.002   3.483   2.564 -0.3319  0.4314 -0.0812
19025TIP3    H178490   6.051   3.543   2.620 -0.6874  1.4729 -0.8481
19025TIP3    H278491   5.911   3.507   2.577 -0.4648  0.2030 -0.5539
19026TIP3   OH278492   4.458   4.987   1.825 -0.3235  0.2066 -0.1291
19026TIP3    H178493   4.459   5.052   1.895 -1.8950 -2.1658  2.3156
19026TIP3    H278494   4.418   4.909   1.865 -1.3458 -1.3267 -3.7114
19027TIP3   OH278495   1.801   6.754   0.268  0.1426  0.4996  0.3821
19027TIP3    H178496   1.832   6.754   0.359  1.5886 -0.3285 -0.0759
19027TIP3    H278497   1.835   6.672   0.232 -0.8808  0.5627 -0.7595
19028TIP3   OH278498   6.139   2.040  12.297 -0.4353 -0.0238 -0.1661
19028TIP3    H178499   6.196   2.041  12.220 -1.3769  0.7806 -0.8702
19028TIP3    H278500   6.059   1.996  12.267 -0.7484  0.1622  0.3887
19029TIP3   OH278501   2.762   4.027   3.633  0.1009  0.2525 -0.2453
19029TIP3    H178502   2.791   4.112   3.666  1.7068  0.0047 -0.9020
19029TIP3    H278503   2.793   3.964   3.699 -0.8734  0.1434  0.1206
19030TIP3   OH278504   1.562   6.698   3.721 -0.4777 -0.0058 -0.3386
19030TIP3    H178505   1.611   6.769   3.763  2.3805 -0.2931 -2.7768
19030TIP3    H278506   1.538   6.639   3.792  0.4906  1.5006  1.3153
19031TIP3   OH278507   0.522   3.326  10.975 -0.2214  0.0873 -0.2605
19031TIP3    H178508   0.537   3.392  11.043 -1.2988 -0.1509  0.2274
19031TIP3    H278509   0.434   3.344  10.942  0.1939  0.0386 -1.4290
19032TIP3   OH278510   1.657   3.611  11.711 -0.4061  0.1151  0.0697
19032TIP3    H178511   1.659   3.680  11.777 -0.5059 -0.1909  0.3963
19032TIP3    H278512   1.572   3.619  11.669 -0.5885 -0.0824  0.4012
19033TIP3   OH278513   6.241   0.838  10.723  0.1688  0.2851 -0.3334
19033TIP3    H178514   6.301   0.911  10.710  0.5480  0.2342  0.9591
19033TIP3    H278515   6.166   0.876  10.767 -0.5767  0.2644 -1.5436
19034TIP3   OH278516   5.691   2.355  16.373 -0.0080 -0.2632  0.3210
19034TIP3    H178517   5.706   2.442  16.409 -0.4927  0.0266 -0.1590
19034TIP3    H278518   5.623   2.316  16.429 -2.0413  0.8406 -1.2266
19035TIP3   OH278519   3.922   0.701  13.237 -0.0690 -0.1641  0.2949
19035TIP3    H178520   4.010   0.739  13.245  0.1335 -0.6633  0.4835
19035TIP3    H278521   3.915   0.677  13.144  0.6048 -1.5385  0.5671
19036TIP3   OH278522   6.777   5.982  11.807 -0.4784  0.1106 -0.1742
19036TIP3    H178523   6.752   5.890  11.795 -0.4605 -0.0829  1.1546
19036TIP3    H278524   6.834   6.001  11.732 -0.3144 -1.0198 -0.3548
19037TIP3   OH278525   4.184   5.443  16.622  0.2675  0.4441  0.1233
19037TIP3    H178526   4.190   5.520  16.678 -0.7495  0.1031  0.7248
19037TIP3    H278527   4.230   5.374  16.670  1.4464  0.7399 -0.5563
19038TIP3   OH278528   5.033   2.525  13.128 -0.5811  0.3201 -0.0582
19038TIP3    H178529   4.968   2.560  13.188  0.0504 -0.6707  1.2461
19038TIP3    H278530   5.009   2.433  13.118 -1.5346  0.7528 -2.5241
19039TIP3   OH278531   6.660   1.553  12.933  0.3278 -0.1016  0.7504
19039TIP3    H178532   6.730   1.545  12.868  0.2060  0.4762  0.5460
19039TIP3    H278533   6.672   1.640  12.971  0.0595 -0.2214  1.1168
19040TIP3   OH278534   4.687   6.201  14.486 -0.1358  0.2884  0.2405
19040TIP3    H178535   4.769   6.181  14.442  0.0610 -0.0353  0.7425
19040TIP3    H278536   4.673   6.127  14.545 -1.2910 -0.1359 -0.5383
19041TIP3   OH278537   6.498   0.324   2.901  0.0359  0.0139 -0.1469
19041TIP3    H178538   6.530   0.374   2.827 -0.5001  2.6308  1.2817
19041TIP3    H278539   6.576   0.280   2.936  1.0153  1.7341 -0.0771
19042TIP3   OH278540   6.120   1.744   1.860 -0.3977  0.7938  0.1674
19042TIP3    H178541   6.122   1.688   1.783 -0.7073 -2.0235  2.0842
19042TIP3    H278542   6.117   1.833   1.825 -0.0136 -0.3459 -3.0279
19043TIP3   OH278543   3.897   5.657  14.915 -0.1762  0.5872  0.0698
19043TIP3    H178544   3.918   5.566  14.892  0.5070  0.1778  2.0634
19043TIP3    H278545   3.908   5.706  14.834 -3.9633 -1.5457 -2.0631
19044TIP3   OH278546   3.763   4.633   3.144 -0.2747  0.3423  0.2426
19044TIP3    H178547   3.716   4.550   3.137 -0.4183  0.4176  0.3035
19044TIP3    H278548   3.694   4.698   3.159 -0.1484  0.4498  0.3602
19045TIP3   OH278549   1.378   0.603   2.568  0.1491 -0.5066 -0.2260
19045TIP3    H178550   1.422   0.627   2.650  0.8947 -0.1044 -0.7309
19045TIP3    H278551   1.303   0.550   2.596 -0.9101  1.4549  0.8578
19046TIP3   OH278552   3.418   1.839   3.486  0.2788  0.4240  0.2883
19046TIP3    H178553   3.506   1.860   3.453 -0.6077  1.6139 -1.4960
19046TIP3    H278554   3.359   1.888   3.428 -1.7436 -2.6718 -0.5268
19047TIP3   OH278555   3.652   3.008  11.715  0.0462  0.4800 -0.2591
19047TIP3    H178556   3.586   3.071  11.744 -1.1278 -0.7747 -0.1271
19047TIP3    H278557   3.732   3.037  11.758 -1.0020  0.4296  1.8660
19048TIP3   OH278558   0.336   2.520   5.824 -0.0751  0.2671  0.3577
19048TIP3    H178559   0.314   2.443   5.876  0.7886  0.5601  1.1861
19048TIP3    H278560   0.340   2.592   5.887  0.2031  0.7785 -0.2316
19049TIP3   OH278561   1.843   2.947   0.884 -0.2760 -0.5448 -0.0430
19049TIP3    H178562   1.864   3.041   0.886 -2.5147  0.0255 -0.5139
19049TIP3    H278563   1.821   2.929   0.793 -2.9922 -0.7126  0.5733
19050TIP3   OH278564   0.118   6.155   1.969  0.0841  0.2303  0.2088
19050TIP3    H178565   0.188   6.200   1.922 -0.1340  1.0962  0.6955
19050TIP3    H278566   0.164   6.087   2.020  0.3854 -0.2718 -0.7109
19051TIP3   OH278567   3.656   1.745  12.608  0.8454 -0.0103 -0.9981
19051TIP3    H178568   3.670   1.720  12.517 -0.6409 -1.2167 -0.9372
19051TIP3    H278569   3.609   1.671  12.647  1.3281  0.5248  0.7265
19052TIP3   OH278570   1.511   2.085  12.772 -0.6736  0.5186 -0.1046
19052TIP3    H178571   1.455   2.122  12.704 -2.3053  1.0634  1.4811
19052TIP3    H278572   1.512   2.151  12.842  0.6633 -0.1812  0.5843
19053TIP3   OH278573   2.694   5.958   0.390 -0.0440  0.1483 -0.8550
19053TIP3    H178574   2.756   5.966   0.462  0.3196 -1.0585 -1.0087
19053TIP3    H278575   2.675   6.048   0.363  0.4526  0.5753  0.1957
19054TIP3   OH278576   2.765   2.962   3.929 -0.0783  0.6142  0.1303
19054TIP3    H178577   2.675   2.992   3.918  0.6232  2.5025 -0.9584
19054TIP3    H278578   2.767   2.876   3.886 -2.3582 -1.6672  4.0409
19055TIP3   OH278579   0.769   0.246   0.205 -0.3775  0.0980 -0.2844
19055TIP3    H178580   0.756   0.267   0.297 -1.9062  0.2897 -0.5253
19055TIP3    H278581   0.725   0.317   0.158  0.3524 -0.0204 -1.1730
19056TIP3   OH278582   6.381   6.728   3.462 -0.0165  0.3951  0.0037
19056TIP3    H178583   6.375   6.678   3.380 -1.3691  0.1555  0.2312
19056TIP3    H278584   6.293   6.763   3.475 -0.2660 -0.8934  2.1766
19057TIP3   OH278585   2.706   4.985  12.464  0.0102 -0.0479  0.5856
19057TIP3    H178586   2.704   4.984  12.368 -0.0881 -0.8706  0.5902
19057TIP3    H278587   2.761   4.910  12.487  0.5706  0.5352  1.1638
19058TIP3   OH278588   5.742   5.853  15.199  0.0769  0.4158  0.5475
19058TIP3    H178589   5.672   5.917  15.209  0.0150  0.7031 -1.2516
19058TIP3    H278590   5.714   5.798  15.125  1.0981 -0.3444  0.7010
19059TIP3   OH278591   4.325   1.887  13.561  0.3087 -0.2071 -0.5276
19059TIP3    H178592   4.403   1.844  13.527  1.1459  0.9146 -0.1020
19059TIP3    H278593   4.335   1.979  13.534  0.3831  0.4650  1.6421
19060TIP3   OH278594   6.048   0.356   4.592  0.0068 -0.0338 -0.0533
19060TIP3    H178595   6.033   0.262   4.592  1.5015 -0.3443  1.8045
19060TIP3    H278596   5.975   0.392   4.543 -1.8737 -1.9789  1.1438
19061TIP3   OH278597   6.227   0.816  16.925 -0.2623  0.2149  0.3124
19061TIP3    H178598   6.268   0.798  16.840  0.7164  1.5379  0.4753
19061TIP3    H278599   6.244   0.738  16.977 -0.0535 -0.2254 -0.3986
19062TIP3   OH278600   1.917   1.184  12.993 -0.0638 -0.6205  0.8719
19062TIP3    H178601   1.860   1.162  12.919  1.3598 -1.6846  0.0255
19062TIP3    H278602   1.900   1.115  13.057 -0.2983 -0.4904  0.9489
19063TIP3   OH278603   6.746   4.678   1.981 -0.2616  0.5067 -0.4006
19063TIP3    H178604   6.702   4.756   1.949  0.2550  0.0989 -2.2474
19063TIP3    H278605   6.825   4.672   1.927  0.5916 -0.3465  0.8833
19064TIP3   OH278606   2.915   5.108  14.000 -0.4681 -0.0560  0.2231
19064TIP3    H178607   2.888   5.200  13.995 -2.0759 -0.5289 -0.5256
19064TIP3    H278608   2.921   5.080  13.908 -2.6130 -1.3615  0.4031
19065TIP3   OH278609   1.731   0.347  12.963  0.1364 -0.3588  0.1378
19065TIP3    H178610   1.812   0.298  12.955  1.2496  1.0492  2.0280
19065TIP3    H278611   1.753   0.435  12.933 -1.6024 -0.6918 -2.4114
19066TIP3   OH278612   1.594   4.819  14.036 -0.5510 -0.1772 -0.6657
19066TIP3    H178613   1.652   4.744  14.044 -1.9915 -1.2109  0.6767
19066TIP3    H278614   1.519   4.785  13.985 -1.7543 -0.0441  0.9426
19067TIP3   OH278615   1.212   1.186  14.257  0.2990 -0.0856  0.3607
19067TIP3    H178616   1.226   1.139  14.175  0.9209  0.9689 -0.1586
19067TIP3    H278617   1.218   1.119  14.325 -0.9046 -1.0878 -0.4777
19068TIP3   OH278618   5.232   0.869   2.118 -0.5825 -0.4275 -0.6574
19068TIP3    H178619   5.226   0.779   2.149  1.0386 -0.2322  0.3125
19068TIP3    H278620   5.310   0.870   2.062 -0.4263  0.4364 -0.4392
19069TIP3   OH278621   4.084   1.541   4.926  0.4663 -0.3228  0.2062
19069TIP3    H178622   4.157   1.570   4.872  1.5690 -1.8488  0.7922
19069TIP3    H278623   4.082   1.602   4.999  0.3782  0.4337 -0.4171
19070TIP3   OH278624   6.632   3.476  12.734 -0.0135 -0.4871  0.1071
19070TIP3    H178625   6.711   3.422  12.743 -0.6225 -1.4049  0.0721
19070TIP3    H278626   6.644   3.524  12.652  0.5288 -0.5729  0.1362
19071TIP3   OH278627   2.401   5.484   1.201 -0.3038 -0.4441  0.5193
19071TIP3    H178628   2.347   5.425   1.148  1.3549 -2.4683  0.9551
19071TIP3    H278629   2.369   5.471   1.291 -2.0286  1.7790  0.3233
19072TIP3   OH278630   5.891   4.051  12.860 -0.4410 -0.3939 -0.0602
19072TIP3    H178631   5.833   3.996  12.913 -1.6458  1.0498  0.1975
19072TIP3    H278632   5.964   4.071  12.918 -0.8081 -0.3902  0.4088
19073TIP3   OH278633   5.386   1.133  15.809 -0.4034 -0.4887 -0.3651
19073TIP3    H178634   5.430   1.057  15.770 -0.9408  0.0343 -2.1124
19073TIP3    H278635   5.426   1.143  15.895  1.7576 -0.9934 -1.2488
19074TIP3   OH278636   1.527   6.283   1.733 -0.5545 -0.6938  0.3849
19074TIP3    H178637   1.578   6.280   1.814  0.5393  0.3011 -0.2350
19074TIP3    H278638   1.563   6.214   1.678 -0.4969 -0.5988  0.3022
19075TIP3   OH278639   4.984   1.584   0.712 -0.0081 -0.1548  0.7177
19075TIP3    H178640   4.919   1.652   0.696 -0.0161  0.3241  2.5825
19075TIP3    H278641   4.941   1.523   0.773  0.7048 -0.7423  0.6519
19076TIP3   OH278642   0.700   1.244  13.729  0.3281 -0.2430  0.2430
19076TIP3    H178643   0.750   1.321  13.703  1.3407  0.1434  2.9610
19076TIP3    H278644   0.699   1.188  13.652 -0.9411  2.6593 -2.0365
19077TIP3   OH278645   5.686   0.186  13.262 -0.3365  0.0635  0.0910
19077TIP3    H178646   5.619   0.127  13.228 -0.0720 -0.0739 -0.2029
19077TIP3    H278647   5.643   0.235  13.332 -0.9918  0.5731 -0.6453
19078TIP3   OH278648   3.418   4.014   3.778 -0.4085  0.5714  0.2783
19078TIP3    H178649   3.437   4.007   3.871  0.8374  2.1050  0.1629
19078TIP3    H278650   3.503   4.022   3.736 -1.0034  1.0806 -0.8804
19079TIP3   OH278651   3.596   5.099   1.067 -0.4790  0.2500 -0.0363
19079TIP3    H178652   3.607   5.189   1.038  0.5276  0.8843  2.0836
19079TIP3    H278653   3.570   5.106   1.159  2.5414 -1.5416  1.1161
19080TIP3   OH278654   2.945   0.139   3.636 -0.1345 -0.2163  0.2100
19080TIP3    H178655   2.947   0.224   3.680  1.3376  0.0583 -0.3124
19080TIP3    H278656   3.031   0.132   3.594  0.8527 -3.1165  2.3807
19081TIP3   OH278657   2.683   3.697   2.589  0.0543 -0.1617  0.4133
19081TIP3    H178658   2.739   3.680   2.665  0.7151 -1.6433 -0.3547
19081TIP3    H278659   2.683   3.615   2.541  0.8192  1.1143 -1.9446
19082TIP3   OH278660   3.902   0.488   2.636  0.4811 -0.1105  0.1632
19082TIP3    H178661   3.882   0.401   2.670 -0.9561  0.2981  0.4315
19082TIP3    H278662   3.891   0.479   2.541  0.0394 -0.1506  0.2167
19083TIP3   OH278663   5.208   1.846   0.731 -0.3559 -0.7694  0.0474
19083TIP3    H178664   5.294   1.888   0.734 -1.1705  1.0149  0.0624
19083TIP3    H278665   5.225   1.753   0.745  1.4426 -0.2794  1.4595
19084TIP3   OH278666   2.702   0.628   5.952  0.7980 -0.4494  0.3442
19084TIP3    H178667   2.709   0.543   5.995 -1.2228 -0.7797  0.1486
19084TIP3    H278668   2.628   0.670   5.996  1.8238  1.2759  0.5065
19085TIP3   OH278669   5.435   4.808  11.613  0.0640  0.0733 -0.9266
19085TIP3    H178670   5.407   4.811  11.705  0.0772  1.4367 -0.9391
19085TIP3    H278671   5.399   4.888  11.575  3.4194  1.7029 -1.0815
19086TIP3   OH278672   4.405   6.267  11.889  0.3348  0.0043  0.5644
19086TIP3    H178673   4.416   6.337  11.825  1.1713 -0.5076  0.1296
19086TIP3    H278674   4.392   6.313  11.972  0.7292  0.6754  0.2661
19087TIP3   OH278675   0.882   0.054  13.845 -0.0061 -0.3053  0.1054
19087TIP3    H178676   0.870   0.133  13.792 -0.2360 -1.9169 -2.4478
19087TIP3    H278677   0.812   0.058  13.910 -0.3857  1.2963 -0.3395
19088TIP3   OH278678   5.052   3.528   1.183 -0.1891  0.1301 -0.1381
19088TIP3    H178679   4.978   3.501   1.237 -0.8520  1.2173 -0.4610
19088TIP3    H278680   5.127   3.524   1.241 -1.1843  3.3325  1.6223
19089TIP3   OH278681   0.456   0.783   4.144  0.1328  0.1446 -0.3342
19089TIP3    H178682   0.499   0.862   4.176  1.3530 -0.4741 -0.3640
19089TIP3    H278683   0.442   0.799   4.050  1.7458 -0.2192 -0.6717
19090TIP3   OH278684   0.034   3.371   1.370  0.1253 -0.5866 -0.4312
19090TIP3    H178685   0.057   3.458   1.337  3.5536 -1.5530 -0.9750
19090TIP3    H278686   0.064   3.311   1.301 -0.0417 -2.3085  0.9424
19091TIP3   OH278687   1.660   4.721  16.191  0.3558 -0.2530 -0.5711
19091TIP3    H178688   1.731   4.722  16.127 -0.3620  0.8230 -1.3640
19091TIP3    H278689   1.702   4.690  16.272  0.9684 -3.1057 -1.8553
19092TIP3   OH278690   0.116   1.045   3.671 -0.2519 -0.4899 -0.0765
19092TIP3    H178691   0.027   1.078   3.658 -0.8359 -1.3703  1.3827
19092TIP3    H278692   0.151   1.100   3.741 -0.3478 -1.3355  0.6531
19093TIP3   OH278693   5.708   5.208  16.551  0.1873  0.1908 -0.0461
19093TIP3    H178694   5.800   5.187  16.569  0.4350  0.8877 -0.4674
19093TIP3    H278695   5.667   5.210  16.637  0.4154 -0.8048  0.0948
19094TIP3   OH278696   5.064   2.908  16.750  0.0607  0.3908 -0.2146
19094TIP3    H178697   5.051   2.917  16.655  0.4341  0.0235 -0.3047
19094TIP3    H278698   5.071   2.998  16.782 -1.1628  0.5542 -0.3741
19095TIP3   OH278699   3.752   4.061  16.371 -0.5031 -0.1939  0.1316
19095TIP3    H178700   3.812   4.046  16.444  1.2720 -1.6481 -1.5173
19095TIP3    H278701   3.689   4.125  16.404  1.7357  1.1502  2.0805
19096TIP3   OH278702   6.116   2.957   5.229  0.1433 -0.3247 -0.0344
19096TIP3    H178703   6.186   2.948   5.294  0.1089 -1.1044 -0.0944
19096TIP3    H278704   6.036   2.962   5.280  0.3004  1.8268  0.1007
19097TIP3   OH278705   4.154   3.473  12.268  0.0179  0.0642 -0.1054
19097TIP3    H178706   4.216   3.531  12.225  1.1344 -0.3786  0.8448
19097TIP3    H278707   4.082   3.464  12.206  0.3798  1.4934 -0.7608
19098TIP3   OH278708   4.748   5.860  15.311  0.0306 -0.1320 -0.2211
19098TIP3    H178709   4.817   5.910  15.266 -0.6199  1.2477  0.2509
19098TIP3    H278710   4.783   5.771  15.318  2.5555  0.8743  1.5712
19099TIP3   OH278711   2.363   0.745   0.727 -0.8828  0.4825 -0.1698
19099TIP3    H178712   2.309   0.678   0.684  0.3647  0.4177 -1.7282
19099TIP3    H278713   2.305   0.785   0.792 -2.2489 -0.7718 -0.5649
19100TIP3   OH278714   3.143   2.964   4.355 -0.1768  0.3015 -0.4105
19100TIP3    H178715   3.202   2.926   4.290  1.1340  1.9762 -0.2819
19100TIP3    H278716   3.125   3.052   4.322 -2.1573  0.0573 -0.1130
19101TIP3   OH278717   5.280   5.603   2.906  0.2543 -0.3754 -0.1424
19101TIP3    H178718   5.304   5.548   2.981  1.6120  0.0804 -0.2002
19101TIP3    H278719   5.318   5.689   2.927 -1.7808  0.5578 -0.0744
19102TIP3   OH278720   1.731   0.367  16.540  0.3708  0.0164  0.0707
19102TIP3    H178721   1.680   0.351  16.619  1.3612 -0.6935  0.5787
19102TIP3    H278722   1.716   0.460  16.520 -1.0382 -0.1478  0.2461
19103TIP3   OH278723   0.559   5.839  15.246 -0.2147  0.2054 -0.5232
19103TIP3    H178724   0.555   5.879  15.332 -0.9176  0.2091 -0.5540
19103TIP3    H278725   0.585   5.910  15.187  0.2457  0.2061 -0.3273
19104TIP3   OH278726   6.710   4.466  12.996  0.8992  0.4592  0.1647
19104TIP3    H178727   6.756   4.389  13.028  0.8637  0.0061 -0.8383
19104TIP3    H278728   6.777   4.535  12.994  1.4210 -0.0575 -0.7721
19105TIP3   OH278729   3.266   1.858   4.039 -0.4108 -0.0020  0.2685
19105TIP3    H178730   3.291   1.843   3.948  0.2418 -0.6926  0.5472
19105TIP3    H278731   3.230   1.946   4.040 -2.2568 -0.6631 -1.0401
19106TIP3   OH278732   1.406   4.994   2.548  0.4646  0.3800  0.4545
19106TIP3    H178733   1.421   5.015   2.456 -0.7492  0.4814  0.2596
19106TIP3    H278734   1.390   4.900   2.550  0.9564  0.2971  0.6329
19107TIP3   OH278735   6.323   1.160  11.633 -0.5619  0.4192 -0.1443
19107TIP3    H178736   6.258   1.229  11.642  1.0974  1.9301  1.0116
19107TIP3    H278737   6.279   1.081  11.665 -1.9420  1.3167  0.2466
19108TIP3   OH278738   6.222   1.692   5.025 -0.4084 -0.0048 -0.1566
19108TIP3    H178739   6.134   1.688   5.061  0.1627 -2.5874  1.1676
19108TIP3    H278740   6.256   1.777   5.054 -2.8700  1.7621 -2.0056
19109TIP3   OH278741   5.563   2.289   3.513  0.0173 -0.4148  0.2012
19109TIP3    H178742   5.651   2.321   3.533  0.8290 -1.2706 -1.7625
19109TIP3    H278743   5.508   2.367   3.517  1.2835  0.5739 -0.7479
19110TIP3   OH278744   2.186   2.408  15.646 -0.0491  0.1479 -0.0484
19110TIP3    H178745   2.119   2.388  15.711  0.0013  0.2701  0.0413
19110TIP3    H278746   2.173   2.501  15.627  0.2851  0.2449  0.1901
19111TIP3   OH278747   2.150   0.754   4.505  0.1569  0.2322  0.7358
19111TIP3    H178748   2.110   0.802   4.433 -0.8193 -1.1122  0.3222
19111TIP3    H278749   2.240   0.737   4.477  0.2230  0.9698  0.4847
19112TIP3   OH278750   4.577   4.953   1.575 -0.5184 -0.1360 -0.0076
19112TIP3    H178751   4.545   4.965   1.665  0.6422 -0.1542  0.4217
19112TIP3    H278752   4.510   4.899   1.533 -0.6048 -0.9667  1.1391
19113TIP3   OH278753   1.968   6.603  12.755 -0.2409 -0.1804  0.3741
19113TIP3    H178754   1.898   6.655  12.717 -0.0218 -0.3678 -0.2983
19113TIP3    H278755   1.977   6.636  12.845  0.0428  1.0833 -0.0997
19114TIP3   OH278756   6.082   4.949   2.737  0.2054  0.3338  0.4888
19114TIP3    H178757   6.146   4.955   2.666  1.2846  0.1998  1.4231
19114TIP3    H278758   6.113   4.876   2.791 -1.4906 -0.6395  0.2439
19115TIP3   OH278759   0.101   2.391   2.601 -0.0619  0.1539  0.2843
19115TIP3    H178760   0.032   2.430   2.548  1.6250 -0.0411 -2.3045
19115TIP3    H278761   0.091   2.296   2.587 -0.0593  0.0461  0.9828
19116TIP3   OH278762   2.382   5.159  14.228  0.1198  0.3943  0.0612
19116TIP3    H178763   2.383   5.066  14.251  1.1904  0.6035  0.9061
19116TIP3    H278764   2.457   5.170  14.168  0.1705  0.7677  0.1876
19117TIP3   OH278765   5.937   6.010   3.042 -0.2429  0.2250  0.5375
19117TIP3    H178766   5.946   5.927   3.088  1.4664  1.1965  2.0953
19117TIP3    H278767   6.017   6.058   3.062 -0.2512  1.4852 -1.9893
19118TIP3   OH278768   5.595   3.679   5.413 -0.4773 -0.0138  0.4999
19118TIP3    H178769   5.627   3.652   5.327  0.1215  0.3692  0.5879
19118TIP3    H278770   5.596   3.599   5.466 -2.2585 -0.5627 -0.2360
19119TIP3   OH278771   0.851   6.479   1.173  0.3714  0.2039  0.2417
19119TIP3    H178772   0.922   6.429   1.133  1.0705  0.8882  0.6057
19119TIP3    H278773   0.787   6.413   1.200  1.8314 -0.6058  1.8372
19120TIP3   OH278774   3.034   0.888   3.407 -0.2249 -0.3910 -1.0652
19120TIP3    H178775   3.092   0.814   3.391  1.0684  0.5457 -0.8703
19120TIP3    H278776   3.091   0.957   3.442 -1.7582 -0.0692  1.0157
19121TIP3   OH278777   5.574   2.897  15.335  0.4580  0.3855 -0.1472
19121TIP3    H178778   5.623   2.816  15.349  0.8511  0.4495 -1.1135
19121TIP3    H278779   5.615   2.960  15.394  0.2751 -0.0620  0.4704
19122TIP3   OH278780   0.550   1.975   1.304  0.5168 -0.0467 -0.4153
19122TIP3    H178781   0.578   2.066   1.310  3.2213 -0.8893  1.8033
19122TIP3    H278782   0.458   1.976   1.330  0.9389  1.8984  1.2489
19123TIP3   OH278783   4.410   1.670  14.077 -0.0712 -0.0233  0.0645
19123TIP3    H178784   4.484   1.730  14.070 -1.4104  1.6319 -0.5784
19123TIP3    H278785   4.398   1.657  14.171 -0.2421  1.3852  0.2575
19124TIP3   OH278786   5.581   5.252  13.335  0.5537  0.1413  0.2214
19124TIP3    H178787   5.578   5.326  13.396 -0.3606 -0.5407  1.0373
19124TIP3    H278788   5.626   5.286  13.258  1.4748  1.1063  1.1650
19125TIP3   OH278789   4.004   1.416   6.109  0.6873 -0.1554 -0.0570
19125TIP3    H178790   4.048   1.373   6.036 -1.2951 -2.9025  0.2252
19125TIP3    H278791   4.072   1.428   6.175  2.0389  0.4219 -1.5025
19126TIP3   OH278792   4.772   1.775   0.694 -0.2116  0.1711 -0.1573
19126TIP3    H178793   4.780   1.870   0.691  0.8394  0.1663  1.1641
19126TIP3    H278794   4.747   1.749   0.606  1.5254  1.5017 -1.0975
19127TIP3   OH278795   0.180   1.378  14.624 -0.1687  0.1298 -0.1759
19127TIP3    H178796   0.123   1.304  14.646  0.9377 -1.2350 -1.7081
19127TIP3    H278797   0.151   1.405  14.537  0.7686  0.1643 -0.4806
19128TIP3   OH278798   6.751   4.691   0.525 -0.4791  0.0386 -0.1692
19128TIP3    H178799   6.762   4.688   0.430 -0.2043 -1.3931 -0.1147
19128TIP3    H278800   6.779   4.604   0.555 -1.7096  0.0530  1.1008
19129TIP3   OH278801   4.421   0.902   3.072  0.2363  0.2923 -0.2137
19129TIP3    H178802   4.508   0.937   3.051 -0.0044  1.2779  0.3628
19129TIP3    H278803   4.364   0.979   3.075 -0.8914 -0.4356 -1.6010
19130TIP3   OH278804   3.690   3.069  12.002  0.1736  0.0379 -0.0650
19130TIP3    H178805   3.622   3.110  11.949  0.7988  0.0430 -0.8779
19130TIP3    H278806   3.643   3.011  12.062 -0.4350 -1.3943 -1.8609
19131TIP3   OH278807   5.950   2.209  12.911 -0.2183  0.0871 -0.4262
19131TIP3    H178808   5.926   2.212  12.819 -0.9162 -0.4550 -0.2694
19131TIP3    H278809   5.903   2.283  12.951  1.0422  1.0790 -0.7018
19132TIP3   OH278810   6.195   3.978  13.402 -0.5078 -0.1582 -0.0274
19132TIP3    H178811   6.120   3.986  13.460 -0.9717 -1.0420 -0.4820
19132TIP3    H278812   6.159   3.947  13.319  0.0530  1.7142 -1.0351
19133TIP3   OH278813   3.142   2.409   5.787  0.1807  0.1055 -0.5415
19133TIP3    H178814   3.104   2.432   5.703  1.7674 -1.3922 -1.7489
19133TIP3    H278815   3.190   2.487   5.814 -0.0688  0.4910 -1.1970
19134TIP3   OH278816   4.499   2.666   2.487 -0.0748  0.0970  0.4874
19134TIP3    H178817   4.460   2.695   2.404  1.1385  1.0886  0.2262
19134TIP3    H278818   4.524   2.747   2.531 -2.9358 -0.2525  3.0403
19135TIP3   OH278819   4.739   1.867   5.578  0.1684 -0.3325  0.0615
19135TIP3    H178820   4.660   1.916   5.605  0.6953  1.1883 -1.0297
19135TIP3    H278821   4.805   1.935   5.564  1.4987 -1.5350  0.2886
19136TIP3   OH278822   6.040   1.625   2.796 -0.9140  0.5406 -0.6345
19136TIP3    H178823   5.970   1.663   2.850  0.1505  0.1890  1.0828
19136TIP3    H278824   6.032   1.530   2.810  1.0803  0.5642  1.2433
19137TIP3   OH278825   1.470   3.668  12.089  0.7218 -0.1363  0.4268
19137TIP3    H178826   1.555   3.656  12.047  0.2197 -0.9035 -0.4060
19137TIP3    H278827   1.428   3.738  12.038  0.7160  0.0115  0.6315
19138TIP3   OH278828   2.342   2.991   5.650  0.0546  0.1942  0.1094
19138TIP3    H178829   2.315   2.956   5.735  0.4879 -4.2655 -1.3202
19138TIP3    H278830   2.260   3.002   5.602 -0.0117 -1.7058 -0.2919
19139TIP3   OH278831   2.351   3.881   2.117 -0.0397 -0.3624  0.1503
19139TIP3    H178832   2.324   3.841   2.035  1.6020 -0.4510 -0.3891
19139TIP3    H278833   2.273   3.925   2.149 -2.0678 -4.1338  0.9315
19140TIP3   OH278834   5.102   5.815  15.065  0.1123  0.0447 -0.1290
19140TIP3    H178835   5.072   5.750  15.001  1.3697 -1.0715  0.3746
19140TIP3    H278836   5.183   5.851  15.027  0.2578  0.1900  0.3088
19141TIP3   OH278837   4.613   2.695  12.578  0.3687 -0.2573 -0.2537
19141TIP3    H178838   4.569   2.780  12.579 -0.7571 -0.8093 -0.5344
19141TIP3    H278839   4.542   2.632  12.592  1.3804 -1.0900  1.4381
19142TIP3   OH278840   5.678   1.423   3.101 -0.4310 -0.1339 -0.1902
19142TIP3    H178841   5.758   1.380   3.073  0.0881  0.5163  0.2624
19142TIP3    H278842   5.613   1.353   3.105 -0.3677 -0.3777 -2.3250
19143TIP3   OH278843   3.020   4.595  12.733 -0.1284 -0.0148  0.2559
19143TIP3    H178844   2.941   4.556  12.769 -0.2129  0.3334  0.4604
19143TIP3    H278845   3.090   4.566  12.792  0.1442 -1.5273 -0.7571
19144TIP3   OH278846   5.057   3.767   4.824 -0.1273 -0.2352  0.1609
19144TIP3    H178847   5.118   3.767   4.897 -0.2622  1.1223  0.3144
19144TIP3    H278848   5.086   3.840   4.769  0.0907 -1.3478 -1.2618
19145TIP3   OH278849   4.975   6.036  13.351  0.6365  0.2139 -0.6116
19145TIP3    H178850   4.953   6.109  13.409 -1.6011  1.3001 -2.6471
19145TIP3    H278851   5.063   6.057  13.319  0.6415  1.2122 -0.0111
19146TIP3   OH278852   2.891   5.828   3.464 -0.3619  0.2515  0.2283
19146TIP3    H178853   2.973   5.833   3.512 -1.1204 -1.5625  1.8218
19146TIP3    H278854   2.837   5.897   3.501  0.0295  0.7102 -0.0381
19147TIP3   OH278855   5.799   1.927  12.633  0.4217  0.0418 -0.2440
19147TIP3    H178856   5.705   1.921  12.617  0.4856  0.4326 -0.7769
19147TIP3    H278857   5.821   2.018  12.615  0.3820  0.7525  2.7842
19148TIP3   OH278858   3.725   2.335  16.086  0.1249  0.6536  0.1288
19148TIP3    H178859   3.746   2.369  15.999 -2.1106  0.6641 -0.4610
19148TIP3    H278860   3.785   2.261  16.098 -1.0396 -0.8418 -2.4671
19149TIP3   OH278861   6.552   5.832   3.314 -0.2531  0.1269  0.0494
19149TIP3    H178862   6.565   5.851   3.221 -0.2033 -0.2246 -0.0168
19149TIP3    H278863   6.597   5.749   3.328 -0.0937  0.2758  0.4323
19150TIP3   OH278864   4.808   4.871  15.963 -0.1737  0.0188  0.4827
19150TIP3    H178865   4.753   4.906  15.893  0.2272  0.0939  0.2078
19150TIP3    H278866   4.770   4.908  16.043 -2.3079 -2.1496  0.5876
19151TIP3   OH278867   3.429   5.558  15.587 -0.4651  0.6420  0.7477
19151TIP3    H178868   3.355   5.617  15.605 -0.6695  0.9472 -0.9364
19151TIP3    H278869   3.493   5.581  15.653 -0.8889  2.1860  0.6804
19152TIP3   OH278870   4.614   0.547  14.401  0.0239 -0.3795  0.6387
19152TIP3    H178871   4.710   0.554  14.398 -0.0344  0.4331  0.5831
19152TIP3    H278872   4.586   0.618  14.458 -0.7496  1.3776 -1.7541
19153TIP3   OH278873   6.233   1.801  12.553 -0.2358  0.5089  0.1180
19153TIP3    H178874   6.276   1.717  12.537 -1.6944 -0.1850 -0.3523
19153TIP3    H278875   6.229   1.843  12.467 -0.1894  0.7189  0.2184
19154TIP3   OH278876   5.694   3.566   2.484  0.2813  0.4852 -0.1659
19154TIP3    H178877   5.671   3.510   2.559 -0.5961  0.4547 -0.4536
19154TIP3    H278878   5.614   3.572   2.433  0.8513  0.5737 -1.0740
19155TIP3   OH278879   3.083   5.731   3.701 -0.5992  0.7469  0.3594
19155TIP3    H178880   3.008   5.707   3.755 -0.5698 -1.3436 -0.4295
19155TIP3    H278881   3.159   5.722   3.760 -0.7224  0.1202  0.4297
19156TIP3   OH278882   5.482   3.454  12.425 -0.0729  0.2897 -0.3302
19156TIP3    H178883   5.468   3.429  12.516 -0.0391 -0.2287 -0.4627
19156TIP3    H278884   5.393   3.464  12.389 -0.1196  2.3602  0.2363
19157TIP3   OH278885   0.159   3.984   5.139  0.2130 -0.3328 -0.4787
19157TIP3    H178886   0.085   3.925   5.148 -0.0307 -0.1322 -1.0694
19157TIP3    H278887   0.223   3.935   5.088  0.6740 -0.6669  0.4107
19158TIP3   OH278888   0.649   5.022  14.520 -0.2916 -0.5763  0.3650
19158TIP3    H178889   0.622   5.113  14.513 -0.5547 -0.5186  1.8117
19158TIP3    H278890   0.566   4.973  14.523 -0.1664 -0.7921  0.2854
19159TIP3   OH278891   0.193   0.708   1.560  0.3574  0.1916  0.3029
19159TIP3    H178892   0.198   0.693   1.654 -1.7523 -0.1141  0.4079
19159TIP3    H278893   0.246   0.638   1.521 -1.9648 -2.1650  1.1377
19160TIP3   OH278894   2.881   4.851   1.119 -0.4899  0.0239 -0.3946
19160TIP3    H178895   2.808   4.809   1.164  0.5003 -0.9977  0.3123
19160TIP3    H278896   2.884   4.939   1.156 -0.4941 -0.3806  0.5989
19161TIP3   OH278897   6.045   5.770   4.326  0.1182  0.3300 -0.0646
19161TIP3    H178898   6.080   5.733   4.407  0.5449  0.9854  0.0575
19161TIP3    H278899   5.967   5.819   4.352 -0.1956 -0.1121 -0.1640
19162TIP3   OH278900   1.870   4.276  16.518  0.3665 -0.0863 -0.5746
19162TIP3    H178901   1.913   4.245  16.438  1.3047 -1.0506  0.2818
19162TIP3    H278902   1.940   4.285  16.581 -0.4099  0.3910  0.2456
19163TIP3   OH278903   1.503   2.766  15.229 -0.0877 -0.6469 -0.8038
19163TIP3    H178904   1.587   2.804  15.256  0.5631 -1.8188 -1.1219
19163TIP3    H278905   1.451   2.765  15.310  0.4969 -0.6868 -0.4173
19164TIP3   OH278906   0.931   2.994  16.466 -0.0444  0.2720  0.2234
19164TIP3    H178907   0.842   2.999  16.501  0.0995  0.1943  0.6054
19164TIP3    H278908   0.953   2.901  16.471 -0.2899  0.1525 -0.7578
19165TIP3   OH278909   0.042   4.344   4.278  0.3582  0.5421 -0.3199
19165TIP3    H178910   0.057   4.436   4.300  1.6503  0.3839 -0.4400
19165TIP3    H278911   0.066   4.337   4.185  2.6487 -0.3645  0.2623
19166TIP3   OH278912   1.680   4.645   0.471 -0.3140  0.1177 -0.3389
19166TIP3    H178913   1.773   4.664   0.489 -0.4152  0.5775 -0.2936
19166TIP3    H278914   1.673   4.551   0.482  0.4800 -0.1488 -1.8090
19167TIP3   OH278915   3.640   5.631  15.754 -0.4620  0.1432  0.4093
19167TIP3    H178916   3.657   5.570  15.826  0.7741  0.3311  0.2942
19167TIP3    H278917   3.715   5.621  15.695 -1.4172  0.0308 -0.8421
19168TIP3   OH278918   4.571   3.961  14.529 -0.1886 -0.4249 -0.1060
19168TIP3    H178919   4.492   4.013  14.544  0.7618  0.9574  0.4445
19168TIP3    H278920   4.542   3.870  14.531 -1.6008  0.0162  1.1268
19169TIP3   OH278921   1.981   6.197   5.555 -0.4568 -0.5669  0.1239
19169TIP3    H178922   2.030   6.117   5.571  1.9650  1.0019  1.1976
19169TIP3    H278923   1.973   6.238   5.641 -0.7538  0.8064 -0.5255
19170TIP3   OH278924   4.931   1.631  15.531 -0.1375 -0.1939  0.0322
19170TIP3    H178925   4.933   1.727  15.533 -1.5758 -0.0956 -1.5379
19170TIP3    H278926   4.986   1.608  15.457  1.1612 -0.6777  1.1044
19171TIP3   OH278927   4.996   5.429   3.397 -0.1396 -0.5447  0.0753
19171TIP3    H178928   5.020   5.517   3.366 -0.0552 -0.2822  0.8647
19171TIP3    H278929   5.055   5.370   3.352  0.3588 -0.1178  0.1632
19172TIP3   OH278930   2.129   0.139   5.661 -0.5655  0.6545 -0.1490
19172TIP3    H178931   2.130   0.159   5.567  0.1414  0.6625 -0.1499
19172TIP3    H278932   2.198   0.196   5.697 -2.0924  2.0749  0.6792
19173TIP3   OH278933   4.966   1.828   2.687  0.5325 -0.4288 -0.4907
19173TIP3    H178934   4.937   1.814   2.597 -0.3035 -2.5176  0.0516
19173TIP3    H278935   4.931   1.753   2.736  0.1533  1.1254  1.7773
19174TIP3   OH278936   0.829   3.448   0.011  0.5411  1.0811  0.0135
19174TIP3    H178937   0.849   3.376  -0.049 -1.8654  0.6119 -0.3503
19174TIP3    H278938   0.838   3.527  -0.041 -1.6267  0.6734 -1.1041
19175TIP3   OH278939   4.063   3.026   4.319  0.3993 -0.2242 -0.1037
19175TIP3    H178940   4.082   3.022   4.412  1.3480  0.4306 -0.2614
19175TIP3    H278941   4.144   3.056   4.278 -0.7596  2.1044 -0.8786
19176TIP3   OH278942   2.532   2.736  13.324  0.0333 -0.7670 -0.8603
19176TIP3    H178943   2.524   2.801  13.394 -0.4824  0.0670 -1.6881
19176TIP3    H278944   2.543   2.787  13.244  1.2523 -1.7195 -1.3354
19177TIP3   OH278945   3.162   1.248  12.744  0.4069 -0.5478 -0.3193
19177TIP3    H178946   3.248   1.206  12.749  1.0904  0.7373 -0.7229
19177TIP3    H278947   3.162   1.294  12.660 -0.6526 -0.4676 -0.2914
19178TIP3   OH278948   2.519   0.632  13.960  0.3641  0.0094  0.4181
19178TIP3    H178949   2.575   0.555  13.948  2.3515  1.4409 -0.0498
19178TIP3    H278950   2.440   0.612  13.911  1.7583 -0.8295 -1.6169
19179TIP3   OH278951   2.307   4.523  16.564 -0.5067 -0.4019 -0.0291
19179TIP3    H178952   2.393   4.534  16.605 -0.5011  1.5740 -0.4949
19179TIP3    H278953   2.326   4.497  16.474 -0.4124 -0.2420 -0.0551
19180TIP3   OH278954   4.203   5.433   3.698 -0.0276  0.4498 -0.1365
19180TIP3    H178955   4.170   5.429   3.788  0.7875  1.1657  0.2063
19180TIP3    H278956   4.220   5.526   3.683 -0.6196  0.4020 -1.2150
19181TIP3   OH278957   3.191   6.194  16.892  0.0783  0.2146 -0.1698
19181TIP3    H178958   3.222   6.217  16.804 -0.9581 -0.8133 -0.8357
19181TIP3    H278959   3.224   6.264  16.948  1.2395  0.5966 -1.2800
19182TIP3   OH278960   6.482   5.126  13.989 -0.4888 -0.7593 -0.1118
19182TIP3    H178961   6.556   5.160  13.939 -0.7329  0.2392  0.1883
19182TIP3    H278962   6.463   5.041  13.950 -1.1547  0.3057 -2.2181
19183TIP3   OH278963   3.435   5.780  11.587  0.4316  0.1079  0.0697
19183TIP3    H178964   3.423   5.705  11.645 -0.7468  1.2279  1.3421
19183TIP3    H278965   3.394   5.753  11.505 -2.6568  0.3186  1.3877
19184TIP3   OH278966   4.436   5.042   3.506  0.4860 -0.0351 -0.3877
19184TIP3    H178967   4.426   5.096   3.584 -0.0073  0.1441 -0.5728
19184TIP3    H278968   4.515   4.990   3.523  0.7051  0.4102 -0.0137
19185TIP3   OH278969   2.818   2.794   1.763  0.6534  0.4308 -0.0160
19185TIP3    H178970   2.814   2.764   1.672  0.3957  0.7032 -0.0994
19185TIP3    H278971   2.905   2.832   1.772  0.1618  1.7664 -0.6012
19186TIP3   OH278972   5.838   2.873   1.391 -0.4954 -0.0361 -0.1572
19186TIP3    H178973   5.747   2.903   1.384 -0.1090  1.2838  0.1092
19186TIP3    H278974   5.889   2.954   1.397  0.7255 -0.7511 -0.5494
19187TIP3   OH278975   6.178   2.005   4.239  0.4871  0.2951 -0.2210
19187TIP3    H178976   6.120   1.958   4.179 -2.1768  1.3310  1.3503
19187TIP3    H278977   6.186   1.947   4.315 -0.8519  1.2623  0.7167
19188TIP3   OH278978   2.463   2.587   5.298 -0.9498 -0.2580  0.7277
19188TIP3    H178979   2.447   2.622   5.386 -0.2551 -0.2912  0.8720
19188TIP3    H278980   2.467   2.492   5.311 -1.7914 -0.3374  0.5000
19189TIP3   OH278981   2.817   3.961  13.991 -0.1042 -1.0903 -0.1325
19189TIP3    H178982   2.869   3.891  13.952  1.0892 -1.2574  1.6416
19189TIP3    H278983   2.753   3.915  14.047 -1.9961 -0.8761 -1.9854
19190TIP3   OH278984   2.756   2.025   3.168  0.1031 -0.3633 -0.2927
19190TIP3    H178985   2.698   2.034   3.093  0.6183  0.6103 -0.5922
19190TIP3    H278986   2.818   1.956   3.142  0.1908 -0.1322 -0.7142
19191TIP3   OH278987   2.774   4.369  11.880  0.1309  0.2328  0.4840
19191TIP3    H178988   2.840   4.302  11.862 -0.5462 -0.0441 -1.2722
19191TIP3    H278989   2.694   4.333  11.841 -0.7337  1.1510  1.3764
19192TIP3   OH278990   5.144   6.175  14.859  0.0057 -0.3088  0.0482
19192TIP3    H178991   5.201   6.099  14.842 -2.7370 -2.1245 -1.8213
19192TIP3    H278992   5.152   6.229  14.780 -0.5432 -0.3674 -0.0493
19193TIP3   OH278993   2.053   6.068   0.095 -0.5284  0.1357  0.3954
19193TIP3    H178994   2.148   6.068   0.101 -0.6152 -0.0309  3.2061
19193TIP3    H278995   2.032   5.995   0.036  1.0517 -0.4144  0.4765
19194TIP3   OH278996   2.496   2.982  12.787 -0.1546 -0.2575  0.4837
19194TIP3    H178997   2.439   2.923  12.739  0.2034 -0.3059  0.1112
19194TIP3    H278998   2.577   2.984  12.735 -0.1248  0.4687  0.5511
19195TIP3   OH278999   5.834   5.702   1.765 -0.3660  0.1283 -0.3056
19195TIP3    H179000   5.856   5.787   1.804 -3.0156  0.1883  1.3429
19195TIP3    H279001   5.784   5.724   1.687 -0.9341  0.0955  0.0462
19196TIP3   OH279002   2.378   1.613   3.126  0.5613 -0.0025 -0.0017
19196TIP3    H179003   2.370   1.544   3.192 -0.2273  1.1670  1.1654
19196TIP3    H279004   2.423   1.684   3.170 -0.8771  1.1890 -0.3626
19197TIP3   OH279005   0.001   2.408   4.577 -0.0851 -0.0342 -0.2819
19197TIP3    H179006  -0.003   2.375   4.666 -0.1362  1.2931  0.2236
19197TIP3    H279007  -0.072   2.470   4.570  1.5330  1.9680 -0.3413
19198TIP3   OH279008   4.788   3.617  13.810 -0.1696  0.0873 -0.1636
19198TIP3    H179009   4.735   3.544  13.780 -1.3688  1.0672 -0.4912
19198TIP3    H279010   4.761   3.632  13.901  0.0027  0.1784 -0.1260
19199TIP3   OH279011   1.146   1.062  16.360 -0.1452  0.2356  0.5548
19199TIP3    H179012   1.096   1.015  16.427 -0.4271  1.2449  1.0813
19199TIP3    H279013   1.183   0.993  16.305 -0.4390 -0.6012  1.3681
19200TIP3   OH279014   0.619   2.768   5.840  0.2718 -0.1839  0.0815
19200TIP3    H179015   0.668   2.766   5.922  2.0548 -0.1344 -0.9298
19200TIP3    H279016   0.542   2.821   5.859  1.2500  0.8172  1.3987
19201TIP3   OH279017   2.935   0.465   0.630  0.0691 -0.5488  0.4581
19201TIP3    H179018   2.936   0.391   0.691 -2.7949 -2.4939 -1.5680
19201TIP3    H279019   3.012   0.452   0.575  0.5725 -0.9878  1.2601
19202TIP3   OH279020   3.871   3.069  15.457 -0.5376  0.3578 -0.0584
19202TIP3    H179021   3.907   3.051  15.370 -0.5987 -0.0991  0.0130
19202TIP3    H279022   3.793   3.013  15.463 -1.1443  1.1688 -0.1233
19203TIP3   OH279023   4.773   2.676  11.167  0.5137  0.4148  0.3926
19203TIP3    H179024   4.793   2.762  11.206  1.4327  0.0584  0.7303
19203TIP3    H279025   4.682   2.659  11.194 -0.5795  2.3470 -1.6689
19204TIP3   OH279026   0.018   0.898   5.697  0.1093  0.1862 -0.2285
19204TIP3    H179027   0.109   0.892   5.669 -0.1130  0.0158 -0.9433
19204TIP3    H279028   0.022   0.899   5.792  0.9359  1.3881 -0.2477
19205TIP3   OH279029   5.810   0.278   3.800  0.0641 -0.2653 -0.6217
19205TIP3    H179030   5.825   0.189   3.831 -1.6972 -0.1741  0.7083
19205TIP3    H279031   5.802   0.330   3.880 -1.0123  0.6853 -1.3073
19206TIP3   OH279032   0.188   0.685  15.974 -0.0775 -0.5414 -0.2699
19206TIP3    H179033   0.237   0.606  15.952  2.7413  0.7141  1.0886
19206TIP3    H279034   0.139   0.661  16.053 -0.3887 -1.3008 -0.6750
19207TIP3   OH279035   6.629   6.676   0.001 -0.3743 -0.3665  0.3431
19207TIP3    H179036   6.676   6.730   0.064  0.1414  1.2050 -1.3149
19207TIP3    H279037   6.539   6.672   0.034 -0.4542  1.6364  0.4639
19208TIP3   OH279038   3.179   2.039   4.355  0.1040 -0.0193  0.5939
19208TIP3    H179039   3.260   2.039   4.305 -0.8230 -1.5615 -1.0203
19208TIP3    H279040   3.137   2.122   4.332  1.5123  1.1633  2.0532
19209TIP3   OH279041   6.567   6.048   0.415  0.0191  0.7708 -0.2397
19209TIP3    H179042   6.645   6.098   0.441  2.6775 -2.2597 -1.7481
19209TIP3    H279043   6.554   5.985   0.485 -0.8459  0.9874 -0.1962
19210TIP3   OH279044   5.432   6.392  13.937 -0.1916 -0.0401 -0.5180
19210TIP3    H179045   5.523   6.366  13.953  0.0538  0.4109 -1.0932
19210TIP3    H279046   5.380   6.315  13.958  0.2692 -0.0953  0.4450
19211TIP3   OH279047   2.946   0.888  15.031 -0.3234 -0.1664 -0.2652
19211TIP3    H179048   2.941   0.980  15.054 -0.9651 -0.1365 -0.5166
19211TIP3    H279049   3.039   0.867  15.034 -0.1946  0.4445 -0.0387
19212TIP3   OH279050   3.422   2.470  16.656 -0.8437 -0.2636  0.0766
19212TIP3    H179051   3.424   2.559  16.622 -1.1573 -1.0446 -2.2104
19212TIP3    H279052   3.475   2.473  16.735  1.2553  1.4424 -1.2898
19213TIP3   OH279053   2.639   0.159  12.123  0.4627  0.4771  0.4219
19213TIP3    H179054   2.728   0.192  12.112  0.9621 -1.3173 -1.4679
19213TIP3    H279055   2.601   0.162  12.036 -1.2203  0.8345  1.1349
19214TIP3   OH279056   5.287   3.743   2.380 -0.1311  0.2479 -0.2574
19214TIP3    H179057   5.238   3.677   2.428 -1.3865  1.7847  0.6768
19214TIP3    H279058   5.368   3.699   2.355 -0.9701 -1.6580  0.2073
19215TIP3   OH279059   4.740   1.262   2.548  0.0490 -0.3284 -0.4708
19215TIP3    H179060   4.740   1.236   2.640  1.3335 -0.7810 -0.5856
19215TIP3    H279061   4.683   1.198   2.505  1.5344 -1.7370 -0.4085
19216TIP3   OH279062   3.050   2.464   0.097  0.2542  0.0909  0.0506
19216TIP3    H179063   3.119   2.522   0.066  1.7899 -1.6480 -0.0187
19216TIP3    H279064   3.069   2.453   0.191  0.2576 -0.6111 -0.0243
19217TIP3   OH279065   2.397   4.209   5.518 -0.3155 -0.6785 -0.3223
19217TIP3    H179066   2.439   4.230   5.435  0.0796 -0.3348 -0.0398
19217TIP3    H279067   2.470   4.192   5.578 -0.5645  0.0584  0.2049
19218TIP3   OH279068   0.110   2.289  13.447  0.1536 -0.6121  0.3324
19218TIP3    H179069   0.138   2.271  13.537 -3.0001  0.5006  1.7044
19218TIP3    H279070   0.139   2.213  13.397  0.0752 -2.3729  2.7779
19219TIP3   OH279071   0.828   2.625  14.079  0.2941  0.3770  0.2496
19219TIP3    H179072   0.819   2.716  14.110 -2.6731  0.3990 -0.3822
19219TIP3    H279073   0.824   2.632  13.984  0.6650 -0.3906  0.1751
19220TIP3   OH279074   6.626   0.815  15.473  0.6461  0.2032  0.5203
19220TIP3    H179075   6.622   0.823  15.568 -0.9201 -1.6806  0.6649
19220TIP3    H279076   6.631   0.720  15.457  0.1030  0.4390 -1.2814
19221TIP3   OH279077   5.533   0.109   3.172 -0.0246 -0.1547 -0.4086
19221TIP3    H179078   5.574   0.143   3.252  0.1519  0.7058 -0.8570
19221TIP3    H279079   5.605   0.073   3.121  0.2096  1.3866 -1.2109
19222TIP3   OH279080   1.344   5.873   6.112 -0.1363 -0.6249  0.2358
19222TIP3    H179081   1.294   5.953   6.128 -0.9885 -1.1096  0.0348
19222TIP3    H279082   1.294   5.804   6.156  0.4692 -1.0926  0.2120
19223TIP3   OH279083   1.309   0.344   2.093  0.5147 -0.5391  0.4150
19223TIP3    H179084   1.335   0.273   2.152 -0.1557 -0.6854  0.5514
19223TIP3    H279085   1.318   0.423   2.146  0.1959 -0.6409  0.6277
19224TIP3   OH279086   5.933   3.094  14.608  0.2510 -0.0307  0.5185
19224TIP3    H179087   5.845   3.062  14.631  0.1020 -1.1296 -1.3159
19224TIP3    H279088   5.988   3.067  14.681 -0.5180 -1.5562  0.5799
19225TIP3   OH279089   1.805   2.433  11.037 -0.1679  0.2334  0.2249
19225TIP3    H179090   1.801   2.427  10.941  1.3362 -0.7429  0.1888
19225TIP3    H279091   1.714   2.434  11.064 -0.6597 -1.3168 -1.1514
19226TIP3   OH279092   2.859   6.064  13.763  0.0549  0.0015  0.8524
19226TIP3    H179093   2.892   6.138  13.712 -0.7066  0.2860  0.7434
19226TIP3    H279094   2.916   5.991  13.741 -1.2491 -0.3559 -1.7702
19227TIP3   OH279095   2.659   6.133  14.906  0.0904  0.5920  0.2897
19227TIP3    H179096   2.699   6.057  14.948  0.3058 -0.5939 -1.9049
19227TIP3    H279097   2.728   6.169  14.851 -0.9204  0.3739 -1.1916
19228TIP3   OH279098   6.552   6.035   6.223  0.8494 -0.0230  0.4793
19228TIP3    H179099   6.612   6.018   6.151 -0.2219  1.5548 -0.8597
19228TIP3    H279100   6.532   5.948   6.259  0.4035 -1.0189 -1.9908
19229TIP3   OH279101   2.685   2.976   0.871 -0.0531 -0.6639 -0.1735
19229TIP3    H179102   2.660   2.974   0.779 -0.4583  1.4823 -0.1570
19229TIP3    H279103   2.674   3.067   0.897 -2.7257 -1.6172  2.7282
19230TIP3   OH279104   6.082   3.868  15.501 -0.6140 -0.1671 -0.2899
19230TIP3    H179105   6.045   3.827  15.579 -1.9229 -0.4521 -1.0339
19230TIP3    H279106   6.153   3.923  15.534 -0.0090 -1.6160  0.9136
19231TIP3   OH279107   2.710   0.868  12.403  1.3515  0.6439 -0.2256
19231TIP3    H179108   2.721   0.851  12.310 -3.0349 -0.8496 -0.6927
19231TIP3    H279109   2.678   0.958  12.408  1.2398  0.6040 -0.2144
19232TIP3   OH279110   2.614   6.774   4.140  0.4012  0.2254  0.3415
19232TIP3    H179111   2.636   6.780   4.233  1.0564 -0.3967  0.2342
19232TIP3    H279112   2.673   6.707   4.106 -0.3291 -0.0570 -0.3786
19233TIP3   OH279113   5.149   4.656   6.074  0.6340 -0.0790 -0.0180
19233TIP3    H179114   5.086   4.584   6.081  0.8326 -0.2116  0.4640
19233TIP3    H279115   5.107   4.720   6.016  0.4558 -0.5795 -0.4447
19234TIP3   OH279116   2.149   6.314  11.703 -0.2377 -0.7070  0.1682
19234TIP3    H179117   2.229   6.283  11.660  1.7530  1.6850  1.8382
19234TIP3    H279118   2.082   6.311  11.634  1.4640 -1.9559 -1.5469
19235TIP3   OH279119   0.912   6.100   3.269  0.0945 -0.1493 -0.0072
19235TIP3    H179120   0.839   6.162   3.269 -0.4276 -0.6459 -2.8717
19235TIP3    H279121   0.872   6.015   3.252  1.1773 -0.7592  0.3951
19236TIP3   OH279122   0.753   2.039   3.951  0.7367  0.0514 -0.3954
19236TIP3    H179123   0.835   2.007   3.989  0.0723 -1.1434  0.0763
19236TIP3    H279124   0.703   2.071   4.026 -0.0171 -1.0451 -0.4081
19237TIP3   OH279125   3.381   3.017  16.572 -0.1233  0.1262  0.1816
19237TIP3    H179126   3.316   3.058  16.628 -0.2431 -1.0358  0.9205
19237TIP3    H279127   3.394   2.929  16.609  0.2114 -0.4711 -1.2723
19238TIP3   OH279128   1.478   3.808  11.222  0.3533  0.1725 -0.0360
19238TIP3    H179129   1.513   3.896  11.235 -2.2841  1.1459  1.4714
19238TIP3    H279130   1.525   3.754  11.286  0.5952  0.9533  0.4692
19239TIP3   OH279131   2.477   0.140  17.257  0.8327  0.2062  0.3050
19239TIP3    H179132   2.511   0.069  17.313  0.6535 -0.4300 -0.3826
19239TIP3    H279133   2.495   0.220  17.307  0.8136 -0.3350  1.2124
19240TIP3   OH279134   1.803   3.113  16.392 -0.0781 -0.4727  0.2664
19240TIP3    H179135   1.829   3.198  16.429 -1.3722  0.6322 -1.2277
19240TIP3    H279136   1.829   3.049  16.458 -0.2949  1.1957  2.0442
19241TIP3   OH279137   5.259   5.408   2.026 -0.0184 -0.3841  0.0353
19241TIP3    H179138   5.326   5.387   1.962 -1.2535 -0.6033 -1.2280
19241TIP3    H279139   5.258   5.333   2.085 -0.9055 -1.6314 -1.4817
19242TIP3   OH279140   4.142   1.742  13.898 -0.1513  0.1162 -0.9419
19242TIP3    H179141   4.161   1.732  13.805 -0.0210  1.6493 -1.1014
19242TIP3    H279142   4.163   1.657  13.936  3.2638  0.4812 -1.7336
19243TIP3   OH279143   6.070   3.350  12.757 -0.4292  0.5701 -0.6145
19243TIP3    H179144   6.153   3.398  12.752  1.2559 -2.2355 -1.4369
19243TIP3    H279145   6.088   3.265  12.718 -2.6246 -1.6041  2.5539
19244TIP3   OH279146   1.487   3.733  15.014  0.0456  0.1079 -0.8583
19244TIP3    H179147   1.501   3.822  14.983  1.6475  0.3487  0.4636
19244TIP3    H279148   1.569   3.708  15.054 -0.1370 -2.2312 -1.7718
19245TIP3   OH279149   0.803   4.681   1.991 -0.0799 -0.2985 -0.0194
19245TIP3    H179150   0.759   4.635   2.063 -0.0489 -0.6643 -0.2272
19245TIP3    H279151   0.883   4.715   2.029 -0.1568 -0.3255  0.1678
19246TIP3   OH279152   2.373   4.089  10.680  0.2823  0.2494  0.1625
19246TIP3    H179153   2.383   4.024  10.611  2.2043  0.6886 -0.0327
19246TIP3    H279154   2.425   4.056  10.752  0.7169  1.2135  0.3137
19247TIP3   OH279155   1.353   2.370   2.211 -1.2466 -0.0539 -0.6845
19247TIP3    H179156   1.323   2.429   2.141 -1.7728  1.3973  0.6966
19247TIP3    H279157   1.400   2.300   2.165 -1.5559  0.8535 -2.4775
19248TIP3   OH279158   6.242   6.424   3.179  0.4112 -0.0405 -0.3925
19248TIP3    H179159   6.321   6.453   3.224 -0.2777  3.4643 -1.1687
19248TIP3    H279160   6.172   6.438   3.243  0.0408 -0.0973 -0.7838
19249TIP3   OH279161   5.848   2.407  14.422 -0.0994  0.1840 -0.2866
19249TIP3    H179162   5.875   2.438  14.335 -0.0874 -0.2665 -0.4472
19249TIP3    H279163   5.923   2.425  14.479 -0.4096  1.2140 -0.1948
19250TIP3   OH279164   5.256   1.879  15.463 -0.5007 -0.0845 -0.0976
19250TIP3    H179165   5.312   1.850  15.391  0.6961  0.0833  0.7326
19250TIP3    H279166   5.313   1.932  15.518 -0.7514 -1.9455  2.1315
19251TIP3   OH279167   2.864   5.457  13.747 -0.3444 -0.0495 -0.3022
19251TIP3    H179168   2.865   5.411  13.663  0.9900  0.1542 -0.4117
19251TIP3    H279169   2.838   5.546  13.725  0.8125  0.2219 -0.6356
19252TIP3   OH279170   4.317   1.541   4.533 -0.5008 -0.2596  0.1613
19252TIP3    H179171   4.395   1.581   4.496 -0.9308  0.3273 -0.1316
19252TIP3    H279172   4.244   1.595   4.502 -1.0481 -0.9248  0.2414
19253TIP3   OH279173   0.619   5.173   1.362 -0.6907  0.3201 -0.0408
19253TIP3    H179174   0.688   5.239   1.362 -0.5017  0.1328  0.5655
19253TIP3    H279175   0.645   5.111   1.294 -0.4543  0.4483 -0.0682
19254TIP3   OH279176   2.761   0.139   2.598 -0.2226  0.8932 -0.2135
19254TIP3    H179177   2.853   0.160   2.583 -0.7047  2.4511 -1.2313
19254TIP3    H279178   2.745   0.060   2.546  0.0093  1.9301 -1.9464
19255TIP3   OH279179   0.170   3.353  11.244 -0.1869 -0.1950  0.1542
19255TIP3    H179180   0.174   3.341  11.149  0.7619  0.9690  0.0244
19255TIP3    H279181   0.087   3.398  11.259 -0.1284  0.0338 -0.1799
19256TIP3   OH279182   6.608   1.562   3.390 -0.5064  0.1977 -0.4263
19256TIP3    H179183   6.570   1.576   3.477 -0.2144 -0.9085 -0.1066
19256TIP3    H279184   6.613   1.650   3.352 -0.7273  0.6918  0.6391
19257TIP3   OH279185   0.375   5.050  11.017 -0.0889  0.3641  0.0367
19257TIP3    H179186   0.385   4.960  10.988  2.1026  1.2495 -2.2793
19257TIP3    H279187   0.397   5.048  11.110 -1.6924 -1.6796  0.4429
19258TIP3   OH279188   2.206   4.413   4.537  0.5400 -0.3085 -0.4175
19258TIP3    H179189   2.116   4.441   4.554 -0.4637 -3.7616  0.8632
19258TIP3    H279190   2.203   4.373   4.450  1.4318  1.5407 -1.3353
19259TIP3   OH279191   0.635   0.779  15.771 -0.5644 -0.2988  0.5638
19259TIP3    H179192   0.656   0.690  15.800 -0.1586 -0.0539  1.0359
19259TIP3    H279193   0.551   0.770  15.726 -0.1214 -1.0602 -0.1240
19260TIP3   OH279194   1.754   4.774  16.809 -0.0865  0.0602  0.2578
19260TIP3    H179195   1.780   4.785  16.717 -1.3298 -0.7228 -0.2051
19260TIP3    H279196   1.792   4.689  16.834 -0.1118  0.0728  0.3376
19261TIP3   OH279197   1.485   5.244   2.554  0.3577  0.5583 -0.3670
19261TIP3    H179198   1.401   5.245   2.508  0.2817  1.2310 -0.2229
19261TIP3    H279199   1.483   5.164   2.606 -0.2780  0.6746 -0.2081
19262TIP3   OH279200   5.683   3.571   4.401  0.0359  0.3577  0.1412
19262TIP3    H179201   5.677   3.665   4.416 -1.1049  0.1170  1.4462
19262TIP3    H279202   5.635   3.556   4.320  0.4288  0.9293 -0.1962
19263TIP3   OH279203   5.479   5.355  15.980  0.1334 -0.6411 -0.4005
19263TIP3    H179204   5.429   5.399  15.911  0.0252 -1.9800 -1.2045
19263TIP3    H279205   5.518   5.427  16.031 -1.9782  0.4490 -0.1972
19264TIP3   OH279206   1.238   2.026  11.674  0.2178  0.0927  0.3030
19264TIP3    H179207   1.271   2.019  11.585  0.8901 -0.0207  0.5525
19264TIP3    H279208   1.275   1.950  11.720  0.2969  0.4217  0.7983
19265TIP3   OH279209   1.250   0.813   4.588 -0.0112  0.3445 -0.2340
19265TIP3    H179210   1.263   0.781   4.498 -0.7017 -1.0036  0.1235
19265TIP3    H279211   1.302   0.754   4.642 -0.0210  0.8283  0.3061
19266TIP3   OH279212   3.345   2.689  12.246 -1.0884 -0.0878  0.1412
19266TIP3    H179213   3.365   2.708  12.154 -2.1494 -1.7401 -0.4703
19266TIP3    H279214   3.376   2.599  12.259  1.2626  0.8827  2.1350
19267TIP3   OH279215   3.166   0.186  15.462  0.3007  0.4630 -0.4460
19267TIP3    H179216   3.093   0.135  15.496 -0.8701  2.2556 -0.0917
19267TIP3    H279217   3.216   0.125  15.408 -0.6411 -1.1703  0.4611
19268TIP3   OH279218   1.270   2.639   6.579  0.4738 -0.0129  0.3658
19268TIP3    H179219   1.237   2.648   6.490  0.5326 -1.7510  0.1272
19268TIP3    H279220   1.360   2.607   6.569  0.3709 -0.5479  1.0369
19269TIP3   OH279221   3.138   3.100  16.040  0.1250  0.1480  0.0589
19269TIP3    H179222   3.147   3.108  16.135 -0.7924 -0.8144  0.2379
19269TIP3    H279223   3.100   3.184  16.013 -1.3238 -0.2438  0.7882
19270TIP3   OH279224   4.815   2.139  13.059 -0.0496  0.4858  0.3163
19270TIP3    H179225   4.812   2.076  13.132  0.1575 -0.4161 -0.4285
19270TIP3    H279226   4.835   2.085  12.983  1.4910  1.6437 -0.1377
19271TIP3   OH279227   2.965   6.126   5.964  0.1462 -0.1877  0.7228
19271TIP3    H179228   2.929   6.213   5.947 -0.5447 -0.0005  2.8352
19271TIP3    H279229   2.922   6.070   5.899 -2.9109  0.3217  2.0969
19272TIP3   OH279230   4.011   3.813  15.891  0.2045  0.3953  0.0994
19272TIP3    H179231   3.997   3.735  15.837  0.0349 -0.6209  1.5778
19272TIP3    H279232   4.084   3.791  15.948  1.1959  1.9156 -0.4952
19273TIP3   OH279233   1.085   6.313  14.595 -0.0965 -0.2918  0.1113
19273TIP3    H179234   1.074   6.302  14.501  0.9657  1.3918 -0.2386
19273TIP3    H279235   1.147   6.244  14.620  0.5779  0.0284 -0.6435
19274TIP3   OH279236   0.349   4.080  17.058  0.2714  0.3203 -0.2569
19274TIP3    H179237   0.379   4.139  16.989 -1.0497  0.2886 -0.8763
19274TIP3    H279238   0.292   4.017  17.014 -0.0887 -0.0804  0.7510
19275TIP3   OH279239   6.252   4.253  15.627 -0.6057 -0.7105  0.2453
19275TIP3    H179240   6.238   4.254  15.533 -0.9494 -1.7217  0.2721
19275TIP3    H279241   6.330   4.307  15.641 -0.1761 -1.0829 -0.6826
19276TIP3   OH279242   3.482   2.748  13.805  0.2088  0.1690 -0.0589
19276TIP3    H179243   3.405   2.769  13.752  0.4119  0.1317 -0.3719
19276TIP3    H279244   3.448   2.695  13.877 -0.0144 -0.0990 -0.3576
19277TIP3   OH279245   3.583   5.759  10.813  0.2543  0.0848  0.0272
19277TIP3    H179246   3.616   5.846  10.838  0.2699 -0.3640  1.6747
19277TIP3    H279247   3.505   5.777  10.761  1.6355  1.1141 -1.8368
19278TIP3   OH279248   0.450   5.442   2.850 -0.5274  0.0582 -0.2109
19278TIP3    H179249   0.382   5.458   2.915 -1.0172  0.5111 -0.8317
19278TIP3    H279250   0.445   5.516   2.790 -0.4864 -0.6483 -1.1135
19279TIP3   OH279251   1.931   6.087  11.750  0.1733 -0.3753 -0.2057
19279TIP3    H179252   1.983   6.139  11.812 -0.1886 -0.4777  0.1849
19279TIP3    H279253   1.892   6.153  11.692 -1.7773 -0.0239  1.4109
19280TIP3   OH279254   2.281   4.576   3.444  0.4757 -0.5633 -0.2825
19280TIP3    H179255   2.353   4.614   3.495 -1.1037 -0.4562  2.0255
19280TIP3    H279256   2.280   4.628   3.363  2.7647 -0.3935 -0.2818
19281TIP3   OH279257   0.267   6.545  13.496  0.0737 -0.1205  0.0992
19281TIP3    H179258   0.339   6.486  13.519 -0.2012  0.4653  2.8597
19281TIP3    H279259   0.283   6.569  13.405  2.1929 -1.6239  0.0124
19282TIP3   OH279260   1.269   4.713  11.258 -0.5263 -0.4330 -0.0022
19282TIP3    H179261   1.218   4.749  11.185  1.5568  2.6075 -0.1255
19282TIP3    H279262   1.206   4.659  11.306 -2.8343  0.1281 -2.1650
19283TIP3   OH279263   6.421   0.371  16.239  0.4667  0.0425 -0.7922
19283TIP3    H179264   6.449   0.449  16.191 -1.5655  2.3026  1.3888
19283TIP3    H279265   6.326   0.380  16.245  0.1075 -2.8296 -0.6679
19284TIP3   OH279266   4.069   0.794  14.805 -0.1433  0.1605 -0.6702
19284TIP3    H179267   4.146   0.807  14.861 -1.9612  0.1663  2.0366
19284TIP3    H279268   4.055   0.699  14.807 -0.4119  0.1956 -0.8817
19285TIP3   OH279269   1.294   2.119  15.929  0.3611  0.2438 -0.1588
19285TIP3    H179270   1.300   2.131  15.834 -1.4455  0.9545 -0.2242
19285TIP3    H279271   1.299   2.207  15.965 -0.0580  0.0811  0.3172
19286TIP3   OH279272   3.810   4.299  12.363 -0.0573 -0.0167 -0.3912
19286TIP3    H179273   3.828   4.373  12.422  0.1286 -1.1565  1.0384
19286TIP3    H279274   3.715   4.299  12.352 -0.3737 -1.0640  1.7372
19287TIP3   OH279275   5.903   1.537   4.772  0.9385 -0.3781  0.2815
19287TIP3    H179276   5.842   1.550   4.844  0.3458 -0.0783 -0.2672
19287TIP3    H279277   5.959   1.465   4.801 -0.7224 -1.7929  0.1250
19288TIP3   OH279278   1.179   1.113  13.765  0.8942 -0.1034 -0.1683
19288TIP3    H179279   1.097   1.160  13.755  0.9034  0.1349  0.7893
19288TIP3    H279280   1.162   1.026  13.728 -0.2716 -0.5693  1.3572
19289TIP3   OH279281   0.167   0.335   2.912 -0.2872  0.7597 -0.4451
19289TIP3    H179282   0.095   0.305   2.968  0.5163 -1.6575 -0.5590
19289TIP3    H279283   0.208   0.254   2.882  2.0016  2.0656 -1.0365
19290TIP3   OH279284   4.252   1.924  14.062  0.3627  0.1426 -0.5185
19290TIP3    H179285   4.180   1.876  14.021  1.5062  0.5454 -3.1713
19290TIP3    H279286   4.323   1.859  14.069  1.2407  0.8587 -2.2584
19291TIP3   OH279287   4.863   4.533   4.547  0.3171 -0.3736 -0.3464
19291TIP3    H179288   4.881   4.627   4.541 -1.0469  0.0575  1.6280
19291TIP3    H279289   4.777   4.522   4.505  1.3530 -1.1420 -2.4490
19292TIP3   OH279290   6.480   2.638  11.540 -0.1056 -0.5185  0.7667
19292TIP3    H179291   6.573   2.659  11.555 -0.3805  1.8415 -0.3594
19292TIP3    H279292   6.480   2.585  11.460  0.3573 -1.9433  1.6791
19293TIP3   OH279293   1.230   1.385  10.762 -0.1491  0.2094  0.1930
19293TIP3    H179294   1.307   1.418  10.716  1.1993 -1.3945  1.1886
19293TIP3    H279295   1.246   1.403  10.854 -0.2586 -1.4182  0.5647
19294TIP3   OH279296   4.337   2.652  15.592  0.0366 -0.4887 -0.6884
19294TIP3    H179297   4.339   2.679  15.501  0.1455  0.4604 -0.4190
19294TIP3    H279298   4.392   2.717  15.638 -1.9142  0.5105  0.3848
19295TIP3   OH279299   2.609   3.222  14.521 -0.0827 -0.1014  0.4084
19295TIP3    H179300   2.542   3.157  14.504 -1.5829  1.7995 -1.4259
19295TIP3    H279301   2.650   3.194  14.603 -1.5125 -2.5839  0.3425
19296TIP3   OH279302   6.120   2.854   0.615  0.0830 -0.4752 -0.0912
19296TIP3    H179303   6.115   2.873   0.521 -0.3745 -0.8077 -0.1356
19296TIP3    H279304   6.127   2.941   0.656  1.1054 -0.3689 -0.4729
19297TIP3   OH279305   6.222   3.313  16.958  0.6965  0.1938 -0.4313
19297TIP3    H179306   6.318   3.309  16.964  0.7960  1.2177 -1.0562
19297TIP3    H279307   6.195   3.222  16.947  1.3738 -0.4167  2.2937
19298TIP3   OH279308   5.146   0.645   3.201 -0.0043  0.1510 -0.7187
19298TIP3    H179309   5.052   0.639   3.183  0.2042 -1.1753 -1.5090
19298TIP3    H279310   5.152   0.701   3.279 -1.4504  0.1731 -0.5920
19299TIP3   OH279311   3.031   4.068   4.576  0.5008 -0.1287  0.2164
19299TIP3    H179312   2.969   4.021   4.631  0.6963 -0.1379  0.4282
19299TIP3    H279313   3.117   4.036   4.603  0.5735 -0.4356 -0.3745
19300TIP3   OH279314   6.287   0.512   1.065  0.0264 -0.2592  0.5425
19300TIP3    H179315   6.366   0.461   1.045  0.1870  0.7611 -1.7585
19300TIP3    H279316   6.216   0.448   1.066  0.3047 -0.6797 -1.7536
19301TIP3   OH279317   2.168   1.065  13.821 -0.0488  0.1782 -0.3111
19301TIP3    H179318   2.186   1.057  13.915 -0.4730  1.3399 -0.1125
19301TIP3    H279319   2.093   1.007  13.806 -0.7031  0.8473  0.3061
19302TIP3   OH279320   6.616   2.383   1.264  0.5854 -0.5438 -0.1163
19302TIP3    H179321   6.539   2.341   1.224  1.5590 -1.0324 -1.5688
19302TIP3    H279322   6.626   2.465   1.216  0.9811 -0.4957  0.0462
19303TIP3   OH279323   1.580   2.921  15.919  0.1258 -0.0629  0.5648
19303TIP3    H179324   1.614   2.845  15.871 -0.7395  0.6464 -1.2538
19303TIP3    H279325   1.536   2.883  15.994  0.7015 -1.2911  0.3101
19304TIP3   OH279326   1.166   3.527  11.943  0.0279  0.2524  0.0812
19304TIP3    H179327   1.191   3.484  11.861  1.4589 -2.0832  1.6389
19304TIP3    H279328   1.070   3.534  11.938  0.0937  0.3780 -1.8362
19305TIP3   OH279329   4.109   3.823   2.689 -0.4716 -0.0571  0.1319
19305TIP3    H179330   4.161   3.823   2.769  0.3145 -1.0662 -0.3601
19305TIP3    H279331   4.119   3.735   2.653 -2.1406 -0.1469 -0.2337
19306TIP3   OH279332   4.045   1.256  12.331  0.2452 -0.0305  0.1623
19306TIP3    H179333   3.980   1.273  12.262 -0.5055 -0.7689  0.6799
19306TIP3    H279334   4.069   1.343  12.363 -0.2786  0.2585 -0.2160
19307TIP3   OH279335   2.823   5.063   1.279 -0.1459  0.9521  0.1445
19307TIP3    H179336   2.747   5.010   1.305 -0.3400  1.7064  1.1652
19307TIP3    H279337   2.852   5.104   1.360  1.7434  0.2010 -0.1086
19308TIP3   OH279338   3.209   6.713   2.793 -0.2766 -0.7659  0.6710
19308TIP3    H179339   3.299   6.693   2.818  0.8992  0.6578 -1.9492
19308TIP3    H279340   3.187   6.792   2.843  1.5280  1.2411 -1.4008
19309TIP3   OH279341   0.835   1.750  10.978  0.0462 -0.1610  0.2226
19309TIP3    H179342   0.763   1.812  10.991 -0.5382 -0.9428  0.7694
19309TIP3    H279343   0.794   1.671  10.944  0.5095 -0.9060  1.3287
19310TIP3   OH279344   3.988   2.752  15.461 -0.3916 -0.0695  0.2057
19310TIP3    H179345   3.908   2.777  15.415 -0.0982 -0.8533 -0.7486
19310TIP3    H279346   4.059   2.786  15.406 -0.0465  0.2629  0.8377
19311TIP3   OH279347   1.384   2.896   1.279 -0.1364  0.5099  0.2496
19311TIP3    H179348   1.451   2.963   1.290  1.6199 -0.6410 -2.5132
19311TIP3    H279349   1.312   2.941   1.235 -0.2407  1.2174  1.1106
19312TIP3   OH279350   6.471   2.607  14.318 -0.4974  0.5353 -0.3657
19312TIP3    H179351   6.380   2.636  14.319 -0.4876  0.5977 -0.8995
19312TIP3    H279352   6.478   2.553  14.239 -0.2553 -0.0717  0.0622
19313TIP3   OH279353   4.790   5.802   4.467  0.8897 -0.0545 -0.0084
19313TIP3    H179354   4.804   5.752   4.387  2.0168  0.7051 -0.3130
19313TIP3    H279355   4.877   5.810   4.507  1.4667  4.2249 -1.5688
19314TIP3   OH279356   2.935   2.316   5.070  0.2454  0.8208 -0.2878
19314TIP3    H179357   2.902   2.285   4.986  0.3248  2.1423 -0.8173
19314TIP3    H279358   2.861   2.306   5.130  0.1390  0.0323 -0.5334
19315TIP3   OH279359   5.664   1.677   3.569 -0.0749 -0.2172 -0.0845
19315TIP3    H179360   5.603   1.739   3.530  0.6336  1.0542  0.7367
19315TIP3    H279361   5.741   1.678   3.511  0.3433  0.4726  0.4626
19316TIP3   OH279362   3.866   2.071   2.211 -0.4016 -0.5754 -0.1621
19316TIP3    H179363   3.906   2.103   2.292  0.3840 -0.7475 -0.4728
19316TIP3    H279364   3.928   2.095   2.142 -0.8059 -0.9075 -0.6475
19317TIP3   OH279365   0.914   1.886  16.534  0.7813  0.3257  0.3662
19317TIP3    H179366   0.976   1.941  16.583  0.6862  0.1123  0.7255
19317TIP3    H279367   0.832   1.936  16.535  0.7187  0.2167  0.6164
19318TIP3   OH279368   4.195   2.433  14.750  0.1457 -0.6553 -0.2939
19318TIP3    H179369   4.105   2.443  14.719  0.2949 -0.2460 -0.6154
19318TIP3    H279370   4.210   2.339  14.748 -0.0236 -0.6800 -0.9951
19319TIP3   OH279371   3.219   1.884   5.610  0.1256  0.8145 -0.1831
19319TIP3    H179372   3.129   1.852   5.605  0.5512 -0.4149 -0.3581
19319TIP3    H279373   3.211   1.972   5.647 -1.1960  1.0042 -0.8554
19320TIP3   OH279374   5.130   6.172   6.327 -0.3735  0.2316  0.1963
19320TIP3    H179375   5.194   6.209   6.266 -0.7624  0.8981  0.1800
19320TIP3    H279376   5.138   6.225   6.406 -0.8398  0.2687  0.2242
19321TIP3   OH279377   3.339   0.661  11.334 -0.2092 -0.1587 -0.3450
19321TIP3    H179378   3.315   0.732  11.395 -0.0124  0.2573 -0.7452
19321TIP3    H279379   3.323   0.698  11.247  0.0001 -0.5708 -0.5598
19322TIP3   OH279380   6.682   1.194  15.651 -0.7631  0.5601 -0.1858
19322TIP3    H179381   6.587   1.188  15.646 -0.8330  0.6770  0.8152
19322TIP3    H279382   6.704   1.265  15.590 -1.2267  0.0148 -1.0219
19323TIP3   OH279383   2.848   1.470  12.232  0.4865  0.7373 -0.7055
19323TIP3    H179384   2.900   1.511  12.302 -1.9078  0.2077  1.5245
19323TIP3    H279385   2.873   1.377  12.236  2.7830  1.1436 -2.9214
19324TIP3   OH279386   3.941   4.657   0.824 -0.0226  0.6267 -0.1861
19324TIP3    H179387   3.859   4.648   0.873 -0.4347  0.1212 -0.9637
19324TIP3    H279388   3.941   4.748   0.794 -0.2654  0.6451 -0.1327
19325TIP3   OH279389   4.694   2.579   0.049  0.1220  0.1220 -0.6350
19325TIP3    H179390   4.743   2.537   0.119 -1.2507 -1.7811 -0.7285
19325TIP3    H279391   4.752   2.576  -0.027  1.3216  1.4964  0.1930
19326TIP3   OH279392   4.643   6.172   6.264  0.5541 -0.7605  0.6836
19326TIP3    H179393   4.641   6.190   6.170  0.7892  2.8624  1.2248
19326TIP3    H279394   4.570   6.223   6.299  0.0631 -2.5549  2.4760
19327TIP3   OH279395   4.451   2.472   0.079 -0.5226 -0.0124 -0.2812
19327TIP3    H179396   4.481   2.388   0.045 -0.7954  0.3637 -1.5079
19327TIP3    H279397   4.527   2.530   0.075  0.0183 -0.5077  1.7643
19328TIP3   OH279398   6.299   2.019   0.792 -0.1704 -0.1228  0.0292
19328TIP3    H179399   6.387   2.023   0.828 -0.2528 -2.2461  0.5951
19328TIP3    H279400   6.261   2.105   0.812  0.8654 -0.0908  2.1769
19329TIP3   OH279401   4.258   0.014   3.623 -0.1120 -0.7721 -0.2472
19329TIP3    H179402   4.207   0.094   3.636 -0.0912 -0.7720 -0.1614
19329TIP3    H279403   4.239  -0.013   3.534  0.4708 -0.2473 -0.5435
19330TIP3   OH279404   2.735   2.493   4.303 -0.3702 -0.3883  0.4478
19330TIP3    H179405   2.807   2.531   4.252  0.8559 -2.3129  0.6197
19330TIP3    H279406   2.777   2.465   4.385 -1.4262 -1.0831  0.7651
19331TIP3   OH279407   6.132   3.900  10.444  0.5630 -0.4105  0.4615
19331TIP3    H179408   6.147   3.807  10.428 -0.4146 -0.4077 -0.6325
19331TIP3    H279409   6.180   3.944  10.373  0.6136 -0.1095  0.6817
19332TIP3   OH279410   0.042   2.116   2.523  0.2122 -0.3428  0.0845
19332TIP3    H179411  -0.038   2.090   2.479  0.2007 -1.1890  0.5897
19332TIP3    H279412   0.108   2.054   2.493  0.8115  0.6333 -0.6936
19333TIP3   OH279413   4.160   2.905   4.976  0.3403  0.0750 -0.5101
19333TIP3    H179414   4.141   2.831   4.917  2.0985 -1.2609  0.5217
19333TIP3    H279415   4.162   2.866   5.063  0.0847  1.6061  0.2017
19334TIP3   OH279416   5.972   6.459  14.200  0.0757  0.0938 -0.2761
19334TIP3    H179417   6.039   6.406  14.244 -0.1514  0.1870  0.1919
19334TIP3    H279418   5.992   6.549  14.227  0.0711  0.1756 -0.5487
19335TIP3   OH279419   0.700   1.027   4.146 -0.6072 -0.3138 -0.1539
19335TIP3    H179420   0.607   1.048   4.148 -0.5666 -0.1640  1.1911
19335TIP3    H279421   0.720   0.996   4.234  1.1266  1.9618  0.3594
19336TIP3   OH279422   5.633   2.727  11.864  0.3715  0.0668 -0.4060
19336TIP3    H179423   5.590   2.657  11.814  0.0435 -0.0563  0.0431
19336TIP3    H279424   5.566   2.759  11.923  1.0215 -0.4539  0.6411
19337TIP3   OH279425   5.585   2.713   5.426  0.5718 -0.4244 -0.7120
19337TIP3    H179426   5.642   2.662   5.483  2.6745  0.1416 -2.1958
19337TIP3    H279427   5.503   2.664   5.424  1.0748 -1.4699  1.2071
19338TIP3   OH279428   1.642   0.817  11.885 -0.0001  0.4483  0.6535
19338TIP3    H179429   1.720   0.790  11.836 -0.7302 -0.8512  0.1395
19338TIP3    H279430   1.639   0.756  11.959 -0.3964  0.6533  0.8066
19339TIP3   OH279431   2.391   4.589  15.024  0.0879 -0.1293  0.3056
19339TIP3    H179432   2.433   4.628  14.947 -2.9659  0.9377 -0.9657
19339TIP3    H279433   2.342   4.661  15.064 -1.6943 -1.5650  0.8260
19340TIP3   OH279434   2.346   3.910   0.795 -0.3326  0.0157 -0.1528
19340TIP3    H179435   2.330   3.824   0.834  2.4760  0.3647  2.0985
19340TIP3    H279436   2.377   3.891   0.707  0.6224 -1.3303  0.4409
19341TIP3   OH279437   5.150   1.628   5.275 -0.7026  0.4793  0.0444
19341TIP3    H179438   5.069   1.600   5.316  0.2643 -0.4126  1.4398
19341TIP3    H279439   5.205   1.550   5.272  0.9680  1.5272  1.3106
19342TIP3   OH279440   3.030   2.981  16.938  0.3257  0.1695 -0.6754
19342TIP3    H179441   3.065   2.951  17.022  0.4893 -0.7448 -1.0649
19342TIP3    H279442   2.959   3.040  16.962 -2.8039 -3.6076  0.2174
19343TIP3   OH279443   0.420   6.002   3.219  0.0380  0.4380 -0.0089
19343TIP3    H179444   0.349   5.946   3.253 -0.8245 -0.3070 -2.7526
19343TIP3    H279445   0.495   5.982   3.275 -1.1567 -0.9344  1.1975
19344TIP3   OH279446   0.314   4.047  16.676 -0.9465 -0.1409  0.0056
19344TIP3    H179447   0.387   4.004  16.632 -1.1006  0.3182 -0.7251
19344TIP3    H279448   0.277   4.106  16.610 -2.5624 -1.0434  0.0396
19345TIP3   OH279449   3.624   1.675   2.837  0.2645  0.5225 -0.1793
19345TIP3    H179450   3.555   1.731   2.802 -0.9375 -0.2386  0.8727
19345TIP3    H279451   3.618   1.595   2.787  2.3681  1.4438 -2.0843
19346TIP3   OH279452   2.890   0.390  10.919 -0.3631 -0.0679 -0.9338
19346TIP3    H179453   2.885   0.361  10.827  2.0592  0.1729 -1.1939
19346TIP3    H279454   2.953   0.462  10.918  0.4346 -0.6766  1.0627
19347TIP3   OH279455   1.892   6.180  15.164 -0.3740 -0.2893 -0.4398
19347TIP3    H179456   1.866   6.223  15.082 -1.0044  2.3075  1.0221
19347TIP3    H279457   1.987   6.190  15.167 -0.5995  1.9879  0.3304
19348TIP3   OH279458   6.533   0.889  13.771 -0.2585  0.4965  0.1284
19348TIP3    H179459   6.519   0.804  13.812 -1.7549  0.7943  0.2838
19348TIP3    H279460   6.579   0.941  13.837  0.6471 -0.1737  0.0378
19349TIP3   OH279461   4.462   2.276   3.573 -0.4994  0.1159  0.2204
19349TIP3    H179462   4.435   2.359   3.534 -1.3758 -0.2484  0.0140
19349TIP3    H279463   4.545   2.255   3.531  0.2076  1.3429  0.9647
19350TIP3   OH279464   0.407   1.868  13.484 -0.2716 -0.2574 -0.0674
19350TIP3    H179465   0.477   1.932  13.499  0.2680 -1.3630  2.9191
19350TIP3    H279466   0.432   1.824  13.403  1.3607  0.7672 -0.1798
19351TIP3   OH279467   0.070   6.579  11.370  0.4714  0.1761 -0.1142
19351TIP3    H179468   0.065   6.638  11.295 -0.6550  0.9970  0.5747
19351TIP3    H279469   0.053   6.492  11.332  1.2960  0.3826 -1.0031
19352TIP3   OH279470   0.361   6.570   4.348  0.2908 -0.6242  0.0909
19352TIP3    H179471   0.383   6.618   4.268 -0.5620  0.3726  0.4313
19352TIP3    H279472   0.446   6.548   4.387  0.7443  1.5860  0.4803
19353TIP3   OH279473   1.984   2.709   3.100  0.3068  0.3230  0.0485
19353TIP3    H179474   1.951   2.797   3.080 -0.8146 -0.1155 -0.1050
19353TIP3    H279475   1.910   2.665   3.142  0.7580 -0.6579 -0.1706
19354TIP3   OH279476   1.559   2.808   4.889  0.2770  0.1025  0.0932
19354TIP3    H179477   1.529   2.896   4.913  1.1370  0.9680 -1.7551
19354TIP3    H279478   1.554   2.807   4.794  0.4448 -1.8309  0.0711
19355TIP3   OH279479   0.432   2.608  16.089  0.0142 -0.5689 -0.3991
19355TIP3    H179480   0.495   2.675  16.117  0.1661 -1.4454  1.4950
19355TIP3    H279481   0.353   2.657  16.068  0.7660  0.3848 -1.1477
19356TIP3   OH279482   0.276   2.923  11.118 -0.2127 -0.8464  0.4248
19356TIP3    H179483   0.227   2.852  11.077 -1.9285  0.4590  0.0941
19356TIP3    H279484   0.214   2.965  11.177  0.5584  0.7157  0.1962
19357TIP3   OH279485   2.713   0.967   6.462 -0.6845  0.1226 -0.2298
19357TIP3    H179486   2.677   1.052   6.437 -0.8617  0.0461 -0.2380
19357TIP3    H279487   2.637   0.911   6.473 -0.5219 -0.4758 -1.8112
19358TIP3   OH279488   1.548   5.848   1.948 -0.1266 -0.7033  0.3916
19358TIP3    H179489   1.488   5.905   1.996  1.3131 -0.7242  2.3149
19358TIP3    H279490   1.634   5.888   1.959  0.2277 -0.1222 -3.1202
19359TIP3   OH279491   0.791   4.817   5.749 -0.4307 -0.6366 -0.7429
19359TIP3    H179492   0.745   4.864   5.678  0.9623  0.1085 -1.1795
19359TIP3    H279493   0.771   4.867   5.828 -0.2447 -0.2186 -0.9580
19360TIP3   OH279494   4.528   2.375  17.091  0.0688 -0.9101  0.2557
19360TIP3    H179495   4.507   2.460  17.053  2.3341 -0.3431  0.1404
19360TIP3    H279496   4.482   2.312  17.036 -2.5913  0.2427  1.0233
19361TIP3   OH279497   3.388   0.284  13.278  0.0547  0.3636  0.3143
19361TIP3    H179498   3.467   0.282  13.224  0.8146  0.6604  1.3926
19361TIP3    H279499   3.328   0.342  13.230 -0.0391 -0.9027 -1.1847
19362TIP3   OH279500   5.123   1.353   3.442  0.0072 -0.5612 -0.2551
19362TIP3    H179501   5.095   1.299   3.367 -1.1513  0.2706 -0.4419
19362TIP3    H279502   5.047   1.407   3.462  0.6741 -0.0159  0.8556
19363TIP3   OH279503   5.972   1.037   2.278 -0.0384 -0.4426  0.3509
19363TIP3    H179504   5.942   0.983   2.204 -2.5088  3.0858 -1.4939
19363TIP3    H279505   5.898   1.040   2.338 -0.1939  1.3081  0.1113
19364TIP3   OH279506   2.196   4.018   5.555  0.3234 -0.6789  0.4630
19364TIP3    H179507   2.170   4.038   5.645 -0.9119  1.8363 -0.3600
19364TIP3    H279508   2.275   4.070   5.541 -0.2937  0.0792 -0.3062
19365TIP3   OH279509   3.948   2.495   1.359 -0.2512 -0.4869  0.6474
19365TIP3    H179510   3.954   2.402   1.340 -1.8455 -0.3868 -0.5783
19365TIP3    H279511   3.896   2.500   1.439  1.1001 -0.6748  1.5668
19366TIP3   OH279512   3.074   0.501   5.535 -0.3308 -0.4797  0.3186
19366TIP3    H179513   3.024   0.583   5.540  0.5329  0.1642 -0.9947
19366TIP3    H279514   3.008   0.433   5.521 -1.0271  0.0408  1.0360
19367TIP3   OH279515   5.588   6.461  12.904 -0.0948 -0.1181 -0.2124
19367TIP3    H179516   5.657   6.518  12.939  0.1888 -0.1182 -0.7675
19367TIP3    H279517   5.635   6.384  12.871 -0.3720 -0.1681 -0.4902
19368TIP3   OH279518   2.167   2.006  16.109  0.0451  0.2424 -0.1063
19368TIP3    H179519   2.181   2.024  16.202  0.0929  2.5883 -0.5037
19368TIP3    H279520   2.098   1.940  16.108 -0.0795  0.2937  1.5969
19369TIP3   OH279521   3.684   6.351  11.360  0.0909  0.0859  0.1529
19369TIP3    H179522   3.764   6.307  11.334 -0.8214 -0.9799 -1.0001
19369TIP3    H279523   3.643   6.293  11.423  1.2287  1.6491  2.4567
19370TIP3   OH279524   3.579   3.849   1.576  0.1463  0.0966 -0.4199
19370TIP3    H179525   3.670   3.830   1.602 -0.6925 -0.3397  2.5613
19370TIP3    H279526   3.562   3.788   1.504  2.1948  0.1902 -1.0460
19371TIP3   OH279527   0.867   3.364  11.727 -0.2752 -0.1382  0.0238
19371TIP3    H179528   0.825   3.285  11.693  1.1348 -1.3000  0.8454
19371TIP3    H279529   0.925   3.332  11.796 -0.4091  1.7573  1.0645
19372TIP3   OH279530   2.333   5.745  14.076  0.2417  0.1223 -0.1761
19372TIP3    H179531   2.363   5.664  14.119 -2.7350 -0.4450  1.0416
19372TIP3    H279532   2.322   5.807  14.147 -1.9698  0.0986 -0.4555
19373TIP3   OH279533   1.222   4.921  12.137  1.2008  0.3902  0.1484
19373TIP3    H179534   1.141   4.879  12.110  0.6080  1.2355  0.5656
19373TIP3    H279535   1.194   4.992  12.195  2.2627  0.4410  0.6199
19374TIP3   OH279536   0.231   3.365  12.056 -0.0358  0.1796  0.0156
19374TIP3    H179537   0.313   3.320  12.035  0.2596  1.7034 -2.3691
19374TIP3    H279538   0.164   3.297  12.047  0.8132 -0.9056  1.2797
19375TIP3   OH279539   6.558   1.916  13.404  0.3763  0.3867  0.6519
19375TIP3    H179540   6.515   1.914  13.489 -0.1225 -0.7579  0.3997
19375TIP3    H279541   6.522   1.993  13.360 -2.0777 -0.9597  0.1512
19376TIP3   OH279542   1.816   4.041  12.806 -0.0107 -0.2934  0.5606
19376TIP3    H179543   1.884   4.094  12.765 -0.1559 -1.3594 -1.1727
19376TIP3    H279544   1.760   4.104  12.852 -0.5261  1.1917 -1.8952
19377TIP3   OH279545   3.194   4.434  12.902  0.3699 -1.2816 -0.1919
19377TIP3    H179546   3.223   4.347  12.876 -0.5902 -1.5913 -0.2744
19377TIP3    H279547   3.271   4.475  12.941  1.2883 -1.5687 -1.6150
19378TIP3   OH279548   5.514   5.125   1.690 -0.0648 -0.3050 -0.3235
19378TIP3    H179549   5.441   5.168   1.645  0.3515 -0.1455 -0.8597
19378TIP3    H279550   5.508   5.034   1.663 -1.5566 -0.8540  1.6063
19379TIP3   OH279551   3.364   2.189  12.396 -0.0502 -0.3730  0.0575
19379TIP3    H179552   3.351   2.168  12.488  0.2198 -0.7125  0.0219
19379TIP3    H279553   3.313   2.124  12.349 -2.3813  1.3981 -0.0137
19380TIP3   OH279554   6.375   6.456  14.598 -0.4113 -0.4748  0.1104
19380TIP3    H179555   6.309   6.522  14.576  0.6901  0.5367 -0.3187
19380TIP3    H279556   6.447   6.472  14.536  1.1054 -0.1503  1.8433
19381TIP3   OH279557   3.611   0.416   0.183  0.2164 -0.2967 -0.3704
19381TIP3    H179558   3.526   0.394   0.220  0.8072 -1.3159  0.4450
19381TIP3    H279559   3.596   0.420   0.089 -0.6937 -0.6782 -0.2496
19382TIP3   OH279560   6.205   4.800  16.375 -0.0291 -0.1154  0.7342
19382TIP3    H179561   6.125   4.747  16.369  0.1384 -0.3728  0.7489
19382TIP3    H279562   6.184   4.867  16.441 -0.1663 -0.2999  0.8811
19383TIP3   OH279563   2.894   6.440  15.579 -0.0830 -0.3684 -0.0559
19383TIP3    H179564   2.825   6.377  15.600  0.0936 -0.4506  0.2868
19383TIP3    H279565   2.862   6.485  15.500 -0.8435  0.0585  0.4742
19384TIP3   OH279566   6.614   0.053   2.878 -0.6486 -0.3910  0.3381
19384TIP3    H179567   6.558   0.055   2.956  1.0817 -0.5486  1.6263
19384TIP3    H279568   6.686  -0.005   2.901  1.6297  2.0934 -0.1482
19385TIP3   OH279569   3.267   2.344   1.030  0.8186 -0.4715 -0.1176
19385TIP3    H179570   3.191   2.346   0.972  0.2260  0.6079  0.6587
19385TIP3    H279571   3.231   2.332   1.118  1.5257  0.2088  0.2784
19386TIP3   OH279572   6.578   6.333  11.592 -0.2892 -0.1367 -0.2564
19386TIP3    H179573   6.583   6.423  11.559 -2.8502  0.1278 -0.1686
19386TIP3    H279574   6.612   6.279  11.521 -0.7168  0.7738 -1.1834
19387TIP3   OH279575   0.593   3.756  13.997 -0.3579 -0.6181 -0.3401
19387TIP3    H179576   0.532   3.682  13.990 -1.1002 -0.0335 -0.1168
19387TIP3    H279577   0.634   3.761  13.911 -0.9136 -0.7708 -0.6156
19388TIP3   OH279578   3.291   2.833  15.454 -0.6603 -0.2853 -0.0036
19388TIP3    H179579   3.274   2.873  15.369  1.4732 -1.9999 -1.3405
19388TIP3    H279580   3.347   2.896  15.500 -0.0333 -0.2887 -0.7526
19389TIP3   OH279581   5.288   0.295   0.905  0.3011 -0.4175 -0.0816
19389TIP3    H179582   5.299   0.211   0.862  0.7545 -0.2449 -0.3123
19389TIP3    H279583   5.368   0.344   0.884 -0.2120  0.2925 -0.4553
19390TIP3   OH279584   5.475   3.892  16.105  0.0264  0.3626 -0.5832
19390TIP3    H179585   5.492   3.953  16.177 -0.1263 -1.9868  1.5898
19390TIP3    H279586   5.536   3.919  16.036  2.1001  1.1551  1.4253
19391TIP3   OH279587   2.021   3.357  11.379 -0.3947 -0.0419  0.1859
19391TIP3    H179588   2.053   3.267  11.370  1.8547  0.8414 -1.3944
19391TIP3    H279589   1.969   3.356  11.459 -1.5810 -3.0427 -0.4808
19392TIP3   OH279590   0.631   1.878   3.795 -0.3384  0.3657  0.3290
19392TIP3    H179591   0.641   1.938   3.868  0.7202  0.4905  0.1026
19392TIP3    H279592   0.708   1.821   3.800 -0.7661 -0.2695 -0.0991
19393TIP3   OH279593   4.802   2.534   1.258  0.1029  0.1234 -0.2679
19393TIP3    H179594   4.790   2.538   1.163 -1.4072  0.2278 -0.1028
19393TIP3    H279595   4.807   2.625   1.286  2.8234  0.1158 -0.4408
19394TIP3   OH279596   5.305   0.087  12.353  0.4457 -0.5925  0.3131
19394TIP3    H179597   5.230   0.140  12.326 -0.0615  0.1245  2.8038
19394TIP3    H279598   5.376   0.149  12.365  0.8587 -0.9798 -0.0950
19395TIP3   OH279599   3.848   5.651   2.300 -0.3081 -0.1715 -0.2493
19395TIP3    H179600   3.866   5.557   2.300 -2.8858 -0.7754  1.0909
19395TIP3    H279601   3.757   5.657   2.271 -0.8247  1.7130  1.5364
19396TIP3   OH279602   4.672   3.322  13.442 -0.2895  0.1207  0.3945
19396TIP3    H179603   4.640   3.232  13.453  1.0552 -0.2456  1.6879
19396TIP3    H279604   4.624   3.355  13.366  0.0004 -2.0738 -0.8421
19397TIP3   OH279605   3.916   4.420  15.637 -0.1021 -1.3169  0.0636
19397TIP3    H179606   3.939   4.507  15.670  1.2378 -1.6598  0.1149
19397TIP3    H279607   3.863   4.436  15.560  0.4479 -0.4377 -0.1415
19398TIP3   OH279608   4.042   6.231   6.013  0.8972 -0.5093  0.3284
19398TIP3    H179609   4.002   6.267   5.934 -0.9969 -0.8210  1.0942
19398TIP3    H279610   3.972   6.232   6.079  2.0160 -1.5496  1.6154
19399TIP3   OH279611   1.056   6.203  11.928 -0.3174 -0.6837  0.2509
19399TIP3    H179612   0.988   6.260  11.965  0.2425  1.8629 -2.3270
19399TIP3    H279613   1.009   6.149  11.864 -0.6840 -2.6606  2.0622
19400TIP3   OH279614   4.710   2.991  13.672  0.0115 -0.1095  0.4198
19400TIP3    H179615   4.797   2.991  13.632 -0.8718 -0.5208 -1.6205
19400TIP3    H279616   4.678   2.902  13.658 -1.0887  0.2942  0.3294
19401TIP3   OH279617   2.027   6.182  16.266 -0.4101 -0.3280 -0.0521
19401TIP3    H179618   2.056   6.259  16.315  0.7727 -1.5185  1.2355
19401TIP3    H279619   1.940   6.162  16.302 -0.1310 -0.3857  0.6004
19402TIP3   OH279620   0.795   5.594  13.113  0.0383  0.0189 -0.0324
19402TIP3    H179621   0.787   5.688  13.094  1.8442  0.2055  0.0039
19402TIP3    H279622   0.848   5.590  13.192 -3.1538 -0.9516  2.2915
19403TIP3   OH279623   0.448   1.005   2.989  0.1743  0.0254 -0.0970
19403TIP3    H179624   0.375   0.945   2.999  0.8477 -0.6963  0.6917
19403TIP3    H279625   0.524   0.949   2.975  0.5890  0.7611 -0.9301
19404TIP3   OH279626   6.647   0.851   1.267  0.2321  0.4520 -0.3144
19404TIP3    H179627   6.690   0.801   1.197  0.2645 -1.7336  1.1456
19404TIP3    H279628   6.565   0.804   1.282 -0.7011  2.0584 -0.2066
19405TIP3   OH279629   6.559   1.961   2.479  0.3061  0.0958  0.3247
19405TIP3    H179630   6.474   1.933   2.514 -0.2312  0.7805 -0.4151
19405TIP3    H279631   6.593   1.883   2.434  0.1112 -0.2051  0.6857
19406TIP3   OH279632   0.335   3.951   3.624  0.4742 -0.3122 -0.4145
19406TIP3    H179633   0.259   3.935   3.569  0.0639 -0.2391  0.1202
19406TIP3    H279634   0.410   3.942   3.566  0.0007  0.9491 -1.2715
19407TIP3   OH279635   0.461   1.077  13.551  0.2305  0.0473  0.4553
19407TIP3    H179636   0.496   1.165  13.536 -0.9055  0.3773 -0.3700
19407TIP3    H279637   0.422   1.082  13.638 -0.1571  0.4790  0.2639
19408TIP3   OH279638   1.267   1.683  16.709 -0.1313  0.6156  0.0498
19408TIP3    H179639   1.198   1.671  16.774 -0.6592 -0.4508 -0.6735
19408TIP3    H279640   1.348   1.665  16.757 -0.4457  0.6640  0.6081
19409TIP3   OH279641   2.772   0.445   2.728  0.4571  0.2712 -0.3713
19409TIP3    H179642   2.858   0.464   2.766  1.0816  0.8381 -1.9717
19409TIP3    H279643   2.779   0.475   2.637  0.2250 -4.0636 -2.0459
19410TIP3   OH279644   1.449   4.726  12.213  0.0155 -0.2714 -0.5835
19410TIP3    H179645   1.389   4.792  12.177  2.1461  2.2844  0.2213
19410TIP3    H279646   1.432   4.728  12.307 -0.9569 -2.0864 -0.6843
19411TIP3   OH279647   5.639   0.812   2.843 -0.8587  0.3645 -0.0052
19411TIP3    H179648   5.674   0.751   2.779 -1.1791  0.6702 -0.4788
19411TIP3    H279649   5.631   0.761   2.923  0.3557  0.2006  0.0304
19412TIP3   OH279650   5.895   2.356   2.028 -0.3101 -0.0837  0.3134
19412TIP3    H179651   5.979   2.355   1.983  0.5330  1.7163  1.7381
19412TIP3    H279652   5.907   2.297   2.103  0.2613  1.3665  1.4074
19413TIP3   OH279653   5.620   4.001   1.442 -0.2056  0.1949 -0.2492
19413TIP3    H179654   5.653   3.932   1.499 -1.1326  0.1995  0.3175
19413TIP3    H279655   5.604   3.957   1.358 -0.5440 -0.2219  0.0322
19414TIP3   OH279656   1.511   0.586  15.745 -0.1245  0.5579  0.1961
19414TIP3    H179657   1.538   0.677  15.754  2.0107 -0.0162  0.1044
19414TIP3    H279658   1.590   0.540  15.716 -1.0591 -1.3828  0.5602
19415TIP3   OH279659   0.281   2.865  16.676  0.0166  0.0081  0.0242
19415TIP3    H179660   0.368   2.825  16.676 -0.4049 -0.9146  0.4693
19415TIP3    H279661   0.250   2.854  16.586  0.3113  0.2536 -0.1115
19416TIP3   OH279662   0.063   5.274  16.143 -0.2575  0.2080 -0.2713
19416TIP3    H179663   0.125   5.306  16.208  0.4407  0.9875 -1.2778
19416TIP3    H279664   0.049   5.349  16.085 -3.6695  0.7007  0.9737
19417TIP3   OH279665   0.400   4.325  11.081 -0.0397  0.1247 -0.0987
19417TIP3    H179666   0.482   4.311  11.034  2.0312  0.6187  3.0505
19417TIP3    H279667   0.351   4.244  11.067  0.6250  0.0770 -2.6003
19418TIP3   OH279668   0.424   6.519   2.415 -0.0863 -0.3511 -0.2948
19418TIP3    H179669   0.360   6.582   2.383  0.5865  1.3415  1.4830
19418TIP3    H279670   0.373   6.463   2.475 -0.3731 -0.4907 -0.6675
19419TIP3   OH279671   5.987   6.024  13.158 -0.6931 -0.6428 -0.0083
19419TIP3    H179672   6.041   6.038  13.235 -2.6838  1.5662  1.1275
19419TIP3    H279673   5.957   6.111  13.133 -2.9658 -1.6316 -1.0837
19420TIP3   OH279674   0.082   3.713  17.096  0.0007 -0.1207  0.1190
19420TIP3    H179675   0.006   3.705  17.154  0.5990 -1.1034  0.7914
19420TIP3    H279676   0.047   3.697  17.008 -1.0330  1.9924  0.0737
19421TIP3   OH279677   3.648   1.682   1.945 -0.1560 -0.1275 -0.1979
19421TIP3    H179678   3.706   1.700   1.872  0.6696 -0.5049  0.3552
19421TIP3    H279679   3.564   1.721   1.919  0.7638  1.8947 -0.2893
19422TIP3   OH279680   6.605   4.889   6.655  0.3007 -0.0764  0.0007
19422TIP3    H179681   6.646   4.956   6.709  0.1976 -0.8296  1.0382
19422TIP3    H279682   6.554   4.938   6.590  0.4057  0.8405  0.5962
19423TIP3   OH279683   2.411   1.826   0.179 -0.3333  0.1367 -0.0394
19423TIP3    H179684   2.381   1.743   0.142 -0.0062  0.6212 -1.4366
19423TIP3    H279685   2.347   1.846   0.247  0.3157 -1.8982  1.2625
19424TIP3   OH279686   5.765   0.441  13.132 -0.3585 -0.2403  0.3613
19424TIP3    H179687   5.755   0.384  13.208 -1.9501  1.6729  1.7087
19424TIP3    H279688   5.840   0.496  13.152  1.0343 -1.5809 -0.8379
19425TIP3   OH279689   3.925   4.122   0.892  0.3253  0.1173 -0.0343
19425TIP3    H179690   3.940   4.212   0.922  0.0078  0.4922 -0.9666
19425TIP3    H279691   4.012   4.081   0.895  0.8697  1.0588 -1.4959
19426TIP3   OH279692   0.071   0.955   4.730 -0.3127  0.2863  0.2794
19426TIP3    H179693   0.002   1.021   4.730  0.7158  1.3918  0.2335
19426TIP3    H279694   0.035   0.883   4.782 -2.2369  0.0147 -1.3066
19427TIP3   OH279695   1.094   1.524   3.489 -0.0839  0.0843  0.2003
19427TIP3    H179696   1.045   1.537   3.570 -0.2984 -0.5566  0.1763
19427TIP3    H279697   1.040   1.564   3.421 -1.5236 -2.2101 -0.1157
19428TIP3   OH279698   0.848   2.600   4.486 -0.6194 -0.1832 -0.3444
19428TIP3    H179699   0.837   2.603   4.391  2.3620 -1.9719 -0.8788
19428TIP3    H279700   0.830   2.509   4.510  1.0147 -0.3472  0.3888
19429TIP3   OH279701   4.542   3.482   5.373 -0.1192  0.5605  0.1132
19429TIP3    H179702   4.548   3.538   5.296 -0.5931 -2.9209 -2.7261
19429TIP3    H279703   4.448   3.473   5.390 -0.0815  0.2251  0.1666
19430TIP3   OH279704   5.103   2.931  12.374 -0.0892  0.2536 -0.3965
19430TIP3    H179705   5.105   2.838  12.351 -0.2219  0.3104 -0.6377
19430TIP3    H279706   5.037   2.937  12.443  0.6694  0.0045  0.3649
19431TIP3   OH279707   0.222   0.173  11.682 -0.5401  0.8243  0.5730
19431TIP3    H179708   0.230   0.267  11.699 -1.3081  0.9365  0.3565
19431TIP3    H279709   0.213   0.134  11.769  2.4142  0.6272  0.9133
19432TIP3   OH279710   4.350   3.987   3.205  0.1228  0.4538 -0.4706
19432TIP3    H179711   4.433   4.018   3.242  0.6181  0.6505 -1.6797
19432TIP3    H279712   4.291   4.062   3.215 -0.4446 -0.2369  1.8977
19433TIP3   OH279713   5.706   1.235   4.275 -0.5022  0.1548  0.1070
19433TIP3    H179714   5.729   1.221   4.367  0.7251  1.7272  0.0874
19433TIP3    H279715   5.732   1.154   4.231 -0.5612 -0.3894  1.0473
19434TIP3   OH279716   5.288   1.381  13.606 -0.0555  0.1997  0.0883
19434TIP3    H179717   5.337   1.399  13.686  0.6525 -1.9202  0.1744
19434TIP3    H279718   5.306   1.457  13.550 -0.0444  1.4099  1.6502
19435TIP3   OH279719   2.226   1.934  11.463  0.5927 -0.3252  0.2276
19435TIP3    H179720   2.131   1.938  11.473  0.5744  0.1133 -0.1021
19435TIP3    H279721   2.243   1.848  11.425  0.2042  0.1243 -1.0224
19436TIP3   OH279722   2.099   4.396  11.512  0.5045  0.1944  0.2070
19436TIP3    H179723   2.111   4.471  11.571  4.0754  0.0854 -0.1042
19436TIP3    H279724   2.080   4.436  11.427 -0.2168  0.5959  0.5475
19437TIP3   OH279725   0.504   3.948   4.955 -0.4033 -0.7946 -0.6238
19437TIP3    H179726   0.541   3.862   4.934 -0.9845 -1.2688  0.2530
19437TIP3    H279727   0.411   3.939   4.937 -0.5177 -0.4561 -0.1993
19438TIP3   OH279728   5.113   2.088   5.381 -0.1202  0.2879 -0.2159
19438TIP3    H179729   5.108   2.023   5.310 -0.7424 -0.2725  0.3339
19438TIP3    H279730   5.181   2.149   5.352  0.2948 -0.4594 -0.8683
19439TIP3   OH279731   3.021   0.995   1.132 -0.3798 -0.6958  0.1811
19439TIP3    H179732   2.934   1.028   1.156 -0.2051 -0.5624  0.6321
19439TIP3    H279733   3.056   0.958   1.213  0.1957 -0.2877  0.1249
19440TIP3   OH279734   5.782   1.812  12.324  0.1439 -0.5628 -0.0312
19440TIP3    H179735   5.862   1.827  12.375  0.1341  1.6168 -0.5595
19440TIP3    H279736   5.720   1.877  12.356 -0.9168 -1.2009 -0.7038
19441TIP3   OH279737   1.397   4.480   5.945  0.4120  0.0977 -0.4326
19441TIP3    H179738   1.306   4.460   5.966  0.6854 -3.2334 -1.8492
19441TIP3    H279739   1.435   4.507   6.029 -1.3736 -0.5787  0.6580
19442TIP3   OH279740   6.067   3.117   4.434 -0.4915  0.1684  0.0164
19442TIP3    H179741   6.044   3.066   4.357  1.2225 -1.1482  0.3141
19442TIP3    H279742   6.114   3.193   4.398 -0.1530 -0.1742 -0.2852
19443TIP3   OH279743   6.079   0.539   3.995 -0.0892 -0.1310  0.1110
19443TIP3    H179744   6.078   0.599   3.920  1.6549  0.0101  0.1481
19443TIP3    H279745   6.110   0.592   4.068  3.2573 -1.3208 -0.2233
19444TIP3   OH279746   4.964   5.048  14.061 -0.2670  0.5035 -0.3518
19444TIP3    H179747   4.978   5.058  14.155  0.1478 -0.8355 -0.2515
19444TIP3    H279748   4.868   5.053  14.050 -0.2565  4.4848 -0.3992
19445TIP3   OH279749   3.866   4.442  14.154 -0.0720  0.3558 -0.0165
19445TIP3    H179750   3.853   4.466  14.246 -1.7572 -0.9995  0.1602
19445TIP3    H279751   3.778   4.447  14.115  0.3774 -0.4202 -1.2034
19446TIP3   OH279752   3.789   1.890   2.935 -0.3392  0.7103 -0.2300
19446TIP3    H179753   3.842   1.864   3.010  0.8820  1.3317 -0.8511
19446TIP3    H279754   3.739   1.811   2.913  1.6167 -0.4814 -0.6887
19447TIP3   OH279755   1.462   6.421   5.355 -0.0063 -0.1731  0.1226
19447TIP3    H179756   1.486   6.356   5.421  0.4046  0.7413  0.8964
19447TIP3    H279757   1.371   6.444   5.376 -0.0114 -0.1854  0.1133
19448TIP3   OH279758   3.029   5.062   0.186 -0.4013 -0.2305  0.6861
19448TIP3    H179759   2.994   5.097   0.268  0.1428 -0.8635  1.2024
19448TIP3    H279760   2.976   4.984   0.169 -1.7359  0.8945 -0.5586
19449TIP3   OH279761   4.834   0.742  14.051  0.2841 -0.7171  0.1125
19449TIP3    H179762   4.925   0.730  14.078  0.5978 -0.1467 -0.6502
19449TIP3    H279763   4.834   0.728  13.956 -0.3250 -0.2148  0.0253
19450TIP3   OH279764   3.844   2.084  15.003  0.0984 -0.2257  0.4815
19450TIP3    H179765   3.830   1.990  14.985  1.4461 -0.4114  0.3050
19450TIP3    H279766   3.768   2.110  15.054  1.0953 -2.1385  3.1435
19451TIP3   OH279767   6.265   3.661  13.073  0.0241  0.4889 -0.7278
19451TIP3    H179768   6.220   3.736  13.113 -3.5717 -1.3675 -0.8759
19451TIP3    H279769   6.218   3.647  12.990  1.7853 -0.8781 -1.5516
19452TIP3   OH279770   6.271   0.346  12.978  0.1198  0.0825 -0.1130
19452TIP3    H179771   6.287   0.253  12.991  1.9110  0.1157 -1.6031
19452TIP3    H279772   6.228   0.351  12.892  1.9255  0.6855 -1.0484
19453TIP3   OH279773   2.380   5.160   2.557  0.1798 -0.3355  0.1976
19453TIP3    H179774   2.440   5.140   2.629  0.2793 -2.9850 -0.5405
19453TIP3    H279775   2.295   5.173   2.600  0.3707 -1.2016  0.8765
19454TIP3   OH279776   2.601   0.420  13.769 -0.4163  0.1830 -0.3139
19454TIP3    H179777   2.524   0.475  13.759 -0.9490 -0.3331  0.7771
19454TIP3    H279778   2.567   0.330  13.773  0.1210  0.0043  1.0618
19455TIP3   OH279779   3.159   1.646   2.374 -0.0913  0.3649  0.0468
19455TIP3    H179780   3.132   1.606   2.457  0.5242  1.1205  0.6311
19455TIP3    H279781   3.163   1.573   2.312 -0.6051 -0.2041  0.6615
19456TIP3   OH279782   4.141   4.590  12.596 -0.1887  0.2969  0.6288
19456TIP3    H179783   4.136   4.565  12.689  1.0934  0.8255  0.8653
19456TIP3    H279784   4.159   4.684  12.597  0.6373  0.1602 -0.1348
19457TIP3   OH279785   0.942   4.205  15.315 -0.3499  0.7304  0.2756
19457TIP3    H179786   0.893   4.287  15.319 -1.8453 -0.1486  0.3923
19457TIP3    H279787   0.891   4.149  15.257  0.5548 -0.1992  0.3498
19458TIP3   OH279788   1.036   4.368   2.124  0.1012  0.1888  0.0383
19458TIP3    H179789   1.000   4.378   2.212  1.3133  0.6366  0.5039
19458TIP3    H279790   1.125   4.335   2.138  0.5674  0.9546 -0.9702
19459TIP3   OH279791   0.160   1.324  13.030  0.0265  0.0401  0.1150
19459TIP3    H179792   0.206   1.371  13.100 -1.1068 -0.8577  1.5141
19459TIP3    H279793   0.222   1.324  12.958  1.6066  0.2380  1.3992
19460TIP3   OH279794   3.899   4.494  16.898 -0.3078  0.4232  0.4860
19460TIP3    H179795   3.898   4.431  16.970  0.7799  0.2375  0.3508
19460TIP3    H279796   3.961   4.561  16.926 -2.6522  2.3818  1.3875
19461TIP3   OH279797   5.882   3.714  11.917  0.2879 -0.7399 -0.5251
19461TIP3    H179798   5.843   3.767  11.986 -0.6379  1.5304 -2.6028
19461TIP3    H279799   5.975   3.736  11.919 -0.0963  1.1998 -1.4261
19462TIP3   OH279800   6.398   2.351  11.394 -0.1822  0.1066 -0.0577
19462TIP3    H179801   6.462   2.308  11.337  1.5609  1.9758  0.3724
19462TIP3    H279802   6.422   2.323  11.483 -1.1222 -0.5945 -0.0101
19463TIP3   OH279803   6.190   0.773   1.869  0.6954  0.0064  0.1888
19463TIP3    H179804   6.282   0.785   1.894  0.2247 -1.0040  2.7169
19463TIP3    H279805   6.183   0.815   1.783  3.3696  0.6154  0.1710
19464TIP3   OH279806   0.501   0.341  14.904  0.3709 -0.4353  0.1269
19464TIP3    H179807   0.437   0.277  14.937  1.0829 -1.3860 -0.2938
19464TIP3    H279808   0.486   0.419  14.958 -0.6378 -0.8847  0.5321
19465TIP3   OH279809   5.858   2.606   2.852 -0.1555  0.1835  0.6295
19465TIP3    H179810   5.876   2.526   2.902  0.2459  1.0701  1.9657
19465TIP3    H279811   5.831   2.575   2.766  0.3274 -1.3817  1.0094
19466TIP3   OH279812   5.880   2.472   0.861  0.2462  0.4952 -0.0027
19466TIP3    H179813   5.908   2.550   0.908  2.1139 -0.4049  0.4907
19466TIP3    H279814   5.943   2.405   0.887 -1.4329 -1.2574 -0.2200
19467TIP3   OH279815   3.817   2.115   2.713  0.2216 -0.2778 -0.3173
19467TIP3    H179816   3.838   2.088   2.803 -2.2941  0.3413  0.5511
19467TIP3    H279817   3.784   2.036   2.671  1.7420 -0.6524 -0.8472
19468TIP3   OH279818   3.672   6.164  15.422 -0.3810  0.4452  0.3154
19468TIP3    H179819   3.717   6.080  15.430 -0.1134  0.6897  1.5155
19468TIP3    H279820   3.738   6.222  15.382  0.4316  0.8139  2.1056
19469TIP3   OH279821   6.057   4.741   3.365 -0.3264  0.4251  0.4559
19469TIP3    H179822   5.975   4.751   3.413 -0.9919  1.1346 -0.7752
19469TIP3    H279823   6.124   4.774   3.425 -1.3487  3.2147  0.2065
19470TIP3   OH279824   0.093   0.263   3.523 -0.2661 -0.3682  0.3855
19470TIP3    H179825   0.118   0.244   3.613 -1.8329 -0.2897  0.8683
19470TIP3    H279826   0.014   0.211   3.509  1.5722 -2.7989 -1.9665
19471TIP3   OH279827   2.379   5.576   2.714 -0.0730  0.7612 -0.2412
19471TIP3    H179828   2.300   5.598   2.764 -0.2507 -0.3906  0.0097
19471TIP3    H279829   2.384   5.480   2.718  2.1304  0.8456  0.9815
19472TIP3   OH279830   1.092   3.731   0.611  0.5141 -0.0820  0.3210
19472TIP3    H179831   1.130   3.789   0.545  0.9828 -0.8726 -0.1296
19472TIP3    H279832   1.152   3.656   0.614 -0.4696 -0.8855  0.3390
19473TIP3   OH279833   3.268   1.633  16.636  0.1793 -0.0573  0.0409
19473TIP3    H179834   3.217   1.576  16.694 -0.6418 -1.2020 -1.7300
19473TIP3    H279835   3.214   1.642  16.558  0.2810  3.1638  0.1827
19474TIP3   OH279836   4.400   0.289  12.086 -0.4625  0.2474  0.5828
19474TIP3    H179837   4.330   0.340  12.046 -0.2647  0.8223  0.9737
19474TIP3    H279838   4.473   0.296  12.025 -0.5763  0.0738  0.4261
19475TIP3   OH279839   2.057   4.051   5.293 -0.0032  0.1735  0.1035
19475TIP3    H179840   2.033   3.960   5.277  0.0797  0.2356 -0.3870
19475TIP3    H279841   2.080   4.054   5.386  0.1386 -0.3376  0.0859
19476TIP3   OH279842   5.801   4.570   1.379 -0.3515  0.5171  0.2538
19476TIP3    H179843   5.804   4.565   1.283  0.6048 -0.6848  0.3150
19476TIP3    H279844   5.792   4.479   1.407  1.3151  0.6427  1.3435
19477TIP3   OH279845   4.967   0.679   2.063  0.0656 -0.0117 -0.3016
19477TIP3    H179846   4.980   0.726   2.146 -1.8499  1.3003 -0.6650
19477TIP3    H279847   5.053   0.641   2.044  0.5579 -0.4215  2.2935
19478TIP3   OH279848   5.304   4.131   4.080  0.1652  0.4327  0.0563
19478TIP3    H179849   5.255   4.089   4.009 -2.4573  1.4987  1.0913
19478TIP3    H279850   5.359   4.061   4.116 -1.5707 -1.2427 -0.3878
19479TIP3   OH279851   5.345   1.016  14.525  0.0572 -0.3042 -0.3074
19479TIP3    H179852   5.260   0.973  14.536  0.1249 -1.4300 -3.1834
19479TIP3    H279853   5.409   0.947  14.537  0.5257  0.2771  0.6459
19480TIP3   OH279854   1.081   0.584  13.120 -0.3771 -0.2966 -0.3262
19480TIP3    H179855   1.019   0.634  13.172  0.4245 -1.3224  1.7187
19480TIP3    H279856   1.050   0.493  13.126  1.5354 -0.9193  1.2030
19481TIP3   OH279857   3.532   3.615   5.843  0.5918 -0.0214  0.1603
19481TIP3    H179858   3.597   3.545   5.834 -0.5381 -0.8928 -1.9381
19481TIP3    H279859   3.449   3.572   5.825 -0.5818  1.1547  2.3668
19482TIP3   OH279860   3.224   2.126   5.696  0.3855 -0.3360 -0.5725
19482TIP3    H179861   3.286   2.155   5.629  0.5450  1.0105  0.1226
19482TIP3    H279862   3.197   2.207   5.740 -0.6267 -1.0721  0.2043
19483TIP3   OH279863   4.418   6.400   2.398  0.3453  0.5829 -0.0975
19483TIP3    H179864   4.395   6.489   2.371 -0.1036  0.5522  0.1822
19483TIP3    H279865   4.356   6.379   2.468  0.2759 -0.0526 -0.3460
19484TIP3   OH279866   1.381   3.631   1.621  0.1853 -0.1403 -0.6084
19484TIP3    H179867   1.465   3.664   1.653 -0.3068  1.7318 -1.1523
19484TIP3    H279868   1.353   3.695   1.556  0.1162 -2.6499 -3.2734
19485TIP3   OH279869   3.186   2.176  10.978 -0.5043  0.1541 -0.1346
19485TIP3    H179870   3.210   2.115  11.047 -0.6108  0.5875  0.2895
19485TIP3    H279871   3.112   2.134  10.934  0.0693 -0.4907 -0.4995
19486TIP3   OH279872   2.231   5.236  12.909  0.0166  0.5727 -0.3193
19486TIP3    H179873   2.165   5.178  12.946  0.2527 -0.4109 -1.3723
19486TIP3    H279874   2.255   5.294  12.981 -1.3953  0.4196  0.3083
19487TIP3   OH279875   3.082   1.793  13.015  0.3259  0.5606 -0.2170
19487TIP3    H179876   3.049   1.712  12.977 -0.4257  0.8343 -0.1594
19487TIP3    H279877   3.075   1.857  12.944 -1.1612  1.0930  0.3846
19488TIP3   OH279878   3.273   4.074   2.910  0.5650  0.2392  0.4191
19488TIP3    H179879   3.254   4.167   2.927 -0.9558 -0.1964  1.2265
19488TIP3    H279880   3.222   4.054   2.832 -0.5768 -0.3622  1.2932
19489TIP3   OH279881   1.891   6.537  13.910  0.0166 -0.3713  0.4562
19489TIP3    H179882   1.887   6.579  13.824 -0.3359 -0.5681  0.3722
19489TIP3    H279883   1.978   6.499  13.915  0.1620 -0.0556  0.3283
19490TIP3   OH279884   2.371   1.915  13.972  0.3236  0.0978  0.5688
19490TIP3    H179885   2.463   1.892  13.961  0.0562 -0.5646 -0.4457
19490TIP3    H279886   2.341   1.860  14.044  0.0918 -1.6287 -0.7910
19491TIP3   OH279887   4.773   3.635  16.982  0.0084  0.3985 -0.2297
19491TIP3    H179888   4.722   3.622  17.062  0.1569  0.7326 -0.0797
19491TIP3    H279889   4.720   3.695  16.929 -0.5647 -0.6010 -0.8191
19492TIP3   OH279890   3.865   1.954   0.833  0.1146  0.0743 -0.1054
19492TIP3    H179891   3.775   1.986   0.831  0.4814  1.1041 -0.8888
19492TIP3    H279892   3.888   1.939   0.742  0.5345 -0.8278  0.1308
19493TIP3   OH279893   0.704   1.032   2.317 -0.0222 -0.0724  0.3229
19493TIP3    H179894   0.710   1.107   2.258  0.3553  0.1888  0.6856
19493TIP3    H279895   0.718   0.955   2.261  0.3362  0.1723  0.0791
19494TIP3   OH279896   1.658   6.585   1.446  0.0943 -0.2333 -0.1685
19494TIP3    H179897   1.704   6.592   1.530  0.6114  0.4196 -0.4944
19494TIP3    H279898   1.722   6.544   1.387  0.1061  0.2648 -0.5072
19495TIP3   OH279899   5.290   3.713  10.860  0.2397 -0.2446 -0.7205
19495TIP3    H179900   5.248   3.680  10.940 -2.2653  0.9014 -1.4482
19495TIP3    H279901   5.272   3.647  10.794  2.2816 -1.1728 -0.4204
19496TIP3   OH279902   2.433   3.302   4.458  0.5872  0.3183 -0.3250
19496TIP3    H179903   2.429   3.396   4.439 -0.6848  0.3224 -0.1131
19496TIP3    H279904   2.364   3.288   4.522 -0.1964 -1.0024 -1.4132
19497TIP3   OH279905   6.494   3.995  15.055  0.2312  0.0758 -0.1979
19497TIP3    H179906   6.583   4.028  15.064 -1.1349  3.5436  3.6554
19497TIP3    H279907   6.452   4.056  14.995 -0.2338  0.2134  0.2591
19498TIP3   OH279908   1.518   0.883   0.360 -0.0047 -0.1878 -0.6580
19498TIP3    H179909   1.562   0.929   0.288  1.0563  1.1335  0.7667
19498TIP3    H279910   1.452   0.945   0.391 -0.9612 -1.0440 -0.9461
19499TIP3   OH279911   0.280   1.047   6.094  0.1090  0.3211 -0.0542
19499TIP3    H179912   0.265   1.130   6.049  0.7911  0.9432  0.8349
19499TIP3    H279913   0.374   1.044   6.109  0.5125 -1.8352 -2.3641
19500TIP3   OH279914   0.207   1.931  17.254  0.2013  0.3327 -0.5423
19500TIP3    H179915   0.211   2.025  17.236  0.6722  0.4576  0.1808
19500TIP3    H279916   0.290   1.912  17.297 -0.4048 -0.1740  0.4330
19501TIP3   OH279917   0.274   3.529   1.260 -0.2210  0.1745 -0.0089
19501TIP3    H179918   0.199   3.588   1.258 -0.4452 -0.1190 -0.4103
19501TIP3    H279919   0.349   3.585   1.237 -0.1779  0.6486  1.1956
19502TIP3   OH279920   0.250   6.256  14.637  0.0290  0.0131  0.4128
19502TIP3    H179921   0.298   6.338  14.651  0.8566 -0.4942  0.6833
19502TIP3    H279922   0.190   6.250  14.712  2.4661 -1.3133  2.4387
19503TIP3   OH279923   4.302   3.204  12.959 -0.1888  0.1664  0.3154
19503TIP3    H179924   4.393   3.179  12.978 -0.2179  0.6762  1.2400
19503TIP3    H279925   4.289   3.182  12.867  0.3554 -1.4254  0.5853
19504TIP3   OH279926   3.677   2.153  13.080  0.0779  0.1539  0.2197
19504TIP3    H179927   3.655   2.223  13.142  0.0709  0.7592 -0.4439
19504TIP3    H279928   3.766   2.173  13.053  0.5501 -0.8396  0.9853
19505TIP3   OH279929   1.010   6.514  11.532  0.5167  0.2007 -0.0670
19505TIP3    H179930   1.041   6.555  11.613  0.8256  0.5278 -0.3491
19505TIP3    H279931   1.072   6.542  11.465  0.0325  0.2639 -0.4991
19506TIP3   OH279932   1.903   2.799   5.082  0.1177 -0.0169  0.2689
19506TIP3    H179933   1.846   2.795   5.005  1.2470  0.6383 -0.6378
19506TIP3    H279934   1.988   2.826   5.047  0.6113  0.4842  1.7767
19507TIP3   OH279935   3.793   2.020  17.045 -0.2991 -0.4200 -0.0277
19507TIP3    H179936   3.847   1.949  17.009  1.3499  0.1554  1.1929
19507TIP3    H279937   3.723   2.030  16.981  0.4028 -1.9610 -1.1301
19508TIP3   OH279938   5.658   1.865   2.534 -0.8836  0.0856 -0.4978
19508TIP3    H179939   5.721   1.815   2.482  1.2525  0.7445  1.2755
19508TIP3    H279940   5.633   1.806   2.605 -0.5514  0.5720  0.0292
19509TIP3   OH279941   2.693   2.679  10.833  0.0824 -0.1016 -0.5805
19509TIP3    H179942   2.656   2.765  10.852 -0.2991 -0.1949 -0.8779
19509TIP3    H279943   2.665   2.660  10.743 -1.6078 -1.4233  0.1597
19510TIP3   OH279944   4.606   6.757  13.390 -0.4857 -0.0278 -0.2655
19510TIP3    H179945   4.570   6.744  13.478 -2.2000  1.4534 -0.7001
19510TIP3    H279946   4.532   6.739  13.332  0.7585 -1.5014 -1.4864
19511TIP3   OH279947   1.245   3.769  11.354  0.8121  0.0220  0.3513
19511TIP3    H179948   1.317   3.828  11.329 -0.2224  1.0002 -0.4919
19511TIP3    H279949   1.221   3.726  11.272 -0.3708  0.6569  0.3479
19512TIP3   OH279950   6.047   1.905  15.804 -0.6822  0.4123  0.2687
19512TIP3    H179951   6.019   1.958  15.878  1.5547 -0.4319  1.8453
19512TIP3    H279952   5.991   1.828  15.807 -0.7335  0.4712  0.9796
19513TIP3   OH279953   6.262   1.093  16.791 -0.5991 -0.0758 -0.1314
19513TIP3    H179954   6.350   1.080  16.754 -0.2214  0.4540  0.5610
19513TIP3    H279955   6.228   1.005  16.804  0.5984 -0.3521  1.3803
19514TIP3   OH279956   0.116   2.718  11.024  0.1408 -0.5468  0.3405
19514TIP3    H179957   0.024   2.743  11.016  0.0520 -0.6052  1.0702
19514TIP3    H279958   0.134   2.667  10.946 -0.4001 -0.3887  0.1070
19515TIP3   OH279959   2.371   4.472  16.287  0.1743  0.1277 -0.4181
19515TIP3    H179960   2.313   4.403  16.254  1.1538 -0.1588 -1.6142
19515TIP3    H279961   2.451   4.463  16.235  0.5377  1.8121 -0.1959
19516TIP3   OH279962   2.630   3.988  11.557  0.0457 -0.3523 -0.2248
19516TIP3    H179963   2.637   4.066  11.611  0.3203  0.3699 -1.2731
19516TIP3    H279964   2.710   3.939  11.574 -0.6308 -1.0180  1.3011
19517TIP3   OH279965   3.093   0.585  11.989 -0.3446 -0.0586 -0.3133
19517TIP3    H179966   3.174   0.628  11.961 -0.2059  0.4854  0.8532
19517TIP3    H279967   3.098   0.498  11.950  0.7460  0.0084 -0.3587
19518TIP3   OH279968   1.185   3.970   0.431  0.6497 -0.1962  0.4110
19518TIP3    H179969   1.262   4.019   0.401  0.4143  0.2675  0.5661
19518TIP3    H279970   1.143   3.940   0.351  0.7386 -0.0620  0.3142
19519TIP3   OH279971   1.733   6.153   2.983  0.3724  0.2656  0.2353
19519TIP3    H179972   1.787   6.090   2.935  1.3661  1.1644  0.1447
19519TIP3    H279973   1.789   6.230   2.993 -1.0282  1.3909 -0.2261
19520TIP3   OH279974   4.740   4.036  16.692 -0.4449  0.1779  0.4688
19520TIP3    H179975   4.742   4.131  16.680 -0.1744  0.2611  1.1463
19520TIP3    H279976   4.801   4.020  16.764  0.5115 -0.6407 -0.4958
19521TIP3   OH279977   2.358   4.990  13.345  0.5519 -0.3968 -0.4809
19521TIP3    H179978   2.345   4.993  13.250  0.0167 -2.2781 -0.4973
19521TIP3    H279979   2.272   4.968  13.380  0.3780  1.7622  0.6019
19522TIP3   OH279980   6.583   0.662   2.673 -0.0858  0.1986 -0.2574
19522TIP3    H179981   6.660   0.702   2.632 -1.2789  0.6548 -2.1554
19522TIP3    H279982   6.598   0.568   2.663  0.9009  0.2346  0.7229
19523TIP3   OH279983   4.318   0.351  15.378  0.0310  0.0949 -0.4449
19523TIP3    H179984   4.400   0.375  15.336 -0.4904  2.1889 -0.3795
19523TIP3    H279985   4.267   0.309  15.308  0.6559 -0.0403 -0.8241
19524TIP3   OH279986   2.759   4.212  13.450 -0.0215 -0.7857 -0.1999
19524TIP3    H179987   2.766   4.299  13.410 -0.1686 -1.0628 -0.8373
19524TIP3    H279988   2.842   4.200  13.496  0.0431 -0.3575 -0.1961
19525TIP3   OH279989   5.019   6.237  16.486 -0.6612  0.1286 -0.5109
19525TIP3    H179990   5.105   6.272  16.513  1.1055 -3.3304 -1.1565
19525TIP3    H279991   4.968   6.238  16.567  0.4550  0.9354  0.2349
19526TIP3   OH279992   3.838   3.400   4.883 -0.0186  0.2046 -0.5084
19526TIP3    H179993   3.809   3.369   4.797 -0.2470 -0.1090 -0.3188
19526TIP3    H279994   3.771   3.463   4.910  1.0902  1.8627 -1.4597
19527TIP3   OH279995   6.405   0.614   5.015 -0.0749 -0.1978 -0.1412
19527TIP3    H179996   6.465   0.673   5.060 -2.9668  2.7682  0.1550
19527TIP3    H279997   6.319   0.654   5.026 -1.8046 -2.8041 -2.7873
19528TIP3   OH279998   2.135   4.360   3.347  0.0004  0.2028  0.5071
19528TIP3    H179999   2.172   4.386   3.431  0.4602 -0.9853  0.6909
19528TIP3    H280000   2.042   4.381   3.354 -0.4340 -1.9512  2.2147
19529TIP3   OH280001   0.221   6.501   4.023 -0.4824 -0.6975 -0.6506
19529TIP3    H180002   0.287   6.570   4.021 -1.1952 -0.0159 -1.0257
19529TIP3    H280003   0.242   6.445   3.948 -0.2683 -0.5445 -0.7058
19530TIP3   OH280004   6.436   1.246  16.971  0.1324  0.2972  0.1073
19530TIP3    H180005   6.344   1.225  16.954  0.3540 -0.8491  0.2142
19530TIP3    H280006   6.435   1.295  17.053 -0.2460 -1.3520  1.1330
19531TIP3   OH280007   0.138   2.102   0.320 -0.4887  0.5008 -0.3521
19531TIP3    H180008   0.126   2.011   0.292  1.7377  0.5371 -1.6288
19531TIP3    H280009   0.168   2.095   0.411 -2.0336  0.1063  0.1709
19532TIP3   OH280010   6.665   6.459  16.628  0.1934  0.2462  0.2873
19532TIP3    H180011   6.688   6.525  16.563  0.9968 -0.0465  0.2672
19532TIP3    H280012   6.589   6.495  16.673 -0.1098  0.6466 -0.5225
19533TIP3   OH280013   1.483   5.242   3.325 -0.3516  0.5348 -0.3949
19533TIP3    H180014   1.438   5.324   3.303  0.7290  1.1335 -0.4218
19533TIP3    H280015   1.418   5.193   3.375 -0.7187  1.7804  0.4149
19534TIP3   OH280016   2.131   5.536   6.720 -0.2050 -0.0906 -0.2253
19534TIP3    H180017   2.118   5.553   6.813  0.1490  0.2107 -0.2301
19534TIP3    H280018   2.195   5.465   6.717 -0.7665 -0.6063 -0.2295
19535TIP3   OH280019   4.367   5.213  11.217 -0.0827  0.0178  0.3435
19535TIP3    H180020   4.448   5.256  11.245 -0.5348  2.6198 -1.9977
19535TIP3    H280021   4.302   5.238  11.283  0.4375  0.0686  0.8416
19536TIP3   OH280022   1.156   3.431   2.982 -0.2234  0.2556  0.2864
19536TIP3    H180023   1.231   3.475   2.940  0.0825  0.1996  0.7708
19536TIP3    H280024   1.150   3.472   3.068 -0.4191 -0.1179  0.4508
19537TIP3   OH280025   4.723   4.795   0.644  0.0925 -0.4965 -0.0557
19537TIP3    H180026   4.819   4.801   0.643  0.1560 -1.3880  0.0340
19537TIP3    H280027   4.704   4.710   0.606 -0.6953 -0.0848 -0.6083
19538TIP3   OH280028   2.073   0.462   2.549  0.0893  0.0876  0.3786
19538TIP3    H180029   2.089   0.495   2.638  1.4317 -1.4627  0.7735
19538TIP3    H280030   2.157   0.473   2.505 -0.6096  0.9710 -0.7784
19539TIP3   OH280031   1.980   0.763   4.115  0.1259  0.3476  0.2020
19539TIP3    H180032   1.984   0.846   4.163  2.8704  0.2409  0.3479
19539TIP3    H280033   1.982   0.697   4.184  3.5203  0.1997  0.1293
19540TIP3   OH280034   4.957   3.410   0.329 -0.2182  0.2952 -0.2974
19540TIP3    H180035   4.996   3.437   0.246  0.8667 -0.2754  0.0106
19540TIP3    H280036   4.998   3.326   0.348 -1.9227 -0.5451 -0.1558
19541TIP3   OH280037   1.130   5.319   4.402 -0.3814 -0.1723 -0.5738
19541TIP3    H180038   1.035   5.330   4.411 -0.0274  2.1792  1.2735
19541TIP3    H280039   1.166   5.348   4.486  1.9941 -0.8141 -1.2895
19542TIP3   OH280040   2.420   5.899   0.408 -0.7595  0.5270 -0.4796
19542TIP3    H180041   2.514   5.905   0.421 -0.7592 -0.3458  0.0143
19542TIP3    H280042   2.403   5.950   0.329 -0.0531  1.7603  0.1251
19543TIP3   OH280043   1.589   1.616   1.835  0.3258  0.0124  0.0187
19543TIP3    H180044   1.665   1.665   1.803  0.4034  0.6756  1.1559
19543TIP3    H280045   1.586   1.636   1.928 -1.4513  0.2962 -0.0666
19544TIP3   OH280046   0.746   5.471   4.059 -0.0735  0.4268  0.4951
19544TIP3    H180047   0.652   5.454   4.051  0.0528 -0.8024  1.3177
19544TIP3    H280048   0.781   5.390   4.097  1.0218  1.5905  2.0524
19545TIP3   OH280049   4.004   3.047  13.946  0.3848  0.4561 -0.5068
19545TIP3    H180050   3.939   3.110  13.978  1.9025  1.7028  0.2278
19545TIP3    H280051   3.961   2.962  13.956 -0.9167  1.1897  0.5041
19546TIP3   OH280052   2.981   2.262   6.365 -0.0804 -0.4765 -0.2409
19546TIP3    H180053   3.072   2.286   6.346  0.2921  0.1228  2.0016
19546TIP3    H280054   2.931   2.294   6.290  1.3776  0.4608 -0.8539
19547TIP3   OH280055   5.379   5.926   5.334 -0.1672 -0.7478  0.1114
19547TIP3    H180056   5.379   6.012   5.291  0.0289 -0.0769  1.4097
19547TIP3    H280057   5.471   5.905   5.345 -0.2176 -1.0879 -0.1044
19548TIP3   OH280058   5.488   4.570   5.297 -0.3809  0.6284  0.0708
19548TIP3    H180059   5.512   4.490   5.249  0.6978  1.3093 -0.5844
19548TIP3    H280060   5.407   4.548   5.342 -0.4830 -0.6084 -0.6718
19549TIP3   OH280061   2.174   5.102   2.311  0.1923 -0.1288  0.4000
19549TIP3    H180062   2.236   5.150   2.366  0.5827  1.4500 -1.3181
19549TIP3    H280063   2.223   5.025   2.280  1.2218  0.9045 -0.6329
19550TIP3   OH280064   3.970   5.045  14.273  0.0538 -0.1758  0.7756
19550TIP3    H180065   3.985   4.956  14.243  0.6608  0.4600 -0.9593
19550TIP3    H280066   3.880   5.065  14.248  0.2606  0.0336  0.1610
19551TIP3   OH280067   2.836   3.428   2.999  0.1899  0.4922  0.1738
19551TIP3    H180068   2.780   3.353   2.980  1.3076 -0.1280 -0.8226
19551TIP3    H280069   2.785   3.482   3.060  0.1889 -2.0865  2.6432
19552TIP3   OH280070   4.627   5.204   4.238 -0.0680 -0.2540  0.2534
19552TIP3    H180071   4.552   5.253   4.272  0.4287  0.6643  0.0693
19552TIP3    H280072   4.660   5.259   4.167 -1.3268 -2.2803 -2.0530
19553TIP3   OH280073   1.725   2.243  15.133 -0.0650 -0.1879  0.3756
19553TIP3    H180074   1.794   2.303  15.104  0.2550 -0.3935  0.6941
19553TIP3    H280075   1.772   2.162  15.154 -0.0924  0.3138  2.6506
19554TIP3   OH280076   5.036   5.101   3.516  0.9024 -0.1642  0.0321
19554TIP3    H180077   5.016   5.008   3.505  1.2444 -0.1346 -0.9320
19554TIP3    H280078   4.951   5.145   3.514  0.6986 -0.4821  0.9616
19555TIP3   OH280079   1.082   2.937   0.009 -0.0087  0.3058  0.0595
19555TIP3    H180080   1.023   2.957   0.081 -0.6496  1.4606 -0.7604
19555TIP3    H280081   1.025   2.927  -0.067  0.7615  0.3033 -0.5326
19556TIP3   OH280082   1.382   1.045  12.461 -0.0735 -0.3257 -0.3838
19556TIP3    H180083   1.304   1.094  12.437 -0.0001 -0.2861 -0.5426
19556TIP3    H280084   1.411   1.086  12.543 -1.7261 -2.0600  1.1524
19557TIP3   OH280085   3.600   6.739  14.582  0.0839  0.7059 -0.3116
19557TIP3    H180086   3.610   6.644  14.577 -0.0664  0.7048 -0.5914
19557TIP3    H280087   3.657   6.773  14.513  0.3179  0.8302 -0.0568
19558TIP3   OH280088   3.953   2.407   3.029 -0.2397 -0.0775  0.6933
19558TIP3    H180089   3.880   2.430   2.971 -0.6338  2.1571  1.9420
19558TIP3    H280090   3.914   2.358   3.100 -0.0666 -1.1529  0.0637
19559TIP3   OH280091   5.791   5.335  17.066 -0.0676  0.3073 -0.4643
19559TIP3    H180092   5.752   5.378  16.990 -0.1452 -1.2815 -1.3694
19559TIP3    H280093   5.822   5.407  17.122 -1.2408  1.5255 -1.3329
19560TIP3   OH280094   5.752   3.726   1.410  0.0346  0.4996 -0.0787
19560TIP3    H180095   5.817   3.730   1.480  0.9055  0.0223 -0.8382
19560TIP3    H280096   5.793   3.771   1.336 -0.5942  0.4013 -0.4980
19561TIP3   OH280097   3.581   4.190  16.659 -0.7437  0.0673  0.4625
19561TIP3    H180098   3.627   4.269  16.688 -0.3184 -0.0563  0.1445
19561TIP3    H280099   3.616   4.120  16.715  1.2843 -0.4691 -1.3442
19562TIP3   OH280100   5.739   4.133   1.193 -0.1656  0.6985 -0.1998
19562TIP3    H180101   5.667   4.071   1.189 -0.3635  0.9911 -1.7818
19562TIP3    H280102   5.818   4.078   1.194 -0.3688  0.3960  0.8830
19563TIP3   OH280103   1.846   3.590  15.572 -0.1433  0.4223  0.1811
19563TIP3    H180104   1.932   3.602  15.532  0.8449 -0.9568  1.7802
19563TIP3    H280105   1.846   3.500  15.604 -1.7373  0.7568  1.2524
19564TIP3   OH280106   4.130   4.272  13.146  0.3282 -0.2816  0.4692
19564TIP3    H180107   4.132   4.211  13.220  2.9144  0.8596  1.4302
19564TIP3    H280108   4.205   4.249  13.093  0.6353  1.2466  0.1873
19565TIP3   OH280109   1.418   4.098  13.541 -0.3584  0.3442 -0.1241
19565TIP3    H180110   1.375   4.137  13.616 -0.6760 -0.0851 -0.0770
19565TIP3    H280111   1.410   4.004  13.554 -2.9174  0.1812 -2.0433
19566TIP3   OH280112   3.382   1.723  12.182  0.3199 -0.3786  0.2085
19566TIP3    H180113   3.319   1.722  12.110  0.4540 -0.0130  0.0803
19566TIP3    H280114   3.373   1.638  12.224  1.2736 -1.1962 -1.1441
19567TIP3   OH280115   5.202   6.646  13.622  0.1862 -0.4159  0.0700
19567TIP3    H180116   5.231   6.715  13.562  1.9003 -1.9379 -0.9763
19567TIP3    H280117   5.147   6.589  13.568 -0.4010 -0.4128  0.6594
19568TIP3   OH280118   1.727   1.494   2.089  0.1593 -0.3935 -0.0726
19568TIP3    H180119   1.795   1.507   2.023 -0.6285  2.6519 -0.4323
19568TIP3    H280120   1.776   1.479   2.170  1.1841 -1.3503 -0.8324
19569TIP3   OH280121   5.830   0.954   2.556  0.0242 -0.2322  0.1390
19569TIP3    H180122   5.790   1.021   2.501 -0.4141  1.0821  1.9731
19569TIP3    H280123   5.756   0.908   2.595  0.3078 -2.2041 -1.4869
19570TIP3   OH280124   1.436   0.586  11.986 -0.0786  0.0612 -0.0713
19570TIP3    H180125   1.369   0.602  12.051 -1.3137 -0.2716 -1.2151
19570TIP3    H280126   1.403   0.628  11.907  1.4281  0.5522 -0.4654
19571TIP3   OH280127   6.405   2.812   0.561  0.3717  0.9742 -0.8392
19571TIP3    H180128   6.356   2.881   0.515  0.3302  2.5536  1.4006
19571TIP3    H280129   6.406   2.841   0.652 -0.1010 -2.2948  0.3204
19572TIP3   OH280130   1.677   3.667   0.096 -0.0103  0.8414  0.0115
19572TIP3    H180131   1.647   3.714   0.018  0.6115  0.3939 -0.5172
19572TIP3    H280132   1.623   3.700   0.167 -0.1572  1.7343 -0.5009
19573TIP3   OH280133   2.965   6.274   0.576 -0.4607  0.1914 -0.6900
19573TIP3    H180134   2.985   6.192   0.532 -1.3521 -1.0058  0.9924
19573TIP3    H280135   2.875   6.263   0.608  0.5361  0.3727  2.5239
19574TIP3   OH280136   4.125   5.550  14.436 -0.1803 -0.1892 -0.5564
19574TIP3    H180137   4.078   5.485  14.382 -1.1195 -0.5918  0.6991
19574TIP3    H280138   4.201   5.574  14.383 -0.9546 -0.7146 -1.9764
19575TIP3   OH280139   3.618   3.391   1.642  0.5699  0.0381  0.2162
19575TIP3    H180140   3.562   3.368   1.717  1.7824 -2.6084  0.4285
19575TIP3    H280141   3.564   3.371   1.565  0.6304 -0.9484  0.4172
19576TIP3   OH280142   6.722   3.472  15.764 -0.0253  0.3312 -0.3659
19576TIP3    H180143   6.811   3.507  15.761  0.2742 -0.4333 -0.9753
19576TIP3    H280144   6.714   3.421  15.683 -1.3975  1.2549 -0.8467
19577TIP3   OH280145   5.571   6.305  16.982 -0.2340 -0.2360 -0.4113
19577TIP3    H180146   5.548   6.328  17.072 -0.3211  0.9308 -0.7235
19577TIP3    H280147   5.667   6.312  16.980 -0.3150  0.9097 -0.7118
19578TIP3   OH280148   5.066   0.066   0.929 -0.0866 -0.5024 -0.0660
19578TIP3    H180149   5.148   0.105   0.899 -0.3427 -0.5890 -0.9085
19578TIP3    H280150   5.069   0.074   1.024 -0.2482  1.7958 -0.2015
19579TIP3   OH280151   1.879   5.604   5.045 -0.6856 -0.3730  0.3448
19579TIP3    H180152   1.792   5.622   5.081 -0.9849 -3.8019  1.7961
19579TIP3    H280153   1.877   5.638   4.956 -2.7452  1.4625  1.0278
19580TIP3   OH280154   1.471   3.794   2.631 -0.3550 -0.0798 -0.3520
19580TIP3    H180155   1.557   3.753   2.645 -0.3161 -0.1225 -0.7117
19580TIP3    H280156   1.418   3.763   2.705  0.5964  1.8308  1.2448
19581TIP3   OH280157   3.267   4.308   6.142 -0.3971 -0.6312 -0.0193
19581TIP3    H180158   3.288   4.314   6.049 -0.8299 -0.6695 -0.1256
19581TIP3    H280159   3.184   4.355   6.151 -0.0813 -0.1520  0.4498
19582TIP3   OH280160   5.231   0.195   1.360 -0.0620  0.1583 -0.3807
19582TIP3    H180161   5.198   0.215   1.448 -0.0667  0.3332 -0.4200
19582TIP3    H280162   5.154   0.165   1.312 -0.3281  1.2399 -0.6738
19583TIP3   OH280163   0.112   0.944   1.086 -0.1196  0.2775  1.1052
19583TIP3    H180164   0.073   0.874   1.138  1.7991 -1.1663  0.6933
19583TIP3    H280165   0.186   0.974   1.138  0.6197  0.1931  0.1201
19584TIP3   OH280166   2.119   5.472   3.623  0.7226 -0.2232  0.3823
19584TIP3    H180167   2.196   5.514   3.661  1.0709  1.1707 -1.6585
19584TIP3    H280168   2.113   5.510   3.535 -0.9371 -2.0445 -0.3615
19585TIP3   OH280169   3.596   5.241   5.941 -0.4073 -0.1737 -0.4579
19585TIP3    H180170   3.549   5.307   5.992 -0.4763  0.4105 -1.2617
19585TIP3    H280171   3.529   5.176   5.918 -0.4775 -0.1847 -0.2231
19586TIP3   OH280172   6.055   3.579   5.840  0.2752 -0.0018  0.2816
19586TIP3    H180173   6.021   3.627   5.765  0.0417 -0.8379 -0.1702
19586TIP3    H280174   6.095   3.501   5.801  2.2548  0.6920  0.8363
19587TIP3   OH280175   4.724   2.243  13.737  0.2150  0.0973 -0.5077
19587TIP3    H180176   4.635   2.276  13.733 -0.0385 -0.6815 -2.2034
19587TIP3    H280177   4.715   2.148  13.732  1.0969 -0.0357  0.2106
19588TIP3   OH280178   2.182   0.067   2.368  0.4938  0.0835 -0.3669
19588TIP3    H180179   2.264   0.075   2.319  0.5283  1.4205 -0.1363
19588TIP3    H280180   2.122   0.129   2.326  0.3085  0.7470  0.8164
19589TIP3   OH280181   6.528   4.001  14.335  0.3642  0.3084 -0.1951
19589TIP3    H180182   6.512   4.095  14.331 -0.3871  0.1973  0.1054
19589TIP3    H280183   6.614   3.990  14.295 -0.8133  0.8099 -3.1167
19590TIP3   OH280184   4.376   4.535  15.535 -0.6385 -0.7217 -0.4393
19590TIP3    H180185   4.356   4.446  15.505  0.9046 -0.9220 -0.9438
19590TIP3    H280186   4.449   4.563  15.480 -1.2104  0.9462 -0.4094
19591TIP3   OH280187   5.388   4.825   2.840  0.0215 -0.0017  0.1066
19591TIP3    H180188   5.482   4.807   2.849  0.2292  0.1299 -1.4279
19591TIP3    H280189   5.378   4.916   2.868  0.5172  0.2528 -0.5065
19592TIP3   OH280190   1.586   1.769   1.523  0.2210 -0.4623 -0.4883
19592TIP3    H180191   1.645   1.756   1.449  0.5246  1.6818 -0.6910
19592TIP3    H280192   1.643   1.782   1.598 -0.0337 -0.1299 -0.3490
19593TIP3   OH280193   5.578   4.473   4.636  0.0959  0.1009  0.4793
19593TIP3    H180194   5.576   4.567   4.619 -1.3455  0.2646  1.4025
19593TIP3    H280195   5.487   4.450   4.652  0.6413 -1.1162  2.0479
19594TIP3   OH280196   2.725   6.727   4.392  0.1682 -0.0189 -0.4288
19594TIP3    H180197   2.816   6.699   4.390  1.1063  2.7578  0.1295
19594TIP3    H280198   2.707   6.744   4.484 -1.8226 -2.9796 -0.1298
19595TIP3   OH280199   1.998   4.927  11.799 -0.5815  0.2432  0.0478
19595TIP3    H180200   1.984   4.924  11.704 -1.9878  2.4667  0.1056
19595TIP3    H280201   2.046   5.009  11.813  1.8142 -1.2244  1.1070
19596TIP3   OH280202   6.452   0.117  12.400  0.1581  0.1263 -0.1763
19596TIP3    H180203   6.474   0.024  12.400  0.6265  0.2359 -0.5268
19596TIP3    H280204   6.362   0.120  12.368  0.8556 -0.0611 -2.3240
19597TIP3   OH280205   5.165   3.927   5.870  0.3219  0.3204 -0.4707
19597TIP3    H180206   5.189   3.839   5.897  1.4769  0.4808 -0.9152
19597TIP3    H280207   5.156   3.976   5.951  1.3499  0.2029 -0.2766
19598TIP3   OH280208   0.421   3.718  11.340 -0.2721 -0.7265 -0.3665
19598TIP3    H180209   0.446   3.748  11.428 -0.7182 -0.9132 -0.1727
19598TIP3    H280210   0.340   3.669  11.354 -1.0120  0.2650 -1.0287
19599TIP3   OH280211   4.260   2.496   1.747  0.2934  0.5759  0.5052
19599TIP3    H180212   4.305   2.456   1.821 -0.1096  0.4530  0.6864
19599TIP3    H280213   4.330   2.524   1.688  0.5837 -1.0998  0.0016
19600TIP3   OH280214   1.165   4.447   1.349 -0.7299 -0.0926  0.4198
19600TIP3    H180215   1.174   4.542   1.355  0.8040 -0.2470  0.8180
19600TIP3    H280216   1.126   4.432   1.263  3.8233  0.6776 -2.0795
19601TIP3   OH280217   1.050   0.216   1.977 -0.3224  1.0551  0.1660
19601TIP3    H180218   0.971   0.232   2.029  0.1933  0.7083  1.0844
19601TIP3    H280219   1.115   0.277   2.011 -0.0779  1.0709 -0.3151
19602TIP3   OH280220   4.012   3.622   1.374 -0.1093 -0.3322 -0.1230
19602TIP3    H180221   4.101   3.658   1.370 -0.0909 -0.4562 -2.3756
19602TIP3    H280222   4.013   3.564   1.450  1.5313  0.1835  0.2878
19603TIP3   OH280223   4.556   5.482  12.622 -0.0906  0.0697 -0.1487
19603TIP3    H180224   4.572   5.562  12.672  0.1438 -0.0979  0.0506
19603TIP3    H280225   4.610   5.492  12.543  1.0574 -0.5061  0.5394
19604TIP3   OH280226   6.035   4.111  11.994 -0.0213  0.0579  0.0966
19604TIP3    H180227   6.109   4.080  11.942 -0.4196 -2.8109  1.0567
19604TIP3    H280228   5.959   4.102  11.936 -0.1201 -0.7430  0.3370
19605TIP3   OH280229   6.485   3.631  16.842 -0.8081  0.1072 -0.7123
19605TIP3    H180230   6.580   3.621  16.832 -0.8387 -0.5269 -0.4171
19605TIP3    H280231   6.450   3.544  16.822 -1.3052  0.2761 -0.5748
19606TIP3   OH280232   5.992   3.428   6.089  0.5657  0.8358  0.0573
19606TIP3    H180233   5.990   3.508   6.141 -1.1681  0.8097  0.0874
19606TIP3    H280234   5.989   3.458   5.998 -1.3494  0.8422  0.0767
19607TIP3   OH280235   4.137   1.876  14.871  0.1677 -0.2254  0.1460
19607TIP3    H180236   4.108   1.804  14.814 -0.4084 -0.1942  0.4051
19607TIP3    H280237   4.065   1.939  14.870  0.7382  0.4389 -0.2150
19608TIP3   OH280238   5.250   4.761  13.250 -0.1391 -0.1603  0.6182
19608TIP3    H180239   5.265   4.742  13.343  1.3509  0.9336  0.6370
19608TIP3    H280240   5.172   4.817  13.249 -0.3639 -0.4560  1.1743
19609TIP3   OH280241   5.429   2.474  14.435 -0.4579  0.0056 -0.3963
19609TIP3    H180242   5.488   2.550  14.427  1.7113 -1.3860  1.3165
19609TIP3    H280243   5.486   2.399  14.422 -1.1034 -1.5629  4.2328
19610TIP3   OH280244   5.409   3.410   6.202 -0.3757 -0.7066 -0.2875
19610TIP3    H180245   5.391   3.336   6.260 -2.1835 -0.3151 -0.3027
19610TIP3    H280246   5.324   3.433   6.165  0.4020  0.4104 -1.4788
19611TIP3   OH280247   2.343   1.192  13.683  0.1145 -0.2583  0.0009
19611TIP3    H180248   2.296   1.161  13.760  0.2628  2.4826  1.2859
19611TIP3    H280249   2.402   1.120  13.661  0.8135 -0.7652  3.0826
19612TIP3   OH280250   1.355   5.516  15.460 -0.0247 -0.4359 -0.5218
19612TIP3    H180251   1.450   5.506  15.465 -0.1464 -1.7017 -0.2993
19612TIP3    H280252   1.321   5.429  15.480 -1.2829  0.3306  0.8536
19613TIP3   OH280253   1.665   1.798  14.282  0.6069 -0.2058  0.0939
19613TIP3    H180254   1.642   1.866  14.346 -0.4954  1.0248 -1.5445
19613TIP3    H280255   1.593   1.735  14.288 -0.3750  0.7667 -1.0683
19614TIP3   OH280256   4.606   0.736   4.954  0.1752  0.0365 -0.2942
19614TIP3    H180257   4.561   0.806   4.906 -0.2907  0.7252  1.0755
19614TIP3    H280258   4.633   0.674   4.887 -2.0408  0.0506 -1.2925
19615TIP3   OH280259   5.989   1.677  11.195 -0.0803  0.1177 -0.4479
19615TIP3    H180260   5.943   1.751  11.155 -0.4117  0.5848  0.7675
19615TIP3    H280261   5.920   1.629  11.242  0.9435  2.4384  3.9019
19616TIP3   OH280262   4.883   6.245  13.117  0.5132  0.5902  0.1844
19616TIP3    H180263   4.851   6.155  13.108  0.6186  0.6799 -1.2338
19616TIP3    H280264   4.976   6.235  13.139 -0.0117  0.3559  2.6396
19617TIP3   OH280265   4.283   4.833   1.962  0.1649  0.3770  0.3556
19617TIP3    H180266   4.276   4.737   1.959 -0.5880  0.4118  0.8135
19617TIP3    H280267   4.291   4.853   2.055  2.1464  0.6534  0.1710
19618TIP3   OH280268   4.244   6.495   0.533 -0.7708  0.0326 -0.3719
19618TIP3    H180269   4.338   6.514   0.528 -0.9423  1.6097  1.2623
19618TIP3    H280270   4.238   6.420   0.592 -0.5981  0.6235  0.4027
19619TIP3   OH280271   1.269   1.631  15.305 -0.3715  0.1788 -0.4695
19619TIP3    H180272   1.298   1.695  15.369 -0.7541  0.2042 -0.3193
19619TIP3    H280273   1.255   1.682  15.225  1.2198 -0.0281 -0.9211
19620TIP3   OH280274   2.562   0.923  11.385  0.7421  0.1814 -0.2913
19620TIP3    H180275   2.522   0.838  11.370  0.8486  0.2446 -0.9282
19620TIP3    H280276   2.488   0.983  11.396  0.6693  0.1429 -0.5883
19621TIP3   OH280277   6.054   1.480  11.024  0.7514 -0.2368 -0.2255
19621TIP3    H180278   5.982   1.418  11.033  0.5691  0.1137  0.9533
19621TIP3    H280279   6.043   1.540  11.098  2.0975 -0.0280 -0.1695
19622TIP3   OH280280   2.553   3.666  13.958 -0.1338 -0.4448 -0.2253
19622TIP3    H180281   2.621   3.611  13.998  1.6729  2.0075  0.3113
19622TIP3    H280282   2.589   3.692  13.873 -1.1117 -0.3744 -0.6335
19623TIP3   OH280283   1.819   4.390  17.116 -0.3672 -0.1338  0.1210
19623TIP3    H180284   1.799   4.390  17.023  1.6523  0.3179 -0.3610
19623TIP3    H280285   1.914   4.381  17.120 -0.3218  0.7455  2.1101
19624TIP3   OH280286   6.296   2.384  16.422 -0.1017  0.0354  0.5478
19624TIP3    H180287   6.232   2.332  16.470 -1.2026 -0.2258 -1.1380
19624TIP3    H280288   6.284   2.360  16.331  3.4693 -1.2080  0.2260
19625TIP3   OH280289   1.452   0.053  12.075 -0.5546 -0.4222  0.3580
19625TIP3    H180290   1.449   0.098  11.990 -0.6977 -0.7250  0.1986
19625TIP3    H280291   1.462  -0.039  12.052  1.6840 -0.3187  0.7025
19626TIP3   OH280292   2.436   2.569  12.546 -0.3505  0.1892  0.2207
19626TIP3    H180293   2.490   2.497  12.512 -0.1738 -0.2185  1.3211
19626TIP3    H280294   2.387   2.601  12.470 -0.2736 -0.9589 -0.3287
19627TIP3   OH280295   6.189   2.695   1.591 -0.5430 -0.1214  0.8382
19627TIP3    H180296   6.147   2.705   1.506 -0.3187 -0.2957  0.7043
19627TIP3    H280297   6.229   2.780   1.609 -0.9017  0.0272  0.9401
19628TIP3   OH280298   1.775   2.880   2.289 -0.3640 -0.6365 -0.0727
19628TIP3    H180299   1.723   2.841   2.359  0.3110 -1.3275  0.0587
19628TIP3    H280300   1.718   2.948   2.252 -1.2558 -1.1996  0.2280
19629TIP3   OH280301   0.231   5.507   3.586 -0.5188  0.2230 -0.2168
19629TIP3    H180302   0.165   5.439   3.600  0.0415 -0.1368  0.7117
19629TIP3    H280303   0.310   5.459   3.561 -0.3103  0.5827 -0.2525
19630TIP3   OH280304   4.610   6.736   1.171 -0.0611  0.4889 -0.1460
19630TIP3    H180305   4.522   6.699   1.179 -0.0909  0.2783 -1.2113
19630TIP3    H280306   4.633   6.763   1.260 -0.7135 -0.5564  0.3640
19631TIP3   OH280307   3.469   0.607   5.163 -0.0420 -0.6161  0.0535
19631TIP3    H180308   3.374   0.596   5.171 -0.1240  1.0215  2.7776
19631TIP3    H280309   3.506   0.532   5.209 -0.0263 -0.7340 -0.1492
19632TIP3   OH280310   1.016   4.292   5.616 -0.6889  0.1346  0.3769
19632TIP3    H180311   0.922   4.284   5.630 -1.1163  3.0838 -0.0572
19632TIP3    H280312   1.024   4.312   5.522  0.4911 -1.1688  0.1709
19633TIP3   OH280313   5.096   2.559   6.148 -0.1532 -0.2011 -0.6026
19633TIP3    H180314   5.100   2.486   6.209  0.2024  0.2758 -0.0377
19633TIP3    H280315   5.173   2.612   6.168  0.7594 -0.7547 -2.4166
19634TIP3   OH280316   0.514   0.507  11.420 -0.4263 -0.3739 -0.1582
19634TIP3    H180317   0.432   0.517  11.371  0.1257  0.0903 -1.0051
19634TIP3    H280318   0.580   0.552  11.366  0.6281 -1.8056 -0.0998
19635TIP3   OH280319   6.371   4.043  12.117  0.7171 -0.0575 -0.5150
19635TIP3    H180320   6.317   4.097  12.059  0.0551 -2.1620 -2.0235
19635TIP3    H280321   6.347   4.070  12.205  0.3462  1.9778 -1.1968
19636TIP3   OH280322   3.738   6.411   2.023  0.1403 -0.0848 -0.0084
19636TIP3    H180323   3.696   6.365   1.950  0.2103  1.3419 -0.9764
19636TIP3    H280324   3.822   6.366   2.035 -0.4887 -1.2575  0.1848
19637TIP3   OH280325   2.080   3.791   1.108 -0.2210  0.6839  0.3362
19637TIP3    H180326   2.011   3.787   1.043 -0.1355  1.2211  0.2084
19637TIP3    H280327   2.160   3.768   1.060 -0.3605 -0.4026  0.5832
19638TIP3   OH280328   4.314   2.856   5.240 -0.5297 -0.1094  0.6471
19638TIP3    H180329   4.298   2.950   5.225  2.9185  0.4275 -0.5374
19638TIP3    H280330   4.384   2.855   5.305  1.7136 -1.6830 -1.6481
19639TIP3   OH280331   3.876   1.546  11.317 -0.1317 -0.1337  0.0084
19639TIP3    H180332   3.940   1.559  11.247  0.2433 -0.1822  0.3429
19639TIP3    H280333   3.887   1.455  11.344  0.4861  0.1891  0.8813
19640TIP3   OH280334   1.816   1.896   4.566  0.6867  0.0186 -0.6918
19640TIP3    H180335   1.747   1.946   4.609  0.0437 -1.3690 -0.0663
19640TIP3    H280336   1.896   1.946   4.583 -0.1401  1.7619 -1.5957
19641TIP3   OH280337   2.259   3.451   0.920  0.5416 -0.1231 -0.0223
19641TIP3    H180338   2.275   3.371   0.970  1.1063  0.0645  0.1055
19641TIP3    H280339   2.179   3.487   0.956  0.0406 -0.8592 -0.3697
19642TIP3   OH280340   2.785   4.583  14.974 -0.4213  0.2644  0.6446
19642TIP3    H180341   2.740   4.666  14.962  0.2252  0.5647  0.2387
19642TIP3    H280342   2.769   4.535  14.893  1.0889  0.9201 -0.0910
19643TIP3   OH280343   2.079   6.034  15.413  0.5042 -0.5616 -0.0933
19643TIP3    H180344   2.165   5.991  15.408  0.0910 -1.3037 -1.3166
19643TIP3    H280345   2.037   5.993  15.488  0.1613 -2.3031 -1.1783
19644TIP3   OH280346   0.198   2.420  12.884  0.4506 -0.0499 -0.2862
19644TIP3    H180347   0.206   2.423  12.980  0.1458  0.2260 -0.2674
19644TIP3    H280348   0.261   2.485  12.853 -0.1800  0.6071 -0.2252
19645TIP3   OH280349   4.688   3.346   5.883 -0.3299 -0.3471  0.0286
19645TIP3    H180350   4.649   3.335   5.796 -3.0871 -2.3706  1.3711
19645TIP3    H280351   4.620   3.391   5.934  1.6981  1.9015  0.9094
19646TIP3   OH280352   1.618   2.287   0.594 -0.2969 -0.4710 -0.6508
19646TIP3    H180353   1.612   2.378   0.624 -1.3538 -0.4215 -0.9745
19646TIP3    H280354   1.527   2.262   0.577  0.0259 -1.4684 -0.9255
19647TIP3   OH280355   5.271   1.301   1.238 -0.4395 -0.4170  0.3529
19647TIP3    H180356   5.249   1.392   1.218 -0.7551 -0.5085  0.2721
19647TIP3    H280357   5.350   1.306   1.292  0.9740 -0.2226 -1.6628
19648TIP3   OH280358   0.398   4.357  16.300  0.1896  0.2602 -0.1332
19648TIP3    H180359   0.462   4.300  16.255 -0.5440 -1.3380  0.7495
19648TIP3    H280360   0.441   4.442  16.304  2.4177 -0.8225  0.6685
19649TIP3   OH280361   3.782   1.914   4.768 -0.1966  0.0804  0.5130
19649TIP3    H180362   3.848   1.868   4.820  0.7424  0.3272 -0.4246
19649TIP3    H280363   3.743   1.977   4.829  1.3368  0.8132  0.7765
19650TIP3   OH280364   0.577   1.290  15.608  0.5740  0.6055  0.3174
19650TIP3    H180365   0.609   1.347  15.539 -0.0661  0.7777  0.1580
19650TIP3    H280366   0.508   1.340  15.651 -0.1832 -0.1380  0.0054
19651TIP3   OH280367   3.630   4.316  11.556 -0.0038  0.2023 -0.0884
19651TIP3    H180368   3.700   4.356  11.607  0.0341 -0.2207  0.1896
19651TIP3    H280369   3.628   4.367  11.474  1.2073 -0.3383 -0.4750
19652TIP3   OH280370   1.443   4.160  15.687  0.3851 -0.7808 -0.1973
19652TIP3    H180371   1.525   4.208  15.700 -0.0831  0.2519 -0.8915
19652TIP3    H280372   1.401   4.205  15.613 -0.2288 -2.0750 -0.6533
19653TIP3   OH280373   1.191   3.853   1.056  0.1153 -0.5334 -0.6574
19653TIP3    H180374   1.221   3.876   1.144  1.2630 -1.2441 -0.8378
19653TIP3    H280375   1.272   3.845   1.005 -0.5033 -0.7011 -1.6328
19654TIP3   OH280376   4.336   5.461  12.354 -0.0492 -0.2316  0.1497
19654TIP3    H180377   4.241   5.453  12.367 -0.1949  0.2777 -0.5573
19654TIP3    H280378   4.346   5.478  12.261  0.9099 -3.0221 -0.3759
19655TIP3   OH280379   2.398   1.745   0.532  0.2931 -0.0905 -0.5764
19655TIP3    H180380   2.333   1.814   0.515  0.0718 -0.2098 -0.2375
19655TIP3    H280381   2.389   1.727   0.626  0.0725 -0.8530 -0.7347
19656TIP3   OH280382   1.428   4.063   0.385 -0.1309 -0.3357 -0.1615
19656TIP3    H180383   1.466   4.151   0.394  2.3220 -1.5415  3.2122
19656TIP3    H280384   1.478   4.022   0.315  1.5331 -0.2840  0.9542
19657TIP3   OH280385   2.170   1.527   1.078  0.4079 -0.0491  0.4637
19657TIP3    H180386   2.254   1.544   1.036  0.7541 -0.5998  0.9187
19657TIP3    H280387   2.154   1.434   1.062 -0.5825  0.2423 -0.4350
19658TIP3   OH280388   1.699   1.907   2.986 -0.5618  0.7049  0.0244
19658TIP3    H180389   1.736   1.831   3.032 -3.6027 -0.5767  0.6500
19658TIP3    H280390   1.733   1.901   2.897 -1.7207 -2.2971 -0.3349
19659TIP3   OH280391   1.644   5.541   4.702 -0.2503  0.1254 -0.0447
19659TIP3    H180392   1.609   5.456   4.678 -0.3724  0.3924 -0.8317
19659TIP3    H280393   1.654   5.588   4.619 -1.0129  1.1942  0.4340
19660TIP3   OH280394   0.303   4.720  14.731  0.1424  0.4184  0.1931
19660TIP3    H180395   0.263   4.711  14.818  0.5269 -4.0950  0.1688
19660TIP3    H280396   0.397   4.707  14.746  0.0557 -2.1630 -0.8892
19661TIP3   OH280397   2.915   4.834  15.605 -0.2357  0.4119  0.0920
19661TIP3    H180398   2.891   4.849  15.514 -2.0930 -1.9429  0.0856
19661TIP3    H280399   2.951   4.745  15.606  0.6993  0.7690  1.5271
19662TIP3   OH280400   3.969   5.552   4.330 -0.0460 -0.3536 -0.1468
19662TIP3    H180401   3.930   5.624   4.280 -0.9291 -1.3854 -0.9955
19662TIP3    H280402   3.895   5.497   4.355  0.5149 -0.5187  1.2680
19663TIP3   OH280403   4.586   3.987   2.414 -0.3985  0.1575 -0.6144
19663TIP3    H180404   4.625   3.965   2.498  0.7551 -0.6700 -1.3422
19663TIP3    H280405   4.599   4.082   2.406  0.3701  0.0851 -0.2967
19664TIP3   OH280406   5.060   3.659   4.422 -0.1112 -0.1325 -0.2715
19664TIP3    H180407   5.041   3.753   4.424  0.7329  0.0407 -0.2905
19664TIP3    H280408   5.155   3.653   4.414 -0.2062 -0.9894 -0.8786
19665TIP3   OH280409   1.783   4.790   5.700 -0.2386 -0.3908  0.1174
19665TIP3    H180410   1.719   4.819   5.635  2.0347  0.0303 -2.1027
19665TIP3    H280411   1.837   4.867   5.716  0.8248 -1.1943  0.5022
19666TIP3   OH280412   3.214   3.422   4.552  0.1138  0.7254  0.1558
19666TIP3    H180413   3.124   3.424   4.584  0.1959  1.7143  0.3573
19666TIP3    H280414   3.248   3.337   4.581  0.0952  1.4239  2.5088
19667TIP3   OH280415   5.651   0.191  16.987  0.0267 -0.3944  0.0503
19667TIP3    H180416   5.692   0.119  17.034 -0.4805 -1.0042 -0.4132
19667TIP3    H280417   5.557   0.175  16.997 -0.1161  0.8795  0.9522
19668TIP3   OH280418   6.178   1.849  11.885 -0.6150 -0.3124  0.3881
19668TIP3    H180419   6.271   1.827  11.896  0.0464  1.1834 -1.6713
19668TIP3    H280420   6.172   1.942  11.904 -1.8719 -0.5222  1.1819
19669TIP3   OH280421   4.998   2.785  16.288 -0.0418  0.7399 -0.0504
19669TIP3    H180422   5.043   2.839  16.223  3.8131 -0.4902  1.3207
19669TIP3    H280423   4.982   2.702  16.244  1.2690  0.3941  0.0803
19670TIP3   OH280424   5.867   1.239  13.314 -0.2616 -0.3539 -0.5850
19670TIP3    H180425   5.961   1.226  13.301  0.0672  1.4701 -0.3341
19670TIP3    H280426   5.831   1.238  13.225  0.1289 -0.2044 -0.7484
19671TIP3   OH280427   4.608   1.878   1.228  0.9213  0.3468 -0.0713
19671TIP3    H180428   4.516   1.876   1.252  1.3344 -0.0657  1.6369
19671TIP3    H280429   4.611   1.841   1.139 -0.3161 -1.8684  0.7344
19672TIP3   OH280430   6.381   5.137   1.833  0.4807  0.2278 -0.0329
19672TIP3    H180431   6.336   5.154   1.916  0.6399  0.9954 -0.1023
19672TIP3    H280432   6.432   5.058   1.850  0.3941  0.2931  0.5542
19673TIP3   OH280433   1.001   3.382   2.688  0.2179  0.0674  0.3488
19673TIP3    H180434   0.990   3.428   2.772 -0.4577  1.5262 -0.4974
19673TIP3    H280435   0.941   3.426   2.629 -0.0408 -1.5866 -0.6822
19674TIP3   OH280436   4.072   4.213  13.805 -0.5972  0.0241 -0.4715
19674TIP3    H180437   3.983   4.230  13.773 -0.4120  0.2044 -0.8992
19674TIP3    H280438   4.075   4.257  13.890 -0.8697  0.1464 -0.5243
19675TIP3   OH280439   5.038   0.934   1.805 -0.4199  0.5828  0.3499
19675TIP3    H180440   5.078   0.970   1.725  1.6883 -0.8752  0.6628
19675TIP3    H280441   5.095   0.965   1.876 -1.0426  0.1183  1.0636
19676TIP3   OH280442   5.978   4.787  13.153  0.4297  0.5691 -0.2996
19676TIP3    H180443   6.023   4.722  13.207 -0.1452 -2.6923 -3.3567
19676TIP3    H280444   5.886   4.780  13.178  0.3932  0.3740 -0.4921
19677TIP3   OH280445   3.958   4.460   3.297 -0.0429  0.3251  0.3004
19677TIP3    H180446   3.907   4.534   3.265 -0.2099 -0.4854 -1.3810
19677TIP3    H280447   3.983   4.486   3.386 -1.0752  1.8874  0.1813
19678TIP3   OH280448   3.283   5.453   3.688 -0.7145 -0.5751 -0.1223
19678TIP3    H180449   3.254   5.503   3.612 -0.5443 -1.1980 -0.6048
19678TIP3    H280450   3.241   5.367   3.678 -2.3173 -0.0480  1.5468
19679TIP3   OH280451   4.589   0.243   5.324 -1.3539 -0.1310 -1.1885
19679TIP3    H180452   4.497   0.230   5.346 -1.1861 -1.7863 -1.3181
19679TIP3    H280453   4.637   0.186   5.385 -0.4584  0.2533 -1.5127
19680TIP3   OH280454   2.699   6.261   0.606  0.1347  0.8185 -0.3540
19680TIP3    H180455   2.680   6.328   0.671 -0.2112  1.7777 -1.3993
19680TIP3    H280456   2.656   6.293   0.526 -0.2744 -0.7885 -0.8140
19681TIP3   OH280457   3.188   3.323   0.401  0.1335  0.1850 -0.1874
19681TIP3    H180458   3.115   3.370   0.360  0.3402 -0.9306 -1.9581
19681TIP3    H280459   3.207   3.251   0.341  0.9407 -1.1591  1.5783
19682TIP3   OH280460   2.224   4.126   3.975  0.4471 -0.0186  0.5670
19682TIP3    H180461   2.208   4.035   3.999  2.2975 -0.6408 -0.3727
19682TIP3    H280462   2.137   4.163   3.961 -0.3349 -1.6919  0.7855
19683TIP3   OH280463   5.042   2.641   4.107 -0.3406  0.0596 -0.0985
19683TIP3    H180464   5.120   2.682   4.145 -0.8565 -0.5708  1.7365
19683TIP3    H280465   5.075   2.566   4.058  0.3206  0.7018 -0.6557
19684TIP3   OH280466   2.352   2.321  13.597 -0.4508 -0.0558  0.0621
19684TIP3    H180467   2.285   2.273  13.549  1.3714 -0.6147 -2.0775
19684TIP3    H280468   2.351   2.282  13.684 -1.4794 -1.4759 -0.5427
19685TIP3   OH280469   1.048   3.024   2.442  0.4054 -0.0486 -0.2581
19685TIP3    H180470   1.142   3.009   2.449  0.3206 -0.2507  0.6176
19685TIP3    H280471   1.010   2.936   2.436  0.0338 -0.2505  3.1132
19686TIP3   OH280472   5.815   1.265  15.746  0.0902 -0.1010  0.3696
19686TIP3    H180473   5.813   1.329  15.817  1.2777 -0.8130  1.0694
19686TIP3    H280474   5.735   1.283  15.696  0.1189  1.5540  0.8574
19687TIP3   OH280475   3.086   4.072   5.597 -0.4246 -0.0129  0.4592
19687TIP3    H180476   3.172   4.049   5.560 -0.3678  1.6936 -0.5946
19687TIP3    H280477   3.037   3.990   5.597  0.9822 -0.9003  0.4927
19688TIP3   OH280478   5.877   5.439  15.115 -0.2823  0.2085  0.6649
19688TIP3    H180479   5.934   5.428  15.191  1.3507 -0.6324 -0.6008
19688TIP3    H280480   5.929   5.491  15.054 -0.6234 -1.0335 -0.7540
19689TIP3   OH280481   1.126   4.485  13.591  0.8555  0.2386 -0.0608
19689TIP3    H180482   1.071   4.406  13.591 -0.0547  0.5785  4.6037
19689TIP3    H280483   1.074   4.549  13.543  0.6836 -1.3731 -2.1876
19690TIP3   OH280484   2.230   5.793  13.442  1.0602  0.3764 -0.2041
19690TIP3    H180485   2.270   5.835  13.518  0.4974  0.4229  0.0645
19690TIP3    H280486   2.144   5.832  13.435  0.6936 -0.4156 -0.2182
19691TIP3   OH280487   5.838   4.849   0.774 -0.2267  0.0336 -0.0276
19691TIP3    H180488   5.777   4.823   0.843 -0.4521 -0.4367 -0.4008
19691TIP3    H280489   5.845   4.944   0.783 -0.5261  0.0164  0.4213
19692TIP3   OH280490   5.778   5.611  16.225 -0.2435 -0.0480  0.2470
19692TIP3    H180491   5.690   5.575  16.223  0.2133 -1.2341  0.6219
19692TIP3    H280492   5.826   5.556  16.287  1.0592 -0.1339 -0.7776
19693TIP3   OH280493   4.161   6.544   0.252  0.4494  0.0681 -0.0088
19693TIP3    H180494   4.222   6.503   0.190  1.1460  0.6679  0.2584
19693TIP3    H280495   4.193   6.517   0.338  0.2500  0.2709  0.1293
19694TIP3   OH280496   0.591   2.144   4.146  0.1539 -0.4373  0.0839
19694TIP3    H180497   0.611   2.185   4.231  2.1376  0.0012 -0.5487
19694TIP3    H280498   0.510   2.095   4.162 -1.7736  2.7858  1.1930
19695TIP3   OH280499   3.326   0.432  15.601  0.0888  0.3684 -0.2335
19695TIP3    H180500   3.333   0.337  15.608 -2.4848 -0.1070 -2.4005
19695TIP3    H280501   3.292   0.460  15.686 -1.6871 -1.0516 -0.4220
19696TIP3   OH280502   6.555   4.016  12.791  0.1506  0.8011  0.5579
19696TIP3    H180503   6.558   3.922  12.808 -0.6636  0.7410  0.4173
19696TIP3    H280504   6.538   4.056  12.876 -2.3994  0.6018  0.2318
19697TIP3   OH280505   3.638   5.992  10.944  0.1926  0.1380 -0.5888
19697TIP3    H180506   3.732   5.989  10.964  0.1314 -1.0610 -0.4146
19697TIP3    H280507   3.596   5.943  11.015 -0.2278 -2.2626 -2.3480
19698TIP3   OH280508   5.466   1.917  15.070 -0.0822  0.0586  0.6448
19698TIP3    H180509   5.461   1.852  15.139  1.1410 -0.0107  0.6862
19698TIP3    H280510   5.519   1.987  15.107 -0.8473  0.8025  0.3721
19699TIP3   OH280511   5.092   1.317  14.615  0.3093  0.3169 -0.1107
19699TIP3    H180512   5.173   1.366  14.609  1.0675 -0.9689 -0.7294
19699TIP3    H280513   5.045   1.337  14.535  0.4636  0.3107 -0.2031
19700TIP3   OH280514   3.519   2.912   1.489 -0.3365  0.1494 -0.4996
19700TIP3    H180515   3.595   2.955   1.449  0.9530 -1.4750  0.1054
19700TIP3    H280516   3.521   2.940   1.580 -1.6235  1.5949 -0.8640
19701TIP3   OH280517   5.317   4.808  16.319 -0.8839 -0.0073  0.1686
19701TIP3    H180518   5.352   4.834  16.234 -1.1139 -0.1501  0.0289
19701TIP3    H280519   5.247   4.745  16.299 -1.0019  0.0266  0.4568
19702TIP3   OH280520   4.620   0.164  15.348  0.9045 -0.4734  0.1711
19702TIP3    H180521   4.572   0.240  15.381  1.0683 -0.0200 -0.6011
19702TIP3    H280522   4.562   0.126  15.282  0.3650 -1.6630  1.2763
19703TIP3   OH280523   6.274   0.646   0.673  0.1964  0.1684  0.2234
19703TIP3    H180524   6.224   0.711   0.722  0.4372  0.2357  0.3809
19703TIP3    H280525   6.366   0.672   0.684  0.3323 -0.5126  0.7558
19704TIP3   OH280526   2.481   3.638  14.882  0.5235 -0.1557  0.2622
19704TIP3    H180527   2.491   3.709  14.946  2.1715  1.1458 -1.3536
19704TIP3    H280528   2.427   3.675  14.813  0.8961 -0.6641 -0.3135
19705TIP3   OH280529   2.246   6.625  16.226 -0.3245  0.3181 -0.7454
19705TIP3    H180530   2.321   6.631  16.285  0.1219  0.9981 -1.3488
19705TIP3    H280531   2.229   6.532  16.217 -1.3011  0.2173  1.5326
19706TIP3   OH280532   4.335   1.783   1.908  0.3964  0.2431 -0.0765
19706TIP3    H180533   4.283   1.853   1.948  1.5255  1.2549 -0.3061
19706TIP3    H280534   4.382   1.743   1.981 -2.8816 -2.7919  0.6733
19707TIP3   OH280535   1.934   3.275   1.320  0.5109 -0.0361 -0.0939
19707TIP3    H180536   1.845   3.261   1.288 -0.1450  0.2303  1.5344
19707TIP3    H280537   1.988   3.220   1.263 -0.6486 -0.0699 -1.2210
19708TIP3   OH280538   5.154   5.718  15.434  0.3531 -0.6482 -0.0977
19708TIP3    H180539   5.081   5.667  15.470  0.0437 -1.0061 -1.1933
19708TIP3    H280540   5.193   5.660  15.368  0.5505  0.2017 -0.7371
19709TIP3   OH280541   4.660   1.632  14.737  0.1339  0.1755  0.3293
19709TIP3    H180542   4.663   1.727  14.735 -3.1698  0.4520 -2.8650
19709TIP3    H280543   4.749   1.605  14.712  1.3106  2.3107  1.8853
19710TIP3   OH280544   1.153   6.024   4.114  0.1577  0.8413 -0.0465
19710TIP3    H180545   1.185   5.962   4.179  0.7972  1.3494  0.1350
19710TIP3    H280546   1.099   6.085   4.164 -2.0364 -0.6175 -0.5109
19711TIP3   OH280547   1.888   6.431  12.996  0.1836 -0.0088  0.1522
19711TIP3    H180548   1.937   6.399  13.072 -0.0360  0.4997  0.5130
19711TIP3    H280549   1.896   6.361  12.932  1.2504 -0.0042  0.2643
19712TIP3   OH280550   2.621   0.365  12.768  0.3125 -0.2507  0.5402
19712TIP3    H180551   2.648   0.383  12.858 -0.1153  1.1405  0.4218
19712TIP3    H280552   2.698   0.383  12.715 -0.0082  0.9907  0.4590
19713TIP3   OH280553   0.095   4.593   6.081 -0.4017  0.3686  0.0581
19713TIP3    H180554   0.013   4.571   6.124  1.2175 -3.8190  1.4643
19713TIP3    H280555   0.089   4.551   5.995 -0.1014  0.8922 -0.2221
19714TIP3   OH280556   3.655   3.251  10.835  0.6397 -0.6301  0.0289
19714TIP3    H180557   3.712   3.306  10.781  0.5622 -0.6173 -0.0397
19714TIP3    H280558   3.686   3.162  10.819 -0.3141 -0.7727 -1.1676
19715TIP3   OH280559   5.844   1.697   4.129 -0.6797  0.2024  0.1606
19715TIP3    H180560   5.765   1.742   4.100  0.4320  1.9610 -0.3759
19715TIP3    H280561   5.825   1.668   4.218 -1.8031  0.9454  0.1773
19716TIP3   OH280562   4.088   3.340   4.408  0.0591 -0.1008  0.3786
19716TIP3    H180563   4.173   3.365   4.372 -0.0099  1.3684  1.1413
19716TIP3    H280564   4.099   3.250   4.438  0.4793 -0.9518 -2.1015
19717TIP3   OH280565   4.117   2.743   5.678  0.1002  0.2640 -0.5684
19717TIP3    H180566   4.029   2.714   5.657  0.0246  0.0721 -0.0045
19717TIP3    H280567   4.137   2.809   5.612  0.4208 -1.3168 -2.1329
19718TIP3   OH280568   2.432   0.438   0.143 -0.4199  0.1262 -0.1888
19718TIP3    H180569   2.440   0.402   0.232 -1.8211 -0.8418 -0.4345
19718TIP3    H280570   2.341   0.424   0.119 -0.0397  0.2739 -1.8429
19719TIP3   OH280571   3.908   0.702  15.729  0.4058 -0.2007 -0.1853
19719TIP3    H180572   3.823   0.745  15.720  0.0559 -0.6820  0.7534
19719TIP3    H280573   3.892   0.610  15.708  0.7839 -0.2151 -0.4252
19720TIP3   OH280574   4.978   1.465  12.580 -0.7257 -0.3805  0.0808
19720TIP3    H180575   5.024   1.387  12.548  0.0268  0.1317 -0.1096
19720TIP3    H280576   4.888   1.455  12.547 -0.5003 -0.9024 -0.3890
19721TIP3   OH280577   3.705   2.646  12.281  0.3198  0.3463  0.7697
19721TIP3    H180578   3.654   2.685  12.352 -1.7191 -0.7532 -0.0292
19721TIP3    H280579   3.698   2.709  12.209 -0.0087  0.1489  0.6272
19722TIP3   OH280580   3.801   5.751   4.206 -0.5413 -0.2148 -0.3937
19722TIP3    H180581   3.730   5.813   4.221 -0.5241 -0.0770 -0.8877
19722TIP3    H280582   3.769   5.695   4.135  0.3935  0.7121 -1.5929
19723TIP3   OH280583   2.579   1.091  14.013 -0.6611 -0.1045 -0.4310
19723TIP3    H180584   2.617   1.010  14.047  1.3952  1.5681  1.6183
19723TIP3    H280585   2.520   1.121  14.082 -0.0702  0.9645 -0.3538
19724TIP3   OH280586   0.336   0.149  15.001 -0.0235 -0.0221 -0.1580
19724TIP3    H180587   0.304   0.081  14.942 -0.3863 -1.0391  1.1553
19724TIP3    H280588   0.257   0.196  15.030 -0.0763 -0.7360  0.9271
19725TIP3   OH280589   5.376   2.405   2.656  0.2413 -0.1770  0.3067
19725TIP3    H180590   5.328   2.432   2.734  1.6783  0.6988  0.9362
19725TIP3    H280591   5.465   2.387   2.687  0.4361 -1.4356 -0.8613
19726TIP3   OH280592   0.111   6.173   0.321 -0.3549 -0.3608 -0.3415
19726TIP3    H180593   0.143   6.088   0.351  0.7559  0.1555 -0.0200
19726TIP3    H280594   0.136   6.234   0.391  0.3105  0.5035 -1.2986
19727TIP3   OH280595   0.363   1.059   1.133 -0.0007 -0.1935 -0.5440
19727TIP3    H180596   0.335   1.044   1.042 -3.1534 -1.0738  0.4165
19727TIP3    H280597   0.348   1.152   1.148  0.5595 -0.0403 -0.9464
19728TIP3   OH280598   3.645   6.298  13.441  0.5224  0.1828 -0.1994
19728TIP3    H180599   3.570   6.348  13.410  1.0877  0.8605 -0.4880
19728TIP3    H280600   3.617   6.207  13.434 -0.3398  0.4272 -0.1251
19729TIP3   OH280601   4.559   3.473  12.111 -0.1183  0.3692  0.2535
19729TIP3    H180602   4.597   3.394  12.149 -1.0324 -0.2333 -0.0777
19729TIP3    H280603   4.632   3.514  12.064 -0.0718 -1.2681 -1.1858
19730TIP3   OH280604   5.767   2.238   1.670 -0.2608 -0.8069 -0.1974
19730TIP3    H180605   5.827   2.312   1.679  0.1549 -1.1915  0.3329
19730TIP3    H280606   5.680   2.276   1.679 -0.1338 -0.1563 -1.5465
19731TIP3   OH280607   4.355   2.787  12.845  0.0109 -0.3059 -0.4525
19731TIP3    H180608   4.354   2.709  12.789 -0.6021 -2.0066  1.7797
19731TIP3    H280609   4.447   2.810  12.852  0.0067  0.9947 -3.4139
19732TIP3   OH280610   1.450   0.712  13.085 -0.0275 -0.1209  0.1517
19732TIP3    H180611   1.499   0.788  13.053  1.1962 -0.1021  1.8947
19732TIP3    H280612   1.470   0.642  13.023  0.4601  0.4612 -0.3621
19733TIP3   OH280613   3.254   3.603  17.126  0.1889 -0.3448 -0.3353
19733TIP3    H180614   3.169   3.602  17.170  0.9969 -0.2746  1.3017
19733TIP3    H280615   3.253   3.525  17.070 -0.9256 -0.3798 -0.2860
19734TIP3   OH280616   5.030   1.493   2.570  0.1521  0.1531  0.4624
19734TIP3    H180617   5.078   1.536   2.641  0.5777 -0.8000  0.7695
19734TIP3    H280618   5.097   1.468   2.507 -0.3846  2.4692 -1.1286
19735TIP3   OH280619   3.767   3.060   2.310  0.1956 -0.0378  0.2074
19735TIP3    H180620   3.846   3.113   2.316 -0.4966  1.2160 -1.1072
19735TIP3    H280621   3.697   3.118   2.340 -0.9770  0.8615 -3.7553
19736TIP3   OH280622   5.142   1.915   3.660 -0.3142  0.0204 -0.9211
19736TIP3    H180623   5.176   1.833   3.623  0.7557  1.0619 -2.3782
19736TIP3    H280624   5.159   1.980   3.592 -2.7312  1.1611 -0.5488
19737TIP3   OH280625   2.900   5.666  13.092 -0.1722  0.5476 -0.0441
19737TIP3    H180626   2.974   5.727  13.088  0.6075 -0.3487  0.0820
19737TIP3    H280627   2.923   5.606  13.163  0.3840 -1.4848 -1.8232
19738TIP3   OH280628   0.610   6.648   6.398  0.0193  0.3991 -0.4905
19738TIP3    H180629   0.692   6.627   6.443  0.2688  2.5523  0.1719
19738TIP3    H280630   0.549   6.670   6.468 -1.1331 -1.0212 -0.9891
19739TIP3   OH280631   1.014   1.364   6.409  0.1306  0.7284 -0.2237
19739TIP3    H180632   0.968   1.333   6.487 -0.7598  0.0398 -1.0079
19739TIP3    H280633   0.946   1.404   6.354  0.4790 -0.1250 -1.3069
19740TIP3   OH280634   0.305   4.165   1.008  0.3029  0.0704 -0.3478
19740TIP3    H180635   0.398   4.168   0.985  0.4584  0.8001  0.3415
19740TIP3    H280636   0.284   4.254   1.036 -0.3074 -0.3699  0.6645
19741TIP3   OH280637   5.271   3.768   3.155  0.4339 -0.1054  0.0019
19741TIP3    H180638   5.177   3.777   3.168  0.1310 -1.8077 -0.7595
19741TIP3    H280639   5.284   3.785   3.062  0.2321 -3.6180 -0.8386
19742TIP3   OH280640   6.341   4.338  14.077 -0.3764  0.1116  0.3937
19742TIP3    H180641   6.372   4.263  14.026 -0.0392  1.2470 -1.1889
19742TIP3    H280642   6.415   4.361  14.133 -0.7361 -1.1426  1.4037
19743TIP3   OH280643   0.396   4.886  14.491 -0.6105 -0.7360  0.1195
19743TIP3    H180644   0.348   4.846  14.564 -0.1001 -1.4398  0.0796
19743TIP3    H280645   0.359   4.974  14.483  0.9855  0.3463  2.8926
19744TIP3   OH280646   2.896   0.821   3.932 -0.0656 -0.3026  0.3560
19744TIP3    H180647   2.903   0.889   3.865  0.2675 -2.1332 -1.5626
19744TIP3    H280648   2.981   0.820   3.975  0.4747 -0.5572 -0.6917
19745TIP3   OH280649   5.560   2.361  14.680 -0.0768 -0.2462  0.4833
19745TIP3    H180650   5.584   2.453  14.692  0.3459 -0.1390 -1.0540
19745TIP3    H280651   5.476   2.363  14.635 -1.5619 -0.6537  2.9950
19746TIP3   OH280652   4.202   4.567  13.262 -0.3747 -0.7576 -0.5466
19746TIP3    H180653   4.109   4.548  13.268 -0.0759 -2.8912 -1.5911
19746TIP3    H280654   4.244   4.505  13.321  0.4915 -1.0892 -1.4803
19747TIP3   OH280655   6.279   1.200   4.839 -0.2305  0.0580 -0.2944
19747TIP3    H180656   6.270   1.206   4.744 -1.2744  0.0716 -0.2151
19747TIP3    H280657   6.245   1.113   4.860 -1.2896  0.5668  0.1812
19748TIP3   OH280658   2.598   1.054   1.702  0.0894 -0.2705 -0.0208
19748TIP3    H180659   2.591   1.146   1.727  1.4811  0.1611 -1.0901
19748TIP3    H280660   2.692   1.036   1.705  0.0534 -0.9940 -2.0579
19749TIP3   OH280661   3.853   4.731  15.741 -0.0775 -0.5693  0.1117
19749TIP3    H180662   3.783   4.717  15.805 -0.1745  0.9447  0.3862
19749TIP3    H280663   3.816   4.703  15.658 -0.6339 -0.7509  0.4167
19750TIP3   OH280664   3.694   6.724  16.769  0.1047 -0.2057 -0.7118
19750TIP3    H180665   3.660   6.638  16.745 -0.1944 -0.3593  0.2047
19750TIP3    H280666   3.635   6.786  16.727 -1.1104 -0.4678  0.5073
19751TIP3   OH280667   5.544   0.110   5.997  0.1475 -0.0487 -0.2853
19751TIP3    H180668   5.612   0.141   5.938  0.4597  1.7144  0.9115
19751TIP3    H280669   5.539   0.178   6.065 -0.6890 -1.6269  1.3044
19752TIP3   OH280670   1.984   3.762   1.904  0.3645 -0.3499 -0.1066
19752TIP3    H180671   1.966   3.673   1.933 -0.6584  0.2929  1.4064
19752TIP3    H280672   2.079   3.766   1.895  0.4577 -1.4732  0.2328
19753TIP3   OH280673   0.599   0.928  11.173 -0.2935  0.2097  0.6547
19753TIP3    H180674   0.564   0.981  11.101 -0.4938  0.6173  1.0446
19753TIP3    H280675   0.690   0.957  11.181  0.3749 -1.3278 -0.8015
19754TIP3   OH280676   3.018   6.291   3.528  0.1100  0.3892 -0.3233
19754TIP3    H180677   3.107   6.321   3.548  0.7454 -0.9309 -1.0829
19754TIP3    H280678   3.027   6.238   3.450 -1.4370  0.5911 -0.6745
19755TIP3   OH280679   1.565   5.672  16.329 -0.4871  0.3504  0.9171
19755TIP3    H180680   1.511   5.664  16.251 -0.4550 -0.8435  1.0105
19755TIP3    H280681   1.548   5.762  16.360 -2.3768  0.0424  0.9149
19756TIP3   OH280682   5.227   0.294   5.797  0.5108  0.1479  0.6153
19756TIP3    H180683   5.231   0.314   5.891 -0.4952  1.4323  0.4199
19756TIP3    H280684   5.150   0.238   5.788 -0.2184  1.1453  0.4125
19757TIP3   OH280685   4.174   4.109   6.253  0.3528  0.0956 -0.4242
19757TIP3    H180686   4.140   4.153   6.332  2.1941  1.0802 -0.1181
19757TIP3    H280687   4.111   4.040   6.235 -0.1220 -0.1708  1.9367
19758TIP3   OH280688   1.189   5.002  15.675 -0.1561  0.4368  0.6318
19758TIP3    H180689   1.193   4.909  15.652  0.3802  0.6836 -0.3108
19758TIP3    H280690   1.127   5.006  15.748 -1.3068 -0.4648 -0.2625
19759TIP3   OH280691   2.750   1.632  13.214  0.5690  0.2960  0.7169
19759TIP3    H180692   2.793   1.547  13.210  1.4568  0.7586 -0.2136
19759TIP3    H280693   2.659   1.613  13.236  0.9547 -0.8164  1.3995
19760TIP3   OH280694   6.297   4.034   2.149 -0.2413 -0.1422  0.2929
19760TIP3    H180695   6.268   4.089   2.077 -0.4466  0.3794  0.7652
19760TIP3    H280696   6.266   3.946   2.126  0.0402 -0.0520 -0.4343
19761TIP3   OH280697   4.453   0.340   3.565 -0.0350  0.3748  0.1820
19761TIP3    H180698   4.463   0.433   3.545  0.6715  0.5341  1.1727
19761TIP3    H280699   4.358   0.327   3.569 -0.1561  0.8526 -0.8084
19762TIP3   OH280700   5.720   4.851  14.625 -0.2951 -0.7074  0.4798
19762TIP3    H180701   5.658   4.789  14.589 -0.7032 -1.0841  1.7984
19762TIP3    H280702   5.754   4.809  14.704 -0.9206  0.8908  1.6675
19763TIP3   OH280703   2.816   2.624  15.042 -0.2185 -0.0084 -0.3369
19763TIP3    H180704   2.830   2.666  15.127 -0.9720  0.6585 -0.5390
19763TIP3    H280705   2.801   2.532  15.064 -2.3696  0.4800  0.4474
19764TIP3   OH280706   4.577   6.153   2.567 -0.2274 -0.0759  0.1862
19764TIP3    H180707   4.669   6.152   2.539  0.3503  0.5069  1.8859
19764TIP3    H280708   4.563   6.243   2.596 -1.2719 -0.2303  0.1772
19765TIP3   OH280709   0.518   0.620  15.328  0.3483 -0.2553  0.0099
19765TIP3    H180710   0.439   0.674  15.326  0.7993  0.4195  0.0865
19765TIP3    H280711   0.561   0.642  15.411  0.1360 -1.3246  0.4092
19766TIP3   OH280712   4.974   6.689  15.838 -0.6453 -0.7350 -0.0497
19766TIP3    H180713   5.014   6.686  15.751 -0.2967 -0.4316  0.0968
19766TIP3    H280714   5.042   6.656  15.896 -0.8676 -0.9053  0.1140
19767TIP3   OH280715   6.421   0.732   3.211  0.2441  0.1197 -0.1701
19767TIP3    H180716   6.462   0.812   3.179 -1.2354  1.1863  0.5037
19767TIP3    H280717   6.432   0.669   3.139  1.2640  0.9573 -0.7759
19768TIP3   OH280718   4.971   2.759  11.482 -0.0145 -0.2571 -0.4077
19768TIP3    H180719   4.899   2.806  11.438  0.9618  0.6097 -1.1224
19768TIP3    H280720   4.992   2.687  11.423  0.6485  0.3350 -0.9045
19769TIP3   OH280721   1.377   3.241  13.917 -0.5723  0.3129 -0.4846
19769TIP3    H180722   1.352   3.174  13.853 -2.9724 -0.0811  0.7546
19769TIP3    H280723   1.295   3.264  13.961  0.8615  1.0195  1.9964
19770TIP3   OH280724   5.671   4.119  10.820  0.0077  0.4342  0.1558
19770TIP3    H180725   5.594   4.082  10.777  0.3408 -0.7041  0.5029
19770TIP3    H280726   5.641   4.204  10.853 -0.3230  1.2191 -2.0412
19771TIP3   OH280727   1.037   0.259  15.218 -0.4646 -0.2573 -0.0236
19771TIP3    H180728   1.121   0.286  15.256  1.8505  1.9966 -5.6623
19771TIP3    H280729   1.060   0.189  15.157 -2.7675  0.0038 -1.2885
19772TIP3   OH280730   6.215   2.104  14.327  0.3411  0.0043  0.3000
19772TIP3    H180731   6.308   2.095  14.348  0.5513 -0.6690 -0.8319
19772TIP3    H280732   6.212   2.164  14.252 -0.2453  0.9459  1.0483
19773TIP3   OH280733   0.231   1.998   1.962  0.4640 -0.1571  0.4852
19773TIP3    H180734   0.212   1.969   2.051 -0.8020  0.7844  0.5519
19773TIP3    H280735   0.148   2.034   1.930  0.5911 -1.4543 -1.4875
19774TIP3   OH280736   1.253   1.109   6.635  0.2176  0.4799 -0.1748
19774TIP3    H180737   1.219   1.026   6.668 -0.7717  0.8570 -0.2029
19774TIP3    H280738   1.216   1.117   6.547  1.5917  0.2102 -0.8026
19775TIP3   OH280739   5.497   0.311  16.589  0.5278 -0.2615  0.8454
19775TIP3    H180740   5.482   0.218  16.570 -0.3353  0.0088  0.1425
19775TIP3    H280741   5.414   0.341  16.627 -0.2316  0.8729 -1.5528
19776TIP3   OH280742   5.451   4.649  13.983 -0.3259  0.0021  0.1804
19776TIP3    H180743   5.410   4.698  13.911 -0.2799  0.6434  0.5842
19776TIP3    H280744   5.543   4.642  13.957  0.1811  2.1905  1.1843
19777TIP3   OH280745   1.726   2.104  13.368 -0.1697 -0.0018 -0.0783
19777TIP3    H180746   1.705   2.193  13.341  0.5842 -0.1243 -1.1302
19777TIP3    H280747   1.662   2.084  13.437 -0.7929  1.0886 -0.3163
19778TIP3   OH280748   5.861   1.290   5.295 -0.2875 -0.1953 -0.3941
19778TIP3    H180749   5.950   1.315   5.268  0.3642 -1.0271  0.8554
19778TIP3    H280750   5.825   1.246   5.218  0.9001 -1.0489 -0.5060
19779TIP3   OH280751   5.103   0.564  13.574  0.2481  0.4731  0.2813
19779TIP3    H180752   5.074   0.594  13.660  0.3893  1.7017 -0.0867
19779TIP3    H280753   5.030   0.582  13.516  1.7754  4.1451 -0.7719
19780TIP3   OH280754   2.025   3.277  12.526 -0.1326  0.0363 -0.3389
19780TIP3    H180755   2.012   3.183  12.525 -1.7619  0.2370 -1.9217
19780TIP3    H280756   2.048   3.297  12.617  0.2112 -1.8562  0.0164
19781TIP3   OH280757   6.456   1.584   4.588  0.2495  0.1667 -0.0593
19781TIP3    H180758   6.514   1.515   4.558  1.7843  1.5011 -0.2862
19781TIP3    H280759   6.454   1.647   4.516 -2.9134 -0.6026 -0.8069
19782TIP3   OH280760   6.565   2.774   2.382  0.4154 -0.3751  0.4386
19782TIP3    H180761   6.588   2.859   2.419 -1.2310  0.3180 -0.0445
19782TIP3    H280762   6.592   2.779   2.291 -0.8109  0.1141  0.0919
19783TIP3   OH280763   3.797   4.104  12.744 -0.0679  0.4742 -0.1346
19783TIP3    H180764   3.833   4.133  12.828 -0.3596  2.5346 -0.6701
19783TIP3    H280765   3.874   4.087  12.689  0.1072  1.0630 -0.0724
19784TIP3   OH280766   6.648   1.465   2.065  1.2921  0.1370 -0.9037
19784TIP3    H180767   6.721   1.438   2.121  1.0572  2.3510  0.5972
19784TIP3    H280768   6.690   1.498   1.986  1.7738 -0.5364 -0.9451
19785TIP3   OH280769   6.117   0.046   5.520 -0.1052  0.6133 -0.6114
19785TIP3    H180770   6.168   0.126   5.510 -0.8420  1.2417  0.4234
19785TIP3    H280771   6.104   0.037   5.615  0.8871 -1.3428 -0.6210
19786TIP3   OH280772   6.132   6.057  14.167  0.0031  0.3844  0.5196
19786TIP3    H180773   6.149   6.139  14.120 -1.2142  1.1813  1.4012
19786TIP3    H280774   6.100   6.085  14.253 -2.4944 -0.9576  0.1203
19787TIP3   OH280775   0.822   1.495   6.227 -0.1741 -0.3357  0.2274
19787TIP3    H180776   0.797   1.437   6.155  0.1142 -0.6557  0.3819
19787TIP3    H280777   0.784   1.579   6.204  1.1059 -0.0646 -1.0172
19788TIP3   OH280778   1.188   2.524  13.181 -0.1005 -0.0854  0.5490
19788TIP3    H180779   1.125   2.495  13.115 -1.5122 -1.2660  2.3051
19788TIP3    H280780   1.246   2.449  13.193  2.0395  1.1531 -1.3883
19789TIP3   OH280781   2.665   1.655   0.505  0.3245  0.2631 -0.6412
19789TIP3    H180782   2.580   1.699   0.497  1.1320  1.8234 -0.9897
19789TIP3    H280783   2.693   1.639   0.415  0.8441  0.6477 -0.5507
19790TIP3   OH280784   2.771   2.023  17.248  0.1278  0.4694 -0.1106
19790TIP3    H180785   2.769   1.958  17.177 -3.1351 -0.1002  0.3613
19790TIP3    H280786   2.722   2.098  17.214 -3.0809 -0.4955  1.9756
19791TIP3   OH280787   6.207   5.192   1.610 -0.0422  0.4779 -0.6257
19791TIP3    H180788   6.157   5.111   1.601 -2.3528  1.8489 -0.9709
19791TIP3    H280789   6.271   5.174   1.679 -1.2657 -1.2908  0.1089
19792TIP3   OH280790   0.145   3.379   6.675 -0.8032 -0.2858 -0.1663
19792TIP3    H180791   0.163   3.285   6.673  0.5726 -0.0295 -1.7502
19792TIP3    H280792   0.083   3.393   6.602  0.7931  0.3170 -1.4747
19793TIP3   OH280793   1.604   4.423   3.819 -0.6220  0.0264  0.1252
19793TIP3    H180794   1.529   4.464   3.776  0.0032  0.2624 -0.7444
19793TIP3    H280795   1.573   4.405   3.908 -1.2557  1.3949  0.2005
19794TIP3   OH280796   2.217   4.037   1.850  0.8554  0.7497  0.5760
19794TIP3    H180797   2.152   4.081   1.905  0.6354  0.7159  0.3455
19794TIP3    H280798   2.176   4.032   1.763  1.3369  1.1202  0.3218
19795TIP3   OH280799   0.136   6.254  12.556  0.1034  0.0043 -0.3127
19795TIP3    H180800   0.187   6.245  12.637  0.0167 -1.0753 -0.3590
19795TIP3    H280801   0.196   6.296  12.495  0.3239  0.4117  0.1790
19796TIP3   OH280802   3.324   4.560   5.702  0.3276 -0.3542 -0.5128
19796TIP3    H180803   3.411   4.525   5.683  0.0153 -0.6930 -1.3503
19796TIP3    H280804   3.296   4.514   5.781  1.7096  1.1743  0.9516
19797TIP3   OH280805   4.049   5.764  12.351 -0.1018  0.0650  0.5408
19797TIP3    H180806   3.999   5.834  12.310  1.8787  0.7671 -0.8191
19797TIP3    H280807   4.007   5.683  12.321 -0.1553  0.6204 -0.9503
19798TIP3   OH280808   2.443   0.910   3.402 -0.1127 -0.5439  0.3559
19798TIP3    H180809   2.445   0.869   3.489 -1.2373  0.5703  0.9527
19798TIP3    H280810   2.403   0.996   3.418  3.3064  1.4048 -0.5896
19799TIP3   OH280811   3.102   5.489  13.338  0.7420  0.3620  0.1259
19799TIP3    H180812   3.006   5.487  13.335  0.6854  1.7622  0.0860
19799TIP3    H280813   3.130   5.420  13.278 -0.2437  0.4607 -0.4672
19800TIP3   OH280814   3.882   1.538  13.964  0.1395 -0.3983 -0.5836
19800TIP3    H180815   3.971   1.537  13.999 -0.3500  1.8633  0.8973
19800TIP3    H280816   3.887   1.598  13.889 -0.4038  0.9634  0.4329
19801TIP3   OH280817   0.879   3.149   1.809 -0.0747  0.1082 -0.1233
19801TIP3    H180818   0.897   3.242   1.798  2.2757 -0.2504  0.3333
19801TIP3    H280819   0.834   3.123   1.729  0.5854  1.3283 -0.9070
19802TIP3   OH280820   0.191   3.540   0.220 -0.2260 -0.5305  0.2646
19802TIP3    H180821   0.144   3.523   0.139 -1.6720  0.9482  0.7257
19802TIP3    H280822   0.122   3.563   0.283  1.0683  4.3635  0.3345
19803TIP3   OH280823   1.198   4.044  15.825 -0.0399 -0.1947  0.7092
19803TIP3    H180824   1.156   3.961  15.801  0.8835 -0.5166  0.1770
19803TIP3    H280825   1.176   4.103  15.753  1.4707 -0.7371 -0.2535
19804TIP3   OH280826   1.501   0.817  12.348 -0.5769  0.3063 -0.6220
19804TIP3    H180827   1.447   0.883  12.393 -2.0247  1.3346 -3.6119
19804TIP3    H280828   1.584   0.862  12.331  0.4148 -0.4403  1.7300
19805TIP3   OH280829   6.383   5.580  15.419 -0.7855 -0.6317  0.6907
19805TIP3    H180830   6.323   5.518  15.378  0.1745 -0.0609 -1.8092
19805TIP3    H280831   6.345   5.666  15.401 -1.1616 -0.3827  2.5024
19806TIP3   OH280832   6.682   5.542   0.101  0.2124 -0.2900  0.0342
19806TIP3    H180833   6.699   5.636   0.090  2.6775 -0.6311  0.2780
19806TIP3    H280834   6.589   5.537   0.121  0.2105  2.2098  1.1047
19807TIP3   OH280835   4.793   2.690   4.066  0.0089  0.3816 -0.0106
19807TIP3    H180836   4.886   2.680   4.085 -0.1607 -2.7740 -0.3077
19807TIP3    H280837   4.791   2.719   3.974  0.6541  2.1455  0.4938
19808TIP3   OH280838   0.006   1.060   2.410  0.2977  0.0016  0.1483
19808TIP3    H180839  -0.082   1.077   2.377  0.2137 -0.5033  0.1108
19808TIP3    H280840  -0.009   1.019   2.496  0.4832 -0.7184 -0.1574
19809TIP3   OH280841   2.670   4.993   0.472 -0.3439  0.2118  0.3255
19809TIP3    H180842   2.741   4.950   0.425 -1.5084  0.5418 -1.8958
19809TIP3    H280843   2.659   4.941   0.553  3.1999  0.9501  1.4286
19810TIP3   OH280844   5.269   0.503   3.969 -0.1136 -0.3880 -0.0031
19810TIP3    H180845   5.218   0.547   3.900 -1.5071 -1.0643  0.5522
19810TIP3    H280846   5.203   0.455   4.020  0.8474  0.2871  1.9564
19811TIP3   OH280847   0.129   4.655  13.024  0.1820  0.1160 -0.6049
19811TIP3    H180848   0.217   4.691  13.012  0.1309  0.1787 -0.7943
19811TIP3    H280849   0.071   4.720  12.985  0.0552  0.0407 -0.5446
19812TIP3   OH280850   0.872   3.547  13.467  0.5538 -0.0383  0.0235
19812TIP3    H180851   0.940   3.484  13.443  0.4807  0.8047 -2.6955
19812TIP3    H280852   0.838   3.580  13.383 -3.1410 -0.3054  1.2139
19813TIP3   OH280853   2.679   0.849   2.548  0.1963 -0.0929 -0.3075
19813TIP3    H180854   2.648   0.810   2.630 -1.0925  0.3606 -0.5534
19813TIP3    H280855   2.729   0.925   2.575 -2.4622  1.6615  0.0774
19814TIP3   OH280856   6.316   6.592  14.219  0.5116  0.1700  0.8790
19814TIP3    H180857   6.290   6.589  14.126 -1.2472  0.1121  1.3377
19814TIP3    H280858   6.363   6.510  14.233  1.2864  0.4234 -0.0804
19815TIP3   OH280859   2.630   1.200   5.915 -0.6068  0.5667  0.3813
19815TIP3    H180860   2.713   1.247   5.912  0.1574 -0.7800 -0.8135
19815TIP3    H280861   2.640   1.140   5.989 -1.3362  1.8022  1.5116
19816TIP3   OH280862   1.449   3.673   0.250  0.2842 -0.3765  0.5302
19816TIP3    H180863   1.357   3.701   0.252  0.8722  1.6560  0.7256
19816TIP3    H280864   1.444   3.578   0.242 -1.8720 -0.1462 -3.2178
19817TIP3   OH280865   5.566   5.559  12.810  0.1839 -0.1418  0.3943
19817TIP3    H180866   5.552   5.567  12.715 -1.3301 -1.2325  0.4912
19817TIP3    H280867   5.659   5.538  12.818  0.1959 -0.6979 -0.9015
19818TIP3   OH280868   0.122   5.612  13.409 -0.1959 -0.3600  0.3931
19818TIP3    H180869   0.132   5.608  13.313  0.1597 -1.9558  0.4623
19818TIP3    H280870   0.044   5.560  13.427 -1.5832  1.7737  0.8418
19819TIP3   OH280871   2.474   5.520  15.093  0.5220  1.0332  0.1342
19819TIP3    H180872   2.425   5.600  15.113  0.2550  0.9365 -0.1288
19819TIP3    H280873   2.528   5.543  15.017 -0.4251  0.6274 -0.6879
19820TIP3   OH280874   5.003   6.695  14.150  0.6354  0.7841 -0.5405
19820TIP3    H180875   5.035   6.775  14.191  1.1651  1.1655 -1.6668
19820TIP3    H280876   4.918   6.679  14.191  0.8584  1.5008  0.2305
19821TIP3   OH280877   3.799   4.041   1.840  0.3271  0.5674  0.7840
19821TIP3    H180878   3.889   4.010   1.845  0.2656  0.1187 -0.5209
19821TIP3    H280879   3.747   3.963   1.822 -0.5014  0.6232  2.6638
19822TIP3   OH280880   5.462   4.841   0.603 -0.4533 -0.7808  1.0077
19822TIP3    H180881   5.367   4.847   0.604 -0.4617 -0.9431  1.1886
19822TIP3    H280882   5.482   4.765   0.657 -0.3092 -1.9179 -0.5758
19823TIP3   OH280883   2.525   3.463   1.207 -0.0689 -0.0264 -0.5972
19823TIP3    H180884   2.570   3.453   1.123 -1.5857 -0.0796 -1.4522
19823TIP3    H280885   2.433   3.443   1.187 -0.3392 -0.8951  1.2578
19824TIP3   OH280886   4.136   1.821   5.140 -0.2895 -0.0475  0.2209
19824TIP3    H180887   4.161   1.880   5.211 -0.1116  0.4964 -0.2849
19824TIP3    H280888   4.184   1.854   5.064 -0.0697 -0.9434 -0.0344
19825TIP3   OH280889   5.784   5.846   2.472  0.0595  0.0892  0.1820
19825TIP3    H180890   5.844   5.810   2.538 -0.3961 -1.8183 -0.3853
19825TIP3    H280891   5.706   5.791   2.478 -1.1359  1.7208  0.0078
19826TIP3   OH280892   0.895   2.625  11.459 -0.9383  0.8068 -0.3412
19826TIP3    H180893   0.868   2.587  11.542 -0.3596 -0.8517 -0.8738
19826TIP3    H280894   0.817   2.621  11.404 -0.5507 -0.9648 -0.8318
19827TIP3   OH280895   3.719   5.196   0.279 -0.3569 -0.5016 -1.1737
19827TIP3    H180896   3.756   5.125   0.332 -1.5210 -1.2700 -1.3569
19827TIP3    H280897   3.631   5.166   0.257 -0.9227  1.0655 -1.1591
19828TIP3   OH280898   1.274   3.857   4.004  0.0220  0.6883 -0.0706
19828TIP3    H180899   1.278   3.938   4.055  3.4317  0.9514 -0.5279
19828TIP3    H280900   1.363   3.821   4.008 -0.3117 -0.8898 -3.2323
19829TIP3   OH280901   4.496   3.850   0.705  0.2348  0.8347 -0.0132
19829TIP3    H180902   4.439   3.839   0.629 -0.4709  1.7700  0.3659
19829TIP3    H280903   4.508   3.761   0.739  0.4451  0.4249 -1.1213
19830TIP3   OH280904   3.682   0.864  15.724 -0.0333 -0.1070  0.2817
19830TIP3    H180905   3.668   0.907  15.809 -1.1741 -0.0663  0.0817
19830TIP3    H280906   3.682   0.935  15.660  1.4257 -0.0687  0.2776
19831TIP3   OH280907   2.693   0.611  11.335  0.1093  0.6858 -0.5885
19831TIP3    H180908   2.700   0.699  11.296 -0.1735  0.6093 -0.8160
19831TIP3    H280909   2.623   0.569  11.286 -0.6535  0.7880  0.3904
19832TIP3   OH280910   1.692   2.342  13.148  0.2529 -0.0517  0.4921
19832TIP3    H180911   1.783   2.312  13.145  0.0452 -0.7696  1.1903
19832TIP3    H280912   1.699   2.437  13.143  0.9494 -0.1524 -1.1289
19833TIP3   OH280913   0.081   0.311  14.641  0.5167  0.1173  0.3861
19833TIP3    H180914  -0.012   0.296  14.626  0.9842 -1.3684 -1.4232
19833TIP3    H280915   0.097   0.399  14.607 -0.0608  0.0145 -0.1666
19834TIP3   OH280916   2.502   4.415   0.812  0.0909  0.2746  0.0398
19834TIP3    H180917   2.456   4.337   0.843  1.1102  0.0266  0.9949
19834TIP3    H280918   2.517   4.467   0.892 -0.1056  1.1861 -0.5087
19835TIP3   OH280919   0.183   1.659   5.970  1.2527 -0.0730 -0.2421
19835TIP3    H180920   0.246   1.720   6.007  1.2575  0.2650 -0.7871
19835TIP3    H280921   0.192   1.579   6.021  3.3418 -0.6367 -1.3992
19836TIP3   OH280922   0.826   3.030  11.946 -0.1232  0.1362 -0.4879
19836TIP3    H180923   0.771   3.033  12.024  1.2114 -1.8998  0.5964
19836TIP3    H280924   0.895   3.095  11.962 -0.1931  0.1490 -0.2414
19837TIP3   OH280925   4.175   2.618   4.052  0.5719  0.1907 -0.5648
19837TIP3    H180926   4.232   2.543   4.066  0.8513  0.8704  2.8721
19837TIP3    H280927   4.233   2.694   4.056 -0.0536  0.7191 -1.2023
19838TIP3   OH280928   1.374   0.641   4.774  1.0961 -0.1428  0.9347
19838TIP3    H180929   1.322   0.640   4.855  1.5449  1.4183  1.2692
19838TIP3    H280930   1.384   0.548   4.751 -0.3739 -0.5494  1.7931
19839TIP3   OH280931   4.876   4.798  15.566 -0.0770  0.7205  0.1184
19839TIP3    H180932   4.800   4.747  15.596  0.1565  0.5385  0.4028
19839TIP3    H280933   4.856   4.818  15.475 -1.3739  2.3381  0.7137
19840TIP3   OH280934   3.585   6.670   4.270 -0.1821  0.9077 -0.5404
19840TIP3    H180935   3.630   6.745   4.232 -2.0049  1.7379 -1.1940
19840TIP3    H280936   3.559   6.700   4.358  2.1727 -0.2669  0.6488
19841TIP3   OH280937   3.814   1.277  15.390  0.1512 -0.2752 -0.0470
19841TIP3    H180938   3.798   1.261  15.297  1.4836 -1.7197 -0.0723
19841TIP3    H280939   3.865   1.358  15.393 -2.5484  1.5662 -0.2881
19842TIP3   OH280940   4.938   5.558   2.639  0.8956  0.1645 -0.2366
19842TIP3    H180941   5.008   5.573   2.575 -0.4388  1.4140 -1.5033
19842TIP3    H280942   4.857   5.571   2.589 -0.3224 -2.3422  0.8914
19843TIP3   OH280943   1.900   2.659   4.259  0.1747 -0.0901  0.5126
19843TIP3    H180944   1.875   2.740   4.303 -0.4014  0.4781 -0.8073
19843TIP3    H280945   1.895   2.680   4.166  0.8651 -1.3974  0.1616
19844TIP3   OH280946   4.952   4.705   2.655 -0.6247 -0.2438  0.5954
19844TIP3    H180947   5.003   4.623   2.656 -0.7607 -0.3320  0.3328
19844TIP3    H280948   5.001   4.764   2.712 -0.4737 -0.4786  0.7103
19845TIP3   OH280949   5.825   1.591  13.328 -0.1281 -0.0857  0.0674
19845TIP3    H180950   5.803   1.623  13.415  1.1409  0.3701  0.2484
19845TIP3    H280951   5.902   1.535  13.342  1.4525  1.7103 -0.9821
19846TIP3   OH280952   3.905   2.654   2.459 -0.2875 -0.2116 -0.0559
19846TIP3    H180953   3.818   2.616   2.466  0.5228 -1.9672  1.0507
19846TIP3    H280954   3.964   2.589   2.498  1.6946  0.3249 -1.9425
19847TIP3   OH280955   2.336   3.250   6.047  0.3258  0.2758  0.0637
19847TIP3    H180956   2.246   3.258   6.015 -0.2221 -0.8310  1.2303
19847TIP3    H280957   2.377   3.187   5.988 -0.3106 -0.8204  0.7628
19848TIP3   OH280958   4.056   0.568   4.676 -0.0924 -0.3022 -0.0454
19848TIP3    H180959   4.103   0.508   4.618 -1.2443  0.3938 -1.7611
19848TIP3    H280960   4.107   0.649   4.673  0.8994 -0.8318  1.4703
19849TIP3   OH280961   3.523   4.788   0.157  0.2848 -0.1460  0.2573
19849TIP3    H180962   3.523   4.702   0.115 -0.3064 -0.3888  0.7288
19849TIP3    H280963   3.430   4.807   0.171  0.4668 -0.4879  2.2581
19850TIP3   OH280964   3.944   1.036   1.553 -0.0811 -0.2701  0.3608
19850TIP3    H180965   3.946   1.043   1.649 -0.1101 -0.0031  0.3432
19850TIP3    H280966   4.027   1.074   1.524 -0.0777 -0.3390  0.2794
19851TIP3   OH280967   3.638   4.186  13.048 -0.4509  0.2623 -0.6803
19851TIP3    H180968   3.727   4.158  13.029 -0.0206  0.7635  0.5027
19851TIP3    H280969   3.586   4.106  13.047  0.6262 -0.5490  1.9737
19852TIP3   OH280970   6.149   4.473   2.364  0.1994 -0.3802  0.2804
19852TIP3    H180971   6.140   4.513   2.450  1.5573  1.4587 -0.3689
19852TIP3    H280972   6.160   4.380   2.381  1.7533  0.1038  2.1768
19853TIP3   OH280973   2.958   6.408   0.085 -0.1538  0.0251 -0.0982
19853TIP3    H180974   2.959   6.418  -0.010 -1.2736  0.2755 -0.0951
19853TIP3    H280975   3.050   6.390   0.108  0.3217  1.0717 -1.0920
19854TIP3   OH280976   2.585   0.268  11.380  0.1414  0.3444  0.0085
19854TIP3    H180977   2.538   0.350  11.399 -0.9506 -0.2827  0.0737
19854TIP3    H280978   2.677   0.292  11.385 -0.1544  1.3635  0.9926
19855TIP3   OH280979   1.301   5.037  11.899  0.4711 -0.4148 -0.3510
19855TIP3    H180980   1.290   4.982  11.976  0.0850  0.3912  0.1830
19855TIP3    H280981   1.394   5.055  11.895  0.4826 -0.3966 -0.0249
19856TIP3   OH280982   4.844   2.792   2.388  0.1068 -0.1431  0.1719
19856TIP3    H180983   4.895   2.805   2.468  1.8134 -0.5908 -0.8079
19856TIP3    H280984   4.811   2.879   2.366  1.5723  0.4235  0.1153
19857TIP3   OH280985   4.202   3.780  14.897 -0.0395  0.5066  0.0375
19857TIP3    H180986   4.124   3.773  14.842  0.7570 -0.7833 -1.0328
19857TIP3    H280987   4.272   3.805  14.835  1.2474 -2.7009 -0.0163
19858TIP3   OH280988   0.896   5.931   1.238 -0.1333  0.3320 -0.8664
19858TIP3    H180989   0.979   5.897   1.206  0.3506 -1.2239  1.8045
19858TIP3    H280990   0.849   5.854   1.269 -1.0404  1.5682  0.9711
19859TIP3   OH280991   5.839   3.143  10.920 -0.6607  0.6146  0.0127
19859TIP3    H180992   5.834   3.237  10.902 -1.0357  0.3608 -1.3442
19859TIP3    H280993   5.762   3.106  10.876 -0.2388 -0.3934  0.0865
19860TIP3   OH280994   2.275   4.364  13.490 -0.3749 -0.1963 -0.1134
19860TIP3    H180995   2.267   4.366  13.395  1.0786 -2.3203 -0.3730
19860TIP3    H280996   2.277   4.270  13.511  0.1265  0.2242  1.9164
19861TIP3   OH280997   3.800   1.462   1.286 -0.2445 -0.2514  0.6460
19861TIP3    H180998   3.864   1.478   1.217 -0.6438 -1.4085 -0.0248
19861TIP3    H280999   3.831   1.514   1.360 -0.3393  1.8299 -0.6829
19862TIP3   OH281000   1.884   4.854  15.932 -0.0680 -0.5191 -0.6876
19862TIP3    H181001   1.868   4.864  15.838  0.1986  0.1428 -0.6739
19862TIP3    H281002   1.873   4.943  15.967  0.2088 -0.6922 -0.1558
19863TIP3   OH281003   0.505   5.327  16.720  0.1088 -0.1318  0.1299
19863TIP3    H181004   0.572   5.380  16.761  0.9594 -0.1848 -1.1418
19863TIP3    H281005   0.425   5.349  16.768  0.2671  2.8445 -0.7865
19864TIP3   OH281006   2.478   0.614   1.395 -0.6445  0.1990 -0.4687
19864TIP3    H181007   2.493   0.552   1.466  0.9491 -0.8991 -1.6749
19864TIP3    H281008   2.552   0.674   1.399 -0.7339  0.3525 -0.9608
19865TIP3   OH281009   0.037   1.953  13.602 -0.6139 -0.6493  0.5181
19865TIP3    H181010   0.068   2.032  13.644 -1.3536  1.1669 -2.0767
19865TIP3    H281011   0.106   1.889  13.616  0.9675  1.0786  0.9864
19866TIP3   OH281012   4.161   5.337   4.021  0.1006  0.1243 -0.3174
19866TIP3    H181013   4.209   5.281   3.959  0.8811  0.2288  0.1897
19866TIP3    H281014   4.190   5.307   4.107 -1.1266 -0.1445  0.0169
19867TIP3   OH281015   3.821   0.292   2.397 -0.4305  0.5207 -0.0163
19867TIP3    H181016   3.760   0.221   2.416 -0.9783  0.3403 -2.1795
19867TIP3    H281017   3.769   0.357   2.349  0.3084  1.9305  1.0181
19868TIP3   OH281018   6.562   4.247   2.057 -0.1900 -0.0691 -0.3331
19868TIP3    H181019   6.515   4.270   2.137  0.0533  0.0126 -0.2146
19868TIP3    H281020   6.582   4.154   2.067  2.4666  0.5496  1.0721
19869TIP3   OH281021   4.729   4.464   4.143 -0.4878  0.8443  0.1821
19869TIP3    H181022   4.703   4.374   4.165 -3.2513  2.0457  2.3819
19869TIP3    H281023   4.821   4.469   4.171 -0.8511 -0.7591  1.8710
19870TIP3   OH281024   5.136   6.510  14.855 -0.1023 -0.2180 -0.0367
19870TIP3    H181025   5.167   6.514  14.764  0.1906  0.7732  0.0991
19870TIP3    H281026   5.211   6.474  14.903 -0.7679 -2.1956 -0.3899
19871TIP3   OH281027   0.241   5.231   0.149  0.3278  0.5779  0.5299
19871TIP3    H181028   0.257   5.318   0.187 -0.8208  0.0433  2.3747
19871TIP3    H281029   0.324   5.185   0.162  0.3273  0.7901  1.3787
19872TIP3   OH281030   0.945   0.499   4.983  0.1122  0.0794 -0.3415
19872TIP3    H181031   0.887   0.542   4.920  2.9661  1.1692 -2.4234
19872TIP3    H281032   0.951   0.561   5.056  2.9401  2.8257 -2.6259
19873TIP3   OH281033   3.378   4.279   1.702 -0.5822 -0.2282  0.4099
19873TIP3    H181034   3.408   4.240   1.621 -3.8016 -1.8906 -0.1466
19873TIP3    H281035   3.316   4.347   1.675 -0.5104  0.3071  1.5047
19874TIP3   OH281036   2.473   1.155  12.886  0.3678 -0.4197 -0.1709
19874TIP3    H181037   2.559   1.155  12.844  0.5680 -2.0076  0.1715
19874TIP3    H281038   2.490   1.187  12.975  0.7012 -1.1349  0.0341
19875TIP3   OH281039   5.997   6.429   5.850  0.3521  0.0163  0.0961
19875TIP3    H181040   5.909   6.431   5.888  1.1651  0.3508  2.0980
19875TIP3    H281041   6.008   6.339   5.819 -0.7890  0.0568 -0.4885
19876TIP3   OH281042   4.803   6.631  12.404 -0.3393  0.4416 -0.1182
19876TIP3    H181043   4.765   6.599  12.486  0.2068 -0.2105 -0.1045
19876TIP3    H281044   4.728   6.646  12.346 -0.7271  0.9119  0.5051
19877TIP3   OH281045   0.110   6.277   1.053 -0.3293 -0.3316  0.1361
19877TIP3    H181046   0.103   6.209   0.986 -0.8348 -0.1958  0.0436
19877TIP3    H281047   0.114   6.359   1.004  0.9486 -0.3179  0.2249
19878TIP3   OH281048   5.476   4.421  14.104 -0.2272 -0.0004 -0.6918
19878TIP3    H181049   5.490   4.507  14.064 -0.9667  0.8278  0.7532
19878TIP3    H281050   5.434   4.440  14.188 -0.1801 -1.7683 -0.2291
19879TIP3   OH281051   6.505   2.504  16.976  0.5662 -0.0245  0.4570
19879TIP3    H181052   6.589   2.463  16.994 -0.1779 -1.6580  0.4283
19879TIP3    H281053   6.448   2.476  17.048 -0.2573  0.0624 -0.1357
19880TIP3   OH281054   6.088   1.409   2.091  0.3029 -0.3256  0.0336
19880TIP3    H181055   6.074   1.482   2.151  1.7724  0.6160 -0.7264
19880TIP3    H281056   6.183   1.397   2.089  0.2742 -0.5287 -1.8729
19881TIP3   OH281057   3.592   5.312  14.986 -0.4571  0.1124  0.7036
19881TIP3    H181058   3.619   5.281  14.900 -0.4281 -1.0054  1.1029
19881TIP3    H281059   3.500   5.336  14.974 -0.4870 -0.1490  0.3952
19882TIP3   OH281060   1.338   3.518   4.001 -0.5212 -0.0214  0.0651
19882TIP3    H181061   1.408   3.465   4.040 -0.4413  0.2151  0.2435
19882TIP3    H281062   1.332   3.486   3.911 -2.6977 -2.6286  1.0011
19883TIP3   OH281063   6.443   6.594  15.088 -0.0906  0.0575  0.6991
19883TIP3    H181064   6.360   6.642  15.080 -0.6316 -1.0320 -0.7296
19883TIP3    H281065   6.420   6.503  15.071  1.4208 -0.2485  0.1147
19884TIP3   OH281066   6.653   4.794  16.316  0.0580 -0.1470  0.0279
19884TIP3    H181067   6.600   4.823  16.390 -1.9547  0.0973 -1.4266
19884TIP3    H281068   6.687   4.875  16.278  1.4930 -0.2998  0.9220
19885TIP3   OH281069   1.907   5.572  13.939  0.0801 -0.5583 -0.0259
19885TIP3    H181070   1.894   5.605  13.850 -1.7785 -1.7199 -0.2355
19885TIP3    H281071   1.819   5.566  13.976  0.8785  2.6439  3.0022
19886TIP3   OH281072   2.970   6.584  12.268  0.0567  0.0880 -0.3610
19886TIP3    H181073   2.895   6.525  12.268 -0.5782  0.7481 -3.2345
19886TIP3    H281074   2.947   6.651  12.332 -1.2380 -0.4012 -0.2794
19887TIP3   OH281075   1.724   1.124  12.811 -0.0478 -0.1889 -0.0321
19887TIP3    H181076   1.645   1.072  12.820 -0.8217  1.0230  0.4801
19887TIP3    H281077   1.707   1.183  12.738  1.2173 -1.2954 -1.2808
19888TIP3   OH281078   0.600   0.202  13.645 -0.1242  0.3340  0.5878
19888TIP3    H181079   0.567   0.291  13.630 -0.2316  0.3144  0.7002
19888TIP3    H281080   0.581   0.156  13.564 -1.6323 -0.0508  1.1130
19889TIP3   OH281081   4.737   6.393   0.204 -0.4445 -0.4746  0.2990
19889TIP3    H181082   4.665   6.332   0.220 -0.4532  0.0620  2.7288
19889TIP3    H281083   4.695   6.479   0.200 -0.0184 -0.2043  1.3102
19890TIP3   OH281084   0.972   3.299   3.220 -0.0509 -0.2852  0.2147
19890TIP3    H181085   0.936   3.306   3.132 -1.4704  0.2981  0.8115
19890TIP3    H281086   1.064   3.277   3.207  0.1170  1.2191 -1.4278
19891TIP3   OH281087   1.772   6.376   3.306 -0.2375 -0.3429 -0.5717
19891TIP3    H181088   1.746   6.412   3.391  0.5262 -0.4596 -0.2797
19891TIP3    H281089   1.694   6.330   3.274  0.3498 -3.1121  1.5641
19892TIP3   OH281090   2.021   0.417  12.491 -0.2463 -0.2954  0.2709
19892TIP3    H181091   1.929   0.414  12.517 -0.4704 -1.4138 -0.5965
19892TIP3    H281092   2.024   0.481  12.420 -0.3667 -0.3605  0.2086
19893TIP3   OH281093   4.061   1.918  10.759 -0.2032  0.3116  0.3727
19893TIP3    H181094   3.978   1.877  10.783  0.0973 -1.6060 -1.5891
19893TIP3    H281095   4.122   1.889  10.828 -0.7563  0.3120  0.8710
19894TIP3   OH281096   6.266   5.752  11.245  0.5911  0.3923  0.9075
19894TIP3    H181097   6.255   5.806  11.167 -0.0892  0.6271  1.1659
19894TIP3    H281098   6.185   5.762  11.294  0.7148 -0.3480  1.2841
19895TIP3   OH281099   4.597   6.274  12.141 -0.0163  0.2162  0.4281
19895TIP3    H181100   4.624   6.328  12.066  0.3811 -2.4119 -1.4476
19895TIP3    H281101   4.516   6.315  12.171 -0.2958  1.2806 -1.5739
19896TIP3   OH281102   3.089   5.170  11.603 -0.0285 -0.3502 -0.8549
19896TIP3    H181103   3.127   5.136  11.684 -0.9081  0.3768 -0.1200
19896TIP3    H281104   3.114   5.262  11.601 -0.4412 -0.2408 -1.1546
19897TIP3   OH281105   3.490   5.687   3.592 -0.2692  0.2651 -0.1677
19897TIP3    H181106   3.496   5.704   3.498 -0.7009  1.2074 -0.0396
19897TIP3    H281107   3.431   5.612   3.599 -2.2027  1.6721 -0.5547
19898TIP3   OH281108   6.137   3.038  12.040 -0.1893  0.7494  0.0610
19898TIP3    H181109   6.082   3.091  12.099  0.3079  1.5981 -0.2229
19898TIP3    H281110   6.088   3.033  11.959 -2.0121 -2.4149  1.1746
19899TIP3   OH281111   3.520   4.786  12.863 -0.1451  0.9245  0.3894
19899TIP3    H181112   3.452   4.814  12.802  1.7945  1.2027 -1.7406
19899TIP3    H281113   3.582   4.858  12.866  1.4468 -0.3873  0.1388
19900TIP3   OH281114   2.026   5.188  14.498 -0.0452 -0.3786  0.1152
19900TIP3    H181115   2.100   5.243  14.472 -0.3320 -0.7384 -1.5222
19900TIP3    H281116   1.977   5.243  14.560  1.2696  0.0615  0.8107
19901TIP3   OH281117   4.823   0.285   0.833 -0.4576 -0.3565  0.5445
19901TIP3    H181118   4.795   0.302   0.743  0.0040 -1.6123  0.1454
19901TIP3    H281119   4.748   0.242   0.874  0.0523 -1.6997  0.1230
19902TIP3   OH281120   5.711   1.599   0.831  0.1746 -0.2815  0.5415
19902TIP3    H181121   5.632   1.597   0.886 -0.6481 -0.2347 -0.5921
19902TIP3    H281122   5.773   1.654   0.879 -0.7598  0.3047  1.1117
19903TIP3   OH281123   2.313   6.236   0.326 -0.1131  0.6141  0.0648
19903TIP3    H181124   2.307   6.200   0.237 -0.7081  2.2025 -0.5779
19903TIP3    H281125   2.229   6.216   0.366  0.3460 -0.5651  0.4811
19904TIP3   OH281126   6.465   5.240  11.870  0.2708  0.3016  0.3722
19904TIP3    H181127   6.382   5.199  11.894  0.9131 -0.3977  1.4614
19904TIP3    H281128   6.445   5.287  11.789 -1.5413  1.3512  1.3467
19905TIP3   OH281129   2.336   6.022  11.927  0.8721 -0.0595 -0.4624
19905TIP3    H181130   2.309   6.109  11.895 -2.2273 -1.0308 -0.7338
19905TIP3    H281131   2.432   6.023  11.918  1.3959  4.3938  2.3837
19906TIP3   OH281132   0.213   6.599  16.354 -0.1211  0.5984 -0.0276
19906TIP3    H181133   0.284   6.663  16.363  1.8740 -1.4726 -0.1727
19906TIP3    H281134   0.224   6.540  16.428  1.1987 -2.3621 -2.3642
19907TIP3   OH281135   0.654   4.197   5.007  0.2791  0.4538  0.2466
19907TIP3    H181136   0.746   4.172   5.003  0.1866  0.1370  0.0837
19907TIP3    H281137   0.606   4.119   4.980 -0.0802  0.3410  1.1968
19908TIP3   OH281138   1.848   4.252   3.051 -0.7836  0.3855  0.3720
19908TIP3    H181139   1.843   4.185   3.119 -1.2668  2.1493  2.1828
19908TIP3    H281140   1.776   4.312   3.071 -1.6472  0.4347 -2.3810
19909TIP3   OH281141   1.241   5.771  15.583  0.1053  0.4404 -0.1482
19909TIP3    H181142   1.314   5.734  15.533  0.0174 -0.7393  0.5380
19909TIP3    H281143   1.163   5.742  15.536  0.0010 -1.1731  0.9208
19910TIP3   OH281144   1.633   5.398  14.410  0.4969  0.1240  0.8291
19910TIP3    H181145   1.670   5.487  14.413 -0.6526  0.6309  0.5081
19910TIP3    H281146   1.538   5.412  14.407  0.3465 -1.0594 -1.5891
19911TIP3   OH281147   1.333   6.701  11.089  0.9035  0.1280  0.4289
19911TIP3    H181148   1.375   6.772  11.041  0.9251 -0.1696  0.0063
19911TIP3    H281149   1.404   6.639  11.108  0.3033 -1.7651 -2.7034
19912TIP3   OH281150   2.522   1.043   2.055 -0.1702  0.5511  0.1910
19912TIP3    H181151   2.439   1.091   2.057 -0.1317  0.6063  0.9814
19912TIP3    H281152   2.588   1.107   2.078 -0.1220  0.1413  1.2821
19913TIP3   OH281153   6.466   5.442  17.082  0.0313  1.0171 -0.1226
19913TIP3    H181154   6.474   5.347  17.088  3.4556  1.2747  2.0232
19913TIP3    H281155   6.377   5.460  17.113 -0.7019 -1.4331 -0.5722
19914TIP3   OH281156   0.130   1.744   1.094  0.1332  0.0764  0.5209
19914TIP3    H181157   0.077   1.719   1.018  0.2006  2.1725 -0.2735
19914TIP3    H281158   0.141   1.663   1.144 -2.4759 -0.7520 -0.1139
19915TIP3   OH281159   6.406   3.631   2.082 -0.6474  0.1789 -0.3599
19915TIP3    H181160   6.491   3.616   2.123 -1.1647 -1.6193  0.1398
19915TIP3    H281161   6.342   3.594   2.143 -1.8683  1.9151 -0.4919
19916TIP3   OH281162   2.662   5.987   1.357 -0.6169 -0.2707 -0.5670
19916TIP3    H181163   2.665   5.909   1.411 -1.1356 -0.9917 -1.5555
19916TIP3    H281164   2.591   6.039   1.394  0.0914  0.0242  0.4419
19917TIP3   OH281165   4.054   3.155   2.249 -0.3472 -0.4025 -0.3895
19917TIP3    H181166   4.048   3.076   2.302 -0.7291 -0.4931 -0.5587
19917TIP3    H281167   4.122   3.208   2.290 -0.0739 -0.8331 -0.2939
19918TIP3   OH281168   6.018   5.330   3.096  0.1025 -0.4560 -0.1057
19918TIP3    H181169   6.000   5.307   3.006  0.4074  0.6023 -0.4556
19918TIP3    H281170   6.098   5.281   3.118  0.5661  0.0151 -0.7222
19919TIP3   OH281171   0.623   6.125   3.666 -0.2877  0.1637  0.0788
19919TIP3    H181172   0.715   6.113   3.645 -0.7019 -1.5906 -1.0098
19919TIP3    H281173   0.583   6.041   3.642 -2.0056  0.5584  1.4009
19920TIP3   OH281174   1.427   4.789   0.152 -0.6011  0.3060  0.0225
19920TIP3    H181175   1.501   4.846   0.135 -0.9072  1.0378  1.0157
19920TIP3    H281176   1.352   4.848   0.158 -1.1647 -0.3543 -0.3453
19921TIP3   OH281177   1.725   1.164  16.258  0.1519 -0.1350 -0.2463
19921TIP3    H181178   1.672   1.143  16.181 -0.5966 -0.5668  0.3724
19921TIP3    H281179   1.814   1.140  16.233  0.0538  0.4549 -1.2504
19922TIP3   OH281180   2.836   4.880   1.580  0.1288 -0.2280 -0.3965
19922TIP3    H181181   2.844   4.903   1.673 -5.6729  0.3801  0.3436
19922TIP3    H281182   2.843   4.964   1.535 -0.3444 -0.0296 -0.1074
19923TIP3   OH281183   0.238   5.115  12.989 -0.0381  0.4754 -0.3713
19923TIP3    H181184   0.273   5.066  13.063  0.2463  1.2404  0.0139
19923TIP3    H281185   0.153   5.146  13.019 -1.0932 -1.3918 -1.3103
19924TIP3   OH281186   3.860   3.766   4.009 -0.2333  0.2965  0.6728
19924TIP3    H181187   3.776   3.723   4.030  0.5826 -0.9055  1.6433
19924TIP3    H281188   3.852   3.853   4.047 -0.9493  0.0985  1.0026
19925TIP3   OH281189   2.948   4.269   1.930 -0.2752 -0.2512  0.1363
19925TIP3    H181190   2.876   4.214   1.899  0.7526 -0.8817 -1.2449
19925TIP3    H281191   2.943   4.264   2.026  0.3189 -3.5660  0.1157
19926TIP3   OH281192   2.144   2.349  12.402 -0.1651 -0.2197 -0.4564
19926TIP3    H181193   2.166   2.329  12.493 -0.2600 -1.6841 -0.7342
19926TIP3    H281194   2.067   2.406  12.408  0.9918  1.3483  0.4004
19927TIP3   OH281195   3.883   0.382  14.022 -0.2099  0.2286 -0.0089
19927TIP3    H181196   3.969   0.368  14.060  0.1935  2.5391  0.0541
19927TIP3    H281197   3.832   0.305  14.048  1.6967 -0.9949  0.2658
19928TIP3   OH281198   4.489   3.958  11.592  0.0673 -0.2926  0.1418
19928TIP3    H181199   4.545   3.984  11.519 -0.8439  1.1455 -0.0688
19928TIP3    H281200   4.550   3.938  11.663  0.9068 -0.4761 -0.6116
19929TIP3   OH281201   6.148   5.621   4.540 -0.3729 -0.0995  0.2761
19929TIP3    H181202   6.106   5.548   4.585 -1.3481  0.1947 -0.1339
19929TIP3    H281203   6.153   5.690   4.606 -0.6051 -0.1057  0.2995
19930TIP3   OH281204   6.618   1.849  11.072 -0.0956 -0.0353  0.0230
19930TIP3    H181205   6.663   1.933  11.059  2.9612 -1.3542  1.0451
19930TIP3    H281206   6.551   1.868  11.137  0.6828  1.6002  0.4135
19931TIP3   OH281207   2.270   3.534  14.587  0.5639  0.0800  0.0600
19931TIP3    H181208   2.276   3.444  14.554  0.4465  0.0327  0.1672
19931TIP3    H281209   2.178   3.558  14.575  0.7045  0.3788 -0.4675
19932TIP3   OH281210   4.497   0.376  14.757 -0.0972 -0.2857 -0.1066
19932TIP3    H181211   4.487   0.433  14.833 -0.6601  1.0226 -1.1165
19932TIP3    H281212   4.574   0.323  14.777  1.8237  2.3294  0.0247
19933TIP3   OH281213   5.349   6.561  14.186  0.2347  0.0163  0.5692
19933TIP3    H181214   5.343   6.523  14.099 -0.5020  0.0477  0.5943
19933TIP3    H281215   5.441   6.554  14.210  1.4399  3.8889 -1.9213
19934TIP3   OH281216   0.739   5.397  12.562 -0.1801 -0.2626  0.4358
19934TIP3    H181217   0.711   5.401  12.471 -0.2476  1.1101  0.4922
19934TIP3    H281218   0.670   5.442  12.611  0.1606 -0.4147  1.0766
19935TIP3   OH281219   2.079   3.694  16.493 -0.1908 -0.0682 -0.0208
19935TIP3    H181220   2.099   3.607  16.528 -0.1707  0.1834  0.6043
19935TIP3    H281221   2.160   3.720  16.449  0.7195  0.6835  1.9709
19936TIP3   OH281222   2.103   5.670   6.974 -0.8071  0.0082  0.1043
19936TIP3    H181223   2.173   5.726   7.007  0.0564 -0.5215 -0.7467
19936TIP3    H281224   2.023   5.721   6.986 -0.2967  0.5762  1.2225
19937TIP3   OH281225   4.750   0.200  16.918 -0.3243 -0.3020 -0.5151
19937TIP3    H181226   4.669   0.216  16.968 -1.3665  0.7162 -2.3895
19937TIP3    H281227   4.800   0.281  16.928 -0.5563 -0.0768 -1.0903
19938TIP3   OH281228   1.416   6.183  16.849 -0.1563  0.3053 -0.1741
19938TIP3    H181229   1.321   6.193  16.853 -0.3194 -1.2602  0.4713
19938TIP3    H281230   1.433   6.156  16.759 -0.0584  2.6674 -0.9253
19939TIP3   OH281231   1.873   1.695  13.301 -0.3806 -0.2829  0.2440
19939TIP3    H181232   1.940   1.658  13.359 -0.7944 -0.0527  0.8893
19939TIP3    H281233   1.902   1.785  13.284  0.3566 -0.7175 -0.8995
19940TIP3   OH281234   5.000   5.933   5.874  0.3600  0.1528  0.4122
19940TIP3    H181235   4.980   5.922   5.967 -0.1359  0.6505  0.3765
19940TIP3    H281236   5.037   5.849   5.847  1.3212  0.2881  1.2553
19941TIP3   OH281237   6.656   5.321  11.578 -0.1668  0.5089  0.1232
19941TIP3    H181238   6.568   5.359  11.580 -0.3672  0.0506  0.9719
19941TIP3    H281239   6.705   5.370  11.644  0.3719  1.0978 -0.6994
19942TIP3   OH281240   2.362   2.526   4.996  0.0507  0.0286  0.0918
19942TIP3    H181241   2.313   2.446   4.978  0.1081 -0.0045  0.0807
19942TIP3    H281242   2.349   2.542   5.089 -0.0595  0.0732  0.0696
19943TIP3   OH281243   5.479   0.933   4.226 -0.3826  0.1358  0.0811
19943TIP3    H181244   5.447   1.021   4.209 -1.2400 -0.3424 -0.9190
19943TIP3    H281245   5.403   0.877   4.213 -0.4482 -0.6031  2.9310
19944TIP3   OH281246   0.910   0.959  11.194  0.0980  0.1404 -0.1487
19944TIP3    H181247   0.883   1.050  11.185  1.2819  0.5342  0.0910
19944TIP3    H281248   0.992   0.963  11.244  0.8091 -0.9514 -1.1772
19945TIP3   OH281249   0.359   2.987   3.135 -0.0180  0.2590 -0.1921
19945TIP3    H181250   0.403   3.024   3.211  1.9889  1.0292 -1.6408
19945TIP3    H281251   0.314   2.909   3.168  0.7978  0.5690  1.7454
19946TIP3   OH281252   2.587   1.273  13.138 -0.4234  0.2184 -0.7115
19946TIP3    H181253   2.568   1.250  13.229 -1.5110  0.5251 -0.8463
19946TIP3    H281254   2.673   1.314  13.142 -1.2741  2.0813  0.5235
19947TIP3   OH281255   5.642   5.045  14.806 -0.1685  0.1653 -0.4289
19947TIP3    H181256   5.719   5.041  14.863 -0.9682 -0.5552  0.6525
19947TIP3    H281257   5.659   4.980  14.738  0.1036 -0.1393 -0.0752
19948TIP3   OH281258   6.224   0.225   2.896 -0.0087 -0.5128 -0.2668
19948TIP3    H181259   6.235   0.200   2.988  0.4549 -0.3293 -0.2678
19948TIP3    H281260   6.311   0.254   2.869 -0.1690 -0.4637 -0.7345
19949TIP3   OH281261   3.501   5.678  14.144 -0.7194  0.2890 -0.3514
19949TIP3    H181262   3.484   5.755  14.090  1.6299  0.2800 -1.2376
19949TIP3    H281263   3.477   5.706  14.233 -0.2377  1.9417 -0.6957
19950TIP3   OH281264   4.719   1.066   4.899 -0.1075 -0.2256  0.7452
19950TIP3    H181265   4.711   1.153   4.860  0.0440 -0.7609 -0.5221
19950TIP3    H281266   4.814   1.049   4.902 -0.1381 -0.3697  0.9258
19951TIP3   OH281267   4.817   5.594  15.322 -0.0701 -0.2365 -0.2643
19951TIP3    H181268   4.783   5.514  15.281  0.9586 -0.1040 -1.4562
19951TIP3    H281269   4.813   5.576  15.416  0.4918 -1.8675 -0.5194
19952TIP3   OH281270   2.873   4.532   2.184  0.2035  0.0309  0.2131
19952TIP3    H181271   2.850   4.624   2.178  1.3162  0.2251 -1.7012
19952TIP3    H281272   2.793   4.486   2.156  0.5249  0.5436 -1.6899
19953TIP3   OH281273   2.128   2.373   4.258 -0.1592 -0.2160 -0.0232
19953TIP3    H181274   2.060   2.414   4.205  0.1194  0.2091 -0.0580
19953TIP3    H281275   2.192   2.342   4.193  0.8597  1.5204  0.1047
19954TIP3   OH281276   3.887   0.425  12.417 -0.1135 -0.5689  0.3215
19954TIP3    H181277   3.902   0.331  12.428  1.7690 -0.6379 -1.8548
19954TIP3    H281278   3.968   0.466  12.449 -0.1445  0.1433 -0.4771
19955TIP3   OH281279   2.369   6.493   3.303 -0.1674  0.7201  0.1718
19955TIP3    H181280   2.386   6.521   3.393 -0.6294  1.6691 -0.0275
19955TIP3    H281281   2.421   6.413   3.293  0.3202  0.9038  1.1033
19956TIP3   OH281282   4.949   2.854  14.010  0.5081  0.1581 -0.2649
19956TIP3    H181283   5.024   2.851  13.952 -0.2148  0.3645 -1.2375
19956TIP3    H281284   4.913   2.942  13.999  0.1890  0.1052  0.2842
19957TIP3   OH281285   1.719   0.110  14.044  0.1043  0.6741  0.4104
19957TIP3    H181286   1.768   0.167  14.104  2.2326 -0.6575  0.0522
19957TIP3    H281287   1.636   0.155  14.030  1.2895  3.1666  0.9079
19958TIP3   OH281288   4.366   4.158   4.753 -0.0986  0.1350  0.7526
19958TIP3    H181289   4.374   4.065   4.733  1.4635  0.5920 -0.9452
19958TIP3    H281290   4.413   4.170   4.836  0.3721 -0.4552  0.5712
19959TIP3   OH281291   4.390   5.073  14.485  0.9600  0.3306 -1.1365
19959TIP3    H181292   4.369   5.160  14.450 -3.6134  0.0658  0.2011
19959TIP3    H281293   4.364   5.012  14.416  0.0383  0.0198 -0.5457
19960TIP3   OH281294   3.177   3.878  16.066 -0.3679 -0.0602  0.5897
19960TIP3    H181295   3.252   3.876  16.126 -0.9110 -1.6984  1.2728
19960TIP3    H281296   3.113   3.932  16.111 -0.2077 -0.0148  0.7678
19961TIP3   OH281297   2.467   3.603   2.771  0.6419 -0.3139  0.1663
19961TIP3    H181298   2.403   3.576   2.706  1.9637 -2.4843 -0.3427
19961TIP3    H281299   2.526   3.662   2.723 -0.1111  0.5154  0.2448
19962TIP3   OH281300   4.795   2.912  12.218 -0.1503 -0.2725  0.6786
19962TIP3    H181301   4.754   2.829  12.242 -0.5491 -0.5454 -0.8869
19962TIP3    H281302   4.799   2.960  12.301  1.0901 -2.2441  1.8492
19963TIP3   OH281303   2.301   2.915  11.767  0.2373  0.0157  0.3741
19963TIP3    H181304   2.396   2.906  11.767  0.0999 -1.7271  0.6168
19963TIP3    H281305   2.280   2.954  11.852  0.7795  1.4093 -0.1023
19964TIP3   OH281306   1.762   5.275  15.755 -0.0857 -0.2707  0.3393
19964TIP3    H181307   1.827   5.344  15.768 -1.7001  1.1563  1.2647
19964TIP3    H281308   1.764   5.257  15.661 -0.9627  2.4895 -0.3103
19965TIP3   OH281309   0.810   1.320  14.407  0.0558  0.0759  0.2785
19965TIP3    H181310   0.783   1.265  14.480 -1.3829  0.7671  0.2962
19965TIP3    H281311   0.889   1.364  14.438  1.2804 -1.9546  0.2467
19966TIP3   OH281312   3.224   3.003   4.626  0.0604  0.3363  0.5603
19966TIP3    H181313   3.188   2.967   4.546  1.9601  0.3349 -0.3428
19966TIP3    H281314   3.148   3.014   4.684 -1.4395  0.8326 -1.3961
19967TIP3   OH281315   1.719   6.076   5.832  0.4526 -0.2872 -0.1488
19967TIP3    H181316   1.797   6.132   5.837  0.0432  0.3025 -0.2766
19967TIP3    H281317   1.700   6.053   5.923 -2.0299  3.5236  0.4985
19968TIP3   OH281318   0.718   0.778  16.353  0.3805  0.1899 -0.4990
19968TIP3    H181319   0.779   0.739  16.415  0.8623  1.3563 -0.2178
19968TIP3    H281320   0.763   0.855  16.319 -0.6509  0.6788 -0.8121
19969TIP3   OH281321   2.375   6.712  14.063  0.2450  0.4807 -0.4558
19969TIP3    H181322   2.456   6.762  14.052  0.0146  0.8684 -0.3772
19969TIP3    H281323   2.345   6.694  13.974  1.2747 -1.0690 -0.5346
19970TIP3   OH281324   4.745   2.718  15.441  0.0477 -0.1261  0.3114
19970TIP3    H181325   4.754   2.637  15.491 -2.1486 -1.6606 -1.5596
19970TIP3    H281326   4.766   2.692  15.351 -1.6457  1.1155 -0.4825
19971TIP3   OH281327   6.051   1.091  13.782  0.7098  0.1122 -0.1688
19971TIP3    H181328   6.130   1.038  13.769  1.1330  1.0355 -1.5888
19971TIP3    H281329   6.053   1.115  13.874  2.8532  1.2543 -0.4414
19972TIP3   OH281330   4.234   6.101   5.288  0.0771 -0.2399  0.0509
19972TIP3    H181331   4.242   6.026   5.229 -0.3976  2.4096 -3.7634
19972TIP3    H281332   4.149   6.089   5.330  1.5363 -3.5370  2.4903
19973TIP3   OH281333   0.364   0.118  16.499 -0.2456  0.1182 -0.4096
19973TIP3    H181334   0.402   0.072  16.424  0.2635  0.2276 -0.2250
19973TIP3    H281335   0.291   0.168  16.463 -0.3498 -0.2649 -0.7353
19974TIP3   OH281336   2.453   2.699  15.063 -0.6351  0.2235  0.0458
19974TIP3    H181337   2.443   2.701  15.159  1.7686  0.6362  0.3543
19974TIP3    H281338   2.508   2.775  15.044 -1.6568  0.5336 -1.7637
19975TIP3   OH281339   0.578   6.204  16.865  0.2361  0.0994 -0.2761
19975TIP3    H181340   0.573   6.231  16.957 -1.2456 -1.2310  0.0919
19975TIP3    H281341   0.487   6.184  16.842  0.7530 -0.7377 -1.6648
19976TIP3   OH281342   3.343   5.898  16.355  0.2151  0.2568  0.2471
19976TIP3    H181343   3.351   5.925  16.447  0.5483  0.7341  0.0831
19976TIP3    H281344   3.368   5.805  16.356  1.3849  0.5559  0.4685
19977TIP3   OH281345   4.659   1.908  16.246  0.4508  0.2853  0.1123
19977TIP3    H181346   4.593   1.871  16.306  0.3961  3.3571  2.1702
19977TIP3    H281347   4.740   1.909  16.297  1.4830 -0.8488 -1.4182
19978TIP3   OH281348   1.100   2.374  14.762  0.1959  0.0120  0.2873
19978TIP3    H181349   1.048   2.393  14.840 -0.5252 -0.1556 -0.1418
19978TIP3    H281350   1.185   2.414  14.779 -0.2626  0.7950  0.7573
19979TIP3   OH281351   5.286   5.215   2.207  0.0605  0.0254  0.6004
19979TIP3    H181352   5.198   5.218   2.245  0.2645 -0.1674  1.0885
19979TIP3    H281353   5.298   5.123   2.183  0.5155 -0.1502  1.4605
19980TIP3   OH281354   0.709   3.088  12.191 -0.1568 -0.6926 -0.5517
19980TIP3    H181355   0.620   3.079  12.225  0.0390 -0.8876 -0.0915
19980TIP3    H281356   0.747   3.158  12.243 -0.1025 -0.4685 -0.8873
19981TIP3   OH281357   4.825   4.531  14.950  0.3280 -0.1879  0.0094
19981TIP3    H181358   4.896   4.489  14.999 -2.3925 -1.2453  3.4405
19981TIP3    H281359   4.808   4.612  14.997  0.5776  1.1517 -2.0785
19982TIP3   OH281360   1.348   6.147  14.563 -0.5795 -0.2991  0.0356
19982TIP3    H181361   1.384   6.136  14.475  0.5520 -0.3175  0.4785
19982TIP3    H281362   1.418   6.191  14.612 -1.3390  0.0615  0.8281
19983LIG      O81363   1.681   5.266  16.549 -0.9623 -0.0851 -0.7306
19983LIG     C181364   1.681   5.150  16.629 -0.2616 -0.5873  0.4966
19983LIG     C281365   1.588   5.159  16.745  0.1380  0.3205  0.3393
19983LIG     C381366   1.652   5.038  16.523  0.6693  0.2424 -0.1991
19983LIG     H181367   1.783   5.124  16.665 -0.3831  1.3445  2.4972
19983LIG     H281368   1.596   5.060  16.796  0.7145 -0.1789 -0.7059
19983LIG     H381369   1.486   5.178  16.706  0.6563  1.1392 -0.6598
19983LIG     H481370   1.618   5.242  16.813 -0.6553 -0.6483  1.9612
19983LIG     H581371   1.639   4.933  16.557 -0.6267 -0.0759 -1.5634
19983LIG     H681372   1.739   5.033  16.453  1.4713  0.8589  0.7249
19983LIG     H781373   1.562   5.065  16.464  1.5040  1.8249 -0.7983
19983LIG     H881374   1.758   5.268  16.492 -1.3510  0.0493 -1.2471
   6.78221   6.78221  17.26683
